INSANE! Membrane UpperLeaflet>loPI:POPI:DPPI:PYPI:ERGO=140.0:15.0:9.0:6.0:30.0 LowerLeaflet>PSPI:POPI:POPS:YOPS:POPE:YOPE:POPC:YOPC:ERGO=6.0:14.0:21.0:9.0:9.0:21.0:12.0:48.0:60.0
49207
    1loPI    C1    1   5.517   6.904   9.699  0.3000  0.0253 -0.1284
    1loPI    C2    2   5.872   6.720   9.706  0.3008  0.0286 -0.0745
    1loPI    C3    3   5.694   6.824  10.049  0.1225 -0.2147 -0.0912
    1loPI   PO4    4   5.334   6.730   9.543 -0.2525  0.0525 -0.2453
    1loPI   GL1    5   5.500   6.279   9.346 -0.1193  0.3952  0.0279
    1loPI   GL2    6   5.675   6.376   9.227  0.2667 -0.0237 -0.0188
    1loPI   C1A    7   5.332   6.057   8.999  0.0584 -0.0830  0.1522
    1loPI   C2A    8   5.184   6.070   8.558 -0.0381 -0.0727 -0.5255
    1loPI   C3A    9   5.204   6.345   8.144  0.0369 -0.1958  0.1458
    1loPI   C4A   10   5.290   6.600   7.642  0.0362 -0.0436 -0.1672
    1loPI   C5A   11   5.553   6.867   7.661 -0.0077  0.0379  0.0875
    1loPI   C6A   12   5.890   7.083   7.466 -0.0256 -0.0452  0.0649
    1loPI   C1B   13   5.726   6.191   8.766  0.2133  0.2171 -0.0248
    1loPI   C2B   14   5.684   6.217   8.321  0.1195 -0.0313 -0.1307
    1loPI   C3B   15   5.649   6.596   8.075  0.1549 -0.1261 -0.1119
    1loPI   C4B   16   5.734   6.989   8.081 -0.0048  0.2257  0.1160
    2loPI    C1   17   0.117  11.347  10.394  0.1465 -0.1723 -0.1325
    2loPI    C2   18   0.385  11.395  10.686  0.1462 -0.2351 -0.1218
    2loPI    C3   19   0.002  11.325  10.776  0.0826  0.0808 -0.1354
    2loPI   PO4   20   0.131  11.072  10.249  0.0747  0.1854  0.0085
    2loPI   GL1   21  -0.050  10.808   9.950  0.0108  0.4236 -0.7336
    2loPI   GL2   22   0.271  10.811   9.846 -0.0493 -0.2337 -0.1007
    2loPI   C1A   23  -0.235  10.759   9.606 -0.0409 -0.1430 -0.3289
    2loPI   C2A   24  -0.257  10.773   9.116  0.3966 -0.3198  0.0351
    2loPI   C3A   25  -0.259  11.043   8.822  0.1661 -0.0286 -0.0474
    2loPI   C4A   26  -0.224  11.163   8.449  0.1941 -0.2984 -0.2577
    2loPI   C5A   27  -0.385  10.991   8.043  0.1604  0.0337 -0.4195
    2loPI   C6A   28  -0.769  10.923   7.826  0.1211 -0.0914 -0.2002
    2loPI   C1B   29   0.101  11.047   9.494  0.1420 -0.0205  0.3248
    2loPI   C2B   30  -0.136  11.263   9.246  0.3207  0.0072  0.0053
    2loPI   C3B   31  -0.346  11.587   8.911  0.2185 -0.2824  0.0299
    2loPI   C4B   32  -0.570  11.891   8.628 -0.1222  0.4250 -0.1214
    3loPI    C1   33   3.343   4.558   9.658 -0.1355 -0.0534 -0.0526
    3loPI    C2   34   3.320   4.397  10.024 -0.2988  0.2875  0.0915
    3loPI    C3   35   3.666   4.553   9.895 -0.1847 -0.0226  0.0154
    3loPI   PO4   36   3.142   4.721   9.621 -0.1722  0.0442  0.1334
    3loPI   GL1   37   2.901   4.642   9.160  0.1872  0.1198 -0.0384
    3loPI   GL2   38   3.134   4.357   9.245 -0.0448  0.4078  0.1597
    3loPI   C1A   39   3.195   4.831   8.805  0.2411 -0.0122 -0.1495
    3loPI   C2A   40   3.158   5.171   8.575 -0.0533 -0.0435  0.1390
    3loPI   C3A   41   3.078   5.597   8.517 -0.1301 -0.0387  0.0250
    3loPI   C4A   42   2.756   5.794   8.521  0.1609  0.3390  0.3061
    3loPI   C5A   43   2.592   5.891   8.081  0.0009 -0.0218  0.0233
    3loPI   C6A   44   2.890   5.867   7.745 -0.2120 -0.2589  0.0932
    3loPI   C1B   45   2.896   4.337   8.764 -0.1269 -0.1701  0.2070
    3loPI   C2B   46   2.829   4.262   8.441 -0.3128  0.2114  0.1824
    3loPI   C3B   47   2.672   4.154   8.030  0.0236  0.1371 -0.1120
    3loPI   C4B   48   2.542   4.288   7.596  0.1430 -0.1971 -0.1090
    4loPI    C1   49  16.314   3.976  10.320  0.1653 -0.0730 -0.1394
    4loPI    C2   50  16.438   3.616  10.441 -0.1437 -0.0495  0.2693
    4loPI    C3   51  16.138   3.798  10.632 -0.1667  0.3123 -0.0990
    4loPI   PO4   52  16.273   3.976  10.109  0.1622  0.3582 -0.2855
    4loPI   GL1   53  16.475   4.126   9.648 -0.3000  0.1557  0.1644
    4loPI   GL2   54  16.595   3.777   9.567 -0.1171 -0.0566 -0.0050
    4loPI   C1A   55  16.612   4.139   9.172 -0.1476 -0.5587 -0.0473
    4loPI   C2A   56  16.546   4.197   8.814  0.0390 -0.1024  0.3373
    4loPI   C3A   57  16.529   4.206   8.212 -0.0863 -0.2672 -0.0996
    4loPI   C4A   58  16.786   4.227   7.839  0.2415 -0.1592  0.2148
    4loPI   C5A   59  16.877   4.071   7.486 -0.3458 -0.1614  0.3762
    4loPI   C6A   60  16.945   4.264   7.044  0.3142  0.2664  0.1916
    4loPI   C1B   61  16.989   3.542   9.353  0.0708 -0.3643 -0.1969
    4loPI   C2B   62  17.034   3.398   8.856  0.3289  0.1324  0.3251
    4loPI   C3B   63  16.742   3.128   8.673 -0.0379  0.2777  0.2751
    4loPI   C4B   64  16.657   2.873   8.326  0.1421 -0.2114 -0.2229
    5loPI    C1   65   5.844  12.373   9.727  0.1407  0.1686 -0.0502
    5loPI    C2   66   5.825  12.334  10.125 -0.1874  0.4218 -0.0375
    5loPI    C3   67   6.151  12.213   9.928 -0.1896 -0.0943  0.2587
    5loPI   PO4   68   5.584  12.425   9.675 -0.2839 -0.1854 -0.0021
    5loPI   GL1   69   5.454  12.347   9.280 -0.0120 -0.2750 -0.0128
    5loPI   GL2   70   5.241  12.483   9.218  0.0285 -0.1626 -0.1067
    5loPI   C1A   71   5.712  12.302   8.898  0.0101 -0.0740 -0.0701
    5loPI   C2A   72   5.833  12.097   8.451 -0.1796  0.1168 -0.3251
    5loPI   C3A   73   5.977  12.174   8.143  0.3409 -0.0219 -0.1751
    5loPI   C4A   74   6.216  12.131   7.813  0.0124 -0.3637 -0.2864
    5loPI   C5A   75   6.374  12.313   7.439 -0.3316 -0.1475  0.5045
    5loPI   C6A   76   6.814  12.180   7.280 -0.1922 -0.0291 -0.2987
    5loPI   C1B   77   5.136  12.265   8.784  0.4165 -0.0649  0.1792
    5loPI   C2B   78   5.259  12.040   8.538 -0.2330 -0.0032  0.1063
    5loPI   C3B   79   5.408  12.204   8.117 -0.2610  0.2046 -0.1874
    5loPI   C4B   80   5.679  12.181   7.766  0.2029  0.0128  0.2491
    6loPI    C1   81   2.046  10.997   9.703  0.0466  0.3519 -0.2002
    6loPI    C2   82   1.853  10.893  10.038  0.2884  0.0819 -0.1410
    6loPI    C3   83   2.036  11.248  10.014 -0.0669  0.2698 -0.1366
    6loPI   PO4   84   1.953  10.907   9.508 -0.6249  0.0470 -0.0090
    6loPI   GL1   85   1.909  10.540   9.321  0.1474 -0.0999 -0.0222
    6loPI   GL2   86   1.587  10.583   9.489 -0.0361 -0.0095 -0.0649
    6loPI   C1A   87   1.888  10.671   8.893  0.0473 -0.0244  0.0064
    6loPI   C2A   88   1.873  10.492   8.525  0.1188  0.2462  0.1163
    6loPI   C3A   89   1.959  10.467   8.082 -0.2624  0.0623 -0.0822
    6loPI   C4A   90   2.081  10.434   7.702  0.2142 -0.1915  0.0094
    6loPI   C5A   91   2.308  10.042   7.538 -0.2656 -0.2780  0.0999
    6loPI   C6A   92   2.473   9.550   7.521  0.2142  0.1499  0.2481
    6loPI   C1B   93   1.426  10.581   9.087  0.1072 -0.0813  0.2200
    6loPI   C2B   94   1.424  10.440   8.647  0.3477  0.0485 -0.2282
    6loPI   C3B   95   1.357  10.308   8.236 -0.1813 -0.1631  0.3413
    6loPI   C4B   96   1.207  10.028   7.997  0.1938 -0.1516  0.0287
    7loPI    C1   97  14.178  15.754  10.395 -0.0098  0.2724 -0.1360
    7loPI    C2   98  14.473  15.969  10.559 -0.0570  0.1595  0.1022
    7loPI    C3   99  14.108  16.129  10.517 -0.1057  0.1116  0.3269
    7loPI   PO4  100  14.286  15.536  10.197 -0.1218 -0.0819  0.1807
    7loPI   GL1  101  14.495  15.407   9.845 -0.3333 -0.1804 -0.1002
    7loPI   GL2  102  14.265  15.631   9.684  0.0821  0.3064 -0.2108
    7loPI   C1A  103  14.715  15.312   9.440  0.1594  0.0239 -0.0218
    7loPI   C2A  104  14.710  15.398   8.881 -0.2733  0.2874 -0.0805
    7loPI   C3A  105  14.966  15.408   8.499  0.1958  0.2375 -0.2996
    7loPI   C4A  106  14.858  15.566   8.057  0.2412  0.0484  0.1041
    7loPI   C5A  107  14.905  15.810   7.630 -0.1282  0.2409 -0.2601
    7loPI   C6A  108  14.682  15.813   7.271  0.2137  0.0473  0.0850
    7loPI   C1B  109  14.395  15.644   9.285 -0.0766  0.0732  0.0938
    7loPI   C2B  110  14.340  15.738   8.893  0.5334  0.0014 -0.0319
    7loPI   C3B  111  14.522  15.712   8.522 -0.3470 -0.2933 -0.1072
    7loPI   C4B  112  14.483  15.921   8.166 -0.2255  0.2008 -0.0922
    8loPI    C1  113   9.085   0.913   9.855 -0.0924 -0.1066 -0.1286
    8loPI    C2  114   9.040   1.151  10.174  0.0203 -0.1217 -0.1013
    8loPI    C3  115   8.770   0.866  10.097 -0.1001 -0.0041 -0.1181
    8loPI   PO4  116   9.371   0.857   9.865  0.4278  0.1932 -0.0374
    8loPI   GL1  117   9.532   0.712   9.465  0.0642  0.1297 -0.0927
    8loPI   GL2  118   9.362   0.964   9.357  0.0426 -0.0903  0.4172
    8loPI   C1A  119   9.398   0.386   9.088 -0.0133 -0.1012  0.3672
    8loPI   C2A  120   9.551   0.199   8.670 -0.0441 -0.2110 -0.1944
    8loPI   C3A  121   9.701   0.135   8.319 -0.6031 -0.2117 -0.0861
    8loPI   C4A  122   9.564  -0.048   7.830 -0.0807  0.1574 -0.0826
    8loPI   C5A  123   9.538  -0.251   7.417 -0.0303  0.0417  0.0671
    8loPI   C6A  124   9.640  -0.407   7.042 -0.1040  0.0275 -0.2296
    8loPI   C1B  125   9.513   0.878   8.964 -0.1221 -0.3271 -0.0516
    8loPI   C2B  126   9.415   1.000   8.634 -0.3395 -0.0936  0.0704
    8loPI   C3B  127   9.405   1.167   8.243 -0.0868  0.0920 -0.0590
    8loPI   C4B  128   9.121   1.290   7.849  0.1790  0.0313  0.2252
    9loPI    C1  129  13.217   8.450   9.851  0.1260  0.0316 -0.2176
    9loPI    C2  130  13.144   8.057   9.835  0.5191 -0.0595  0.0619
    9loPI    C3  131  13.101   8.254  10.180 -0.0839  0.2364 -0.1668
    9loPI   PO4  132  13.397   8.444   9.710  0.1116 -0.2004  0.1054
    9loPI   GL1  133  13.269   8.499   9.300 -0.1012  0.0559  0.0109
    9loPI   GL2  134  13.393   8.763   9.059  0.0929 -0.1913 -0.0508
    9loPI   C1A  135  12.955   8.519   9.020 -0.1014 -0.1085  0.0662
    9loPI   C2A  136  12.886   8.386   8.490  0.3598 -0.2359  0.2213
    9loPI   C3A  137  12.849   8.278   8.054  0.0127  0.2292 -0.1530
    9loPI   C4A  138  12.708   8.450   7.757  0.0732  0.0389 -0.0466
    9loPI   C5A  139  12.668   8.991   7.558  0.0922 -0.4660  0.3329
    9loPI   C6A  140  12.998   9.328   7.558 -0.0748  0.1712  0.1026
    9loPI   C1B  141  13.284   8.784   8.556  0.3167  0.0851 -0.0093
    9loPI   C2B  142  13.335   8.493   8.265  0.1967 -0.2363  0.2255
    9loPI   C3B  143  13.383   8.253   7.906 -0.2385  0.1271 -0.2022
    9loPI   C4B  144  13.621   7.984   7.938  0.3159  0.0997 -0.3113
   10loPI    C1  145   8.639   8.077   9.837 -0.0180 -0.0599 -0.1669
   10loPI    C2  146   8.973   8.282   9.918 -0.2109  0.2839 -0.2207
   10loPI    C3  147   8.716   8.193  10.212  0.0422 -0.2014 -0.1347
   10loPI   PO4  148   8.790   7.899   9.718  0.1799 -0.1925 -0.0895
   10loPI   GL1  149   8.744   7.905   9.334 -0.3249  0.0517  0.1425
   10loPI   GL2  150   8.474   7.816   9.275  0.1281  0.2873 -0.1884
   10loPI   C1A  151   8.911   8.139   9.002  0.0799  0.1288 -0.0262
   10loPI   C2A  152   9.182   8.157   8.673  0.4476  0.0988 -0.2224
   10loPI   C3A  153   9.305   8.097   8.194  0.0509  0.2472  0.0686
   10loPI   C4A  154   9.502   8.086   7.728 -0.0052 -0.2311 -0.1514
   10loPI   C5A  155   9.147   8.210   7.416 -0.2140  0.3003  0.1434
   10loPI   C6A  156   8.820   7.953   7.232  0.1836  0.5583 -0.0036
   10loPI   C1B  157   8.229   7.706   8.821 -0.3475 -0.1418  0.1082
   10loPI   C2B  158   8.273   7.630   8.379 -0.0888 -0.4043  0.1598
   10loPI   C3B  159   8.606   7.533   7.973  0.0775  0.1912 -0.0789
   10loPI   C4B  160   8.636   7.601   7.491 -0.1453  0.5186  0.0136
   11loPI    C1  161   7.904  10.441   9.486 -0.0977  0.3273 -0.2375
   11loPI    C2  162   8.079  10.758   9.657  0.0034  0.2539 -0.2039
   11loPI    C3  163   8.301  10.449   9.534 -0.1177  0.0876 -0.0119
   11loPI   PO4  164   7.790  10.553   9.294 -0.3528 -0.1778  0.1187
   11loPI   GL1  165   7.808  10.694   8.885  0.1334 -0.0081 -0.1023
   11loPI   GL2  166   7.739  10.320   8.737 -0.0455  0.1074 -0.2260
   11loPI   C1A  167   7.853  10.791   8.467  0.0251  0.0717  0.1103
   11loPI   C2A  168   8.090  10.810   8.089  0.1537  0.0167 -0.0836
   11loPI   C3A  169   8.231  10.500   7.702  0.1050  0.2266  0.0040
   11loPI   C4A  170   8.256  10.280   7.299 -0.0240 -0.1170  0.2015
   11loPI   C5A  171   8.458  10.038   7.089 -0.2433 -0.2594 -0.0958
   11loPI   C6A  172   8.866  10.081   7.089  0.0989 -0.0615  0.1345
   11loPI   C1B  173   7.653  10.021   8.479 -0.2872  0.1314  0.1971
   11loPI   C2B  174   7.693   9.804   8.061  0.3761  0.2021 -0.1518
   11loPI   C3B  175   7.568   9.798   7.510 -0.0402 -0.1890  0.2772
   11loPI   C4B  176   7.694   9.762   7.164  0.1912 -0.2885  0.0924
   12loPI    C1  177  17.679  13.103  10.457 -0.0692 -0.0583  0.0354
   12loPI    C2  178  17.649  13.379  10.745  0.0043  0.0056 -0.0180
   12loPI    C3  179  17.680  12.992  10.841  0.1235  0.0346  0.0630
   12loPI   PO4  180  17.822  13.176  10.275  0.0921 -0.1995 -0.0068
   12loPI   GL1  181  17.515  13.092   9.886 -0.1144 -0.3641  0.0643
   12loPI   GL2  182  17.675  13.474   9.869 -0.2288  0.1016  0.3649
   12loPI   C1A  183  17.585  13.053   9.546 -0.0263  0.0920 -0.0335
   12loPI   C2A  184  17.669  13.159   9.063  0.1735  0.3585  0.0049
   12loPI   C3A  185  17.810  13.277   8.704  0.0103  0.1474  0.2261
   12loPI   C4A  186  17.797  13.267   8.331 -0.0847  0.1514 -0.1520
   12loPI   C5A  187  17.791  13.056   7.842 -0.0197  0.1099  0.0262
   12loPI   C6A  188  17.547  12.763   7.570 -0.1906  0.0485  0.1170
   12loPI   C1B  189  17.756  13.503   9.431 -0.3056  0.0741  0.2600
   12loPI   C2B  190  17.767  13.631   8.977 -0.1543  0.1875 -0.0927
   12loPI   C3B  191  17.848  13.745   8.578 -0.0001  0.1416  0.3189
   12loPI   C4B  192  17.921  13.794   8.187  0.3732 -0.1920  0.0983
   13loPI    C1  193   2.965  17.792  10.276 -0.1116  0.0396  0.1068
   13loPI    C2  194   2.651  17.680  10.055  0.1539 -0.1539 -0.1812
   13loPI    C3  195   2.960  17.430  10.105  0.2442  0.0159  0.1368
   13loPI   PO4  196   3.079  18.070  10.130  0.0016  0.2062 -0.3195
   13loPI   GL1  197   3.032  17.889   9.726  0.2839 -0.0335 -0.1224
   13loPI   GL2  198   3.409  17.757   9.679 -0.0441  0.1519 -0.0433
   13loPI   C1A  199   2.769  17.872   9.314  0.0538  0.0923 -0.1520
   13loPI   C2A  200   2.954  17.593   9.070  0.1476  0.0004 -0.3526
   13loPI   C3A  201   2.944  17.213   8.814  0.0346 -0.2158 -0.2560
   13loPI   C4A  202   2.856  17.140   8.395  0.1393 -0.0642  0.1477
   13loPI   C5A  203   2.655  17.268   8.056  0.0743  0.0697  0.1661
   13loPI   C6A  204   2.538  17.480   7.661  0.1619  0.2226  0.0484
   13loPI   C1B  205   3.357  17.898   9.277 -0.1912 -0.1293  0.3117
   13loPI   C2B  206   3.442  18.110   8.818  0.0174 -0.0728 -0.0692
   13loPI   C3B  207   3.387  18.336   8.467  0.2509 -0.0806  0.2974
   13loPI   C4B  208   3.294  18.577   8.069 -0.2834  0.2485  0.1567
   14loPI    C1  209  13.694   0.580  10.252  0.2533 -0.1681 -0.0567
   14loPI    C2  210  13.506   0.451  10.581  0.0392 -0.0267 -0.1217
   14loPI    C3  211  13.790   0.731  10.609  0.2556 -0.2524 -0.0214
   14loPI   PO4  212  13.484   0.619  10.101  0.0898 -0.1094  0.0447
   14loPI   GL1  213  13.358   0.359   9.801  0.1052 -0.0001  0.2230
   14loPI   GL2  214  13.678   0.236   9.798  0.1828  0.0552 -0.2267
   14loPI   C1A  215  13.236   0.347   9.363  0.3528 -0.1545 -0.0044
   14loPI   C2A  216  13.263   0.211   8.953 -0.1118  0.1477  0.0501
   14loPI   C3A  217  13.502   0.228   8.603  0.1946  0.0574 -0.2198
   14loPI   C4A  218  13.763   0.179   8.256  0.2588 -0.3539  0.0770
   14loPI   C5A  219  14.158   0.325   8.064 -0.3912  0.0051  0.3976
   14loPI   C6A  220  14.597   0.581   8.155  0.0147 -0.1311 -0.0406
   14loPI   C1B  221  13.756   0.351   9.338 -0.0179 -0.1575 -0.0287
   14loPI   C2B  222  14.021   0.348   8.903  0.0112  0.3077 -0.0278
   14loPI   C3B  223  14.152   0.077   8.504 -0.1938 -0.1345 -0.1927
   14loPI   C4B  224  14.516  -0.002   8.168  0.2712  0.6667 -0.3542
   15loPI    C1  225   2.630   6.288   9.944  0.2884  0.0283  0.1446
   15loPI    C2  226   2.585   6.016  10.234  0.1325 -0.0420  0.0557
   15loPI    C3  227   2.275   6.242  10.122  0.2646  0.1836  0.1383
   15loPI   PO4  228   2.754   6.190   9.740  0.0583  0.0013  0.1042
   15loPI   GL1  229   2.797   6.055   9.310 -0.1199 -0.1645  0.0823
   15loPI   GL2  230   2.969   6.350   9.314  0.0242 -0.1552  0.1439
   15loPI   C1A  231   3.134   5.975   8.951 -0.5664  0.2208  0.0104
   15loPI   C2A  232   3.308   6.318   8.608  0.2554  0.2165 -0.2984
   15loPI   C3A  233   3.265   6.510   8.205 -0.2359 -0.1177  0.0272
   15loPI   C4A  234   3.080   6.674   7.875 -0.1062 -0.2595 -0.3219
   15loPI   C5A  235   2.961   7.069   7.859  0.0285 -0.1557  0.1189
   15loPI   C6A  236   2.605   7.190   7.819 -0.0287  0.0607 -0.1466
   15loPI   C1B  237   2.716   6.297   8.912  0.1816  0.1601  0.0985
   15loPI   C2B  238   2.380   6.209   8.641  0.0875  0.0766 -0.1982
   15loPI   C3B  239   2.130   6.241   8.377 -0.1780 -0.0377  0.1135
   15loPI   C4B  240   2.014   5.954   8.039  0.0718  0.2668  0.1969
   16loPI    C1  241   5.589  16.822   9.692 -0.0587  0.1545  0.1723
   16loPI    C2  242   5.899  16.623   9.536 -0.0634  0.1415  0.1796
   16loPI    C3  243   5.942  17.005   9.647 -0.0778  0.1708  0.0859
   16loPI   PO4  244   5.348  16.789   9.520 -0.2487 -0.2248 -0.1053
   16loPI   GL1  245   5.076  16.772   9.132 -0.2299 -0.2546 -0.1087
   16loPI   GL2  246   4.775  16.766   8.956  0.0614  0.1310  0.0410
   16loPI   C1A  247   5.249  16.884   8.756 -0.3369  0.0382 -0.0220
   16loPI   C2A  248   5.128  16.900   8.323 -0.1708  0.1940 -0.0563
   16loPI   C3A  249   5.013  16.967   7.838 -0.1527  0.0327 -0.0719
   16loPI   C4A  250   5.239  16.997   7.433  0.3133  0.1948 -0.1612
   16loPI   C5A  251   5.570  17.178   7.143  0.1331 -0.1064  0.0773
   16loPI   C6A  252   5.862  17.357   7.244  0.0758  0.0094  0.0428
   16loPI   C1B  253   4.665  16.668   8.575  0.0036 -0.0297 -0.1177
   16loPI   C2B  254   4.687  16.773   8.224  0.2767 -0.0048  0.1560
   16loPI   C3B  255   4.546  16.743   7.927  0.1371  0.1149  0.1224
   16loPI   C4B  256   4.436  17.031   7.634 -0.4147 -0.0851 -0.3767
   17loPI    C1  257   5.996  14.621   9.786  0.0362 -0.1539  0.0918
   17loPI    C2  258   6.070  14.891  10.073 -0.2489  0.1793 -0.1395
   17loPI    C3  259   5.970  14.516  10.171  0.0186  0.1893  0.1877
   17loPI   PO4  260   5.895  14.741   9.633  0.1922  0.0804  0.0616
   17loPI   GL1  261   5.735  15.002   9.340  0.3109  0.0409 -0.0075
   17loPI   GL2  262   5.698  15.272   9.185  0.0967 -0.1163  0.0955
   17loPI   C1A  263   5.802  14.872   8.833  0.0765  0.0249 -0.1344
   17loPI   C2A  264   5.885  15.075   8.507 -0.0417 -0.0174 -0.2467
   17loPI   C3A  265   5.763  15.111   8.024 -0.0954  0.0722 -0.2253
   17loPI   C4A  266   5.789  15.165   7.549  0.0549  0.0820 -0.0993
   17loPI   C5A  267   5.449  15.094   7.282  0.3614 -0.0634  0.3013
   17loPI   C6A  268   5.125  15.285   6.984 -0.0920 -0.0594 -0.0117
   17loPI   C1B  269   5.961  15.408   8.841 -0.0844 -0.1496 -0.2647
   17loPI   C2B  270   6.072  15.566   8.410 -0.0819 -0.0404  0.0535
   17loPI   C3B  271   5.861  15.649   8.161  0.0149  0.0018 -0.2104
   17loPI   C4B  272   5.782  15.738   7.763  0.4278  0.0011 -0.1406
   18loPI    C1  273   8.140  18.200   9.836 -0.1167  0.0098 -0.1270
   18loPI    C2  274   8.157  18.475  10.126 -0.0824  0.0186 -0.1374
   18loPI    C3  275   8.049  18.100  10.213  0.0357 -0.0057 -0.0937
   18loPI   PO4  276   8.038  18.193   9.654 -0.0610  0.0940 -0.2731
   18loPI   GL1  277   8.229  18.405   9.304  0.0092  0.0108  0.4330
   18loPI   GL2  278   8.245  18.105   9.128  0.0666  0.2157  0.1160
   18loPI   C1A  279   8.244  18.522   8.868 -0.3093 -0.1166  0.1565
   18loPI   C2A  280   8.512  18.785   8.698  0.3123  0.0065  0.0799
   18loPI   C3A  281   8.644  18.887   8.307 -0.1687 -0.0179 -0.4013
   18loPI   C4A  282   8.787  18.780   7.852  0.1544 -0.1300 -0.0869
   18loPI   C5A  283   8.884  18.594   7.485  0.0635  0.0159  0.1307
   18loPI   C6A  284   8.811  18.244   7.333 -0.0654 -0.0388 -0.2517
   18loPI   C1B  285   8.077  17.982   8.692  0.2481  0.0510 -0.5638
   18loPI   C2B  286   8.065  17.825   8.251 -0.0906 -0.2238 -0.5952
   18loPI   C3B  287   7.899  17.624   7.924 -0.2094 -0.2281 -0.3880
   18loPI   C4B  288   7.606  17.434   7.671 -0.0656  0.0568  0.0055
   19loPI    C1  289   7.430   6.865   9.791 -0.1166  0.0167 -0.0504
   19loPI    C2  290   7.500   6.624  10.102 -0.1475  0.0909  0.0142
   19loPI    C3  291   7.202   6.541   9.849 -0.2231  0.1165  0.0942
   19loPI   PO4  292   7.685   6.935   9.673  0.0471 -0.2101  0.2422
   19loPI   GL1  293   7.698   7.229   9.400  0.1074  0.1079 -0.0020
   19loPI   GL2  294   8.002   7.397   9.277  0.0575  0.0610  0.0771
   19loPI   C1A  295   7.531   7.186   9.084  0.1251  0.1299  0.1705
   19loPI   C2A  296   7.429   7.136   8.671 -0.1999  0.1649 -0.2202
   19loPI   C3A  297   7.321   7.089   8.204 -0.1003  0.1245 -0.2771
   19loPI   C4A  298   7.276   7.072   7.719 -0.0111  0.0304  0.2096
   19loPI   C5A  299   7.469   7.090   7.318 -0.0749  0.2580  0.2445
   19loPI   C6A  300   7.287   7.041   6.906  0.1568  0.2562  0.1024
   19loPI   C1B  301   7.767   7.583   8.982 -0.2480 -0.0301 -0.0353
   19loPI   C2B  302   7.673   7.544   8.529  0.0178  0.2559 -0.0705
   19loPI   C3B  303   7.836   7.421   8.209  0.0127 -0.1138 -0.1936
   19loPI   C4B  304   7.696   7.413   7.757 -0.4073 -0.4543  0.1574
   20loPI    C1  305   5.259   5.338   9.734  0.1317  0.0547  0.1027
   20loPI    C2  306   5.184   5.643   9.487 -0.0242 -0.2016 -0.1724
   20loPI    C3  307   5.014   5.633   9.849  0.1839  0.1626 -0.0592
   20loPI   PO4  308   5.152   5.146   9.581 -0.0062  0.3252  0.0632
   20loPI   GL1  309   5.335   5.231   9.179  0.0558  0.0617 -0.2386
   20loPI   GL2  310   5.411   4.994   9.122 -0.0214 -0.0709  0.0943
   20loPI   C1A  311   5.106   5.580   8.968  0.0890 -0.2838  0.2789
   20loPI   C2A  312   4.965   5.639   8.466 -0.0931  0.1365 -0.1067
   20loPI   C3A  313   5.089   5.474   8.099 -0.1785  0.1352 -0.1252
   20loPI   C4A  314   5.191   5.404   7.678  0.0130  0.3455 -0.1553
   20loPI   C5A  315   5.555   5.308   7.501 -0.3276 -0.0509 -0.1982
   20loPI   C6A  316   5.956   5.243   7.568 -0.0675 -0.1329 -0.1948
   20loPI   C1B  317   5.578   4.800   8.746 -0.2544 -0.1165 -0.3347
   20loPI   C2B  318   5.579   4.587   8.381  0.2519  0.0907  0.2186
   20loPI   C3B  319   5.688   4.700   7.965 -0.1621 -0.2208  0.1597
   20loPI   C4B  320   5.660   4.743   7.543  0.1191 -0.3272 -0.3211
   21loPI    C1  321   3.803  13.927   9.821  0.0855 -0.2168 -0.0421
   21loPI    C2  322   3.975  14.041  10.164  0.3531 -0.0867 -0.2154
   21loPI    C3  323   3.655  13.801  10.170  0.3348 -0.0584  0.1247
   21loPI   PO4  324   3.662  14.242   9.657  0.2740  0.0639  0.0854
   21loPI   GL1  325   3.460  14.212   9.293 -0.1631 -0.1786 -0.1450
   21loPI   GL2  326   3.318  14.474   9.296  0.0647  0.0365 -0.0512
   21loPI   C1A  327   3.541  13.969   8.984 -0.4733  0.1062 -0.0297
   21loPI   C2A  328   3.609  14.010   8.613 -0.4278 -0.0526  0.4743
   21loPI   C3A  329   3.490  14.093   8.269 -0.3041  0.1788  0.1191
   21loPI   C4A  330   3.359  14.014   7.752 -0.0701 -0.3419 -0.1582
   21loPI   C5A  331   3.006  13.860   7.520 -0.0146 -0.0178 -0.0216
   21loPI   C6A  332   2.742  13.908   7.123  0.0037 -0.2708 -0.2180
   21loPI   C1B  333   3.325  14.447   8.907  0.1951 -0.1382  0.0964
   21loPI   C2B  334   3.303  14.496   8.488 -0.0473 -0.1472 -0.0144
   21loPI   C3B  335   3.321  14.494   8.033 -0.0845 -0.1022 -0.0836
   21loPI   C4B  336   3.651  14.372   7.891  0.1387  0.2466 -0.0725
   22loPI    C1  337  16.424   1.213  10.207  0.0496  0.0035 -0.1281
   22loPI    C2  338  16.175   0.997   9.980 -0.0978  0.0955 -0.0551
   22loPI    C3  339  16.075   1.089  10.357 -0.0423  0.3017 -0.0893
   22loPI   PO4  340  16.635   1.062  10.054  0.1145  0.2151  0.0212
   22loPI   GL1  341  16.988   0.936   9.758  0.0485 -0.2034  0.0236
   22loPI   GL2  342  17.247   1.098   9.542 -0.1620  0.2012 -0.0631
   22loPI   C1A  343  16.717   0.878   9.426 -0.0405 -0.1703  0.4857
   22loPI   C2A  344  16.556   0.884   8.930 -0.0670 -0.3763  0.1280
   22loPI   C3A  345  16.629   0.636   8.604  0.1328  0.1773 -0.2311
   22loPI   C4A  346  16.671   0.403   8.190  0.1327 -0.1938  0.0600
   22loPI   C5A  347  16.674   0.195   7.768  0.0582 -0.3383 -0.1128
   22loPI   C6A  348  16.901  -0.168   7.463  0.0703 -0.0154  0.0317
   22loPI   C1B  349  17.014   1.119   9.070 -0.1533  0.0905 -0.3112
   22loPI   C2B  350  16.927   1.144   8.629  0.0562 -0.0813  0.5930
   22loPI   C3B  351  16.946   0.890   8.204  0.1767 -0.3365  0.2126
   22loPI   C4B  352  17.221   0.854   7.762 -0.0128  0.0776  0.3671
   23loPI    C1  353   5.626  17.273   9.909 -0.0495 -0.2014 -0.0762
   23loPI    C2  354   5.626  17.365  10.299  0.0510  0.0568 -0.1351
   23loPI    C3  355   5.473  17.017  10.175 -0.0673  0.0145  0.1250
   23loPI   PO4  356   5.599  17.431   9.689  0.2167 -0.0702 -0.1646
   23loPI   GL1  357   5.668  17.287   9.277 -0.3964  0.0567  0.0691
   23loPI   GL2  358   5.625  16.931   9.133  0.1338 -0.2211 -0.0565
   23loPI   C1A  359   5.446  17.373   8.912 -0.0447 -0.2682 -0.2456
   23loPI   C2A  360   5.229  17.353   8.464 -0.0949  0.0177 -0.0007
   23loPI   C3A  361   5.175  17.391   8.066 -0.0683  0.0408 -0.5055
   23loPI   C4A  362   5.138  17.751   7.810  0.1112 -0.0673 -0.1063
   23loPI   C5A  363   5.189  17.923   7.505 -0.0921  0.0823 -0.2332
   23loPI   C6A  364   5.073  18.230   7.296 -0.2314  0.1168 -0.2428
   23loPI   C1B  365   5.722  17.106   8.664  0.0224 -0.0792 -0.1034
   23loPI   C2B  366   5.688  17.076   8.238 -0.3693 -0.3019 -0.0390
   23loPI   C3B  367   5.788  17.078   7.851  0.4273 -0.2947  0.2214
   23loPI   C4B  368   5.697  16.924   7.538 -0.1269  0.3451  0.1535
   24loPI    C1  369  18.207  11.795  10.681  0.0394  0.3166  0.1284
   24loPI    C2  370  17.853  11.952  10.780 -0.0047  0.1812  0.1880
   24loPI    C3  371  18.191  12.131  10.898 -0.0546  0.2150  0.2805
   24loPI   PO4  372  18.303  11.778  10.417 -0.0457 -0.1278 -0.0375
   24loPI   GL1  373  18.136  11.817   9.957 -0.0346  0.3267 -0.2073
   24loPI   GL2  374  18.207  11.531   9.979 -0.1627 -0.1270  0.0547
   24loPI   C1A  375  18.000  11.990   9.552  0.3397 -0.1757 -0.1043
   24loPI   C2A  376  17.736  12.154   9.328 -0.0478  0.0406 -0.2280
   24loPI   C3A  377  17.569  12.091   8.875 -0.4197  0.1000 -0.1675
   24loPI   C4A  378  17.488  11.968   8.494 -0.1376  0.0559  0.1633
   24loPI   C5A  379  17.482  11.784   8.133  0.0553 -0.0269  0.1473
   24loPI   C6A  380  17.576  11.559   7.832 -0.0285  0.1785  0.1333
   24loPI   C1B  381  18.315  11.202   9.792  0.2306 -0.2844 -0.0018
   24loPI   C2B  382  18.405  11.058   9.490 -0.0944  0.0979 -0.2763
   24loPI   C3B  383  18.306  11.140   9.166  0.2478  0.1182 -0.0847
   24loPI   C4B  384  18.247  11.346   8.748 -0.0824  0.2176  0.2002
   25loPI    C1  385   6.691   8.072   9.821  0.0631 -0.0271 -0.0594
   25loPI    C2  386   7.028   8.280   9.878  0.0793 -0.0829  0.0505
   25loPI    C3  387   6.906   8.017  10.154 -0.0109 -0.1228 -0.0269
   25loPI   PO4  388   6.742   7.896   9.605 -0.1922 -0.1028  0.1613
   25loPI   GL1  389   6.842   7.625   9.341 -0.0131 -0.1485  0.2078
   25loPI   GL2  390   6.764   7.447   9.562  0.3623  0.0192  0.0773
   25loPI   C1A  391   6.870   7.392   8.983 -0.1728  0.0134  0.0433
   25loPI   C2A  392   6.848   7.435   8.478  0.0210 -0.0394 -0.0655
   25loPI   C3A  393   6.844   7.304   8.039 -0.2107 -0.2763  0.2658
   25loPI   C4A  394   6.827   7.281   7.696 -0.0634 -0.2236  0.0868
   25loPI   C5A  395   6.982   7.293   7.319  0.0277  0.0615 -0.0983
   25loPI   C6A  396   7.396   7.525   7.082 -0.0420 -0.1104 -0.1498
   25loPI   C1B  397   6.522   7.209   9.262  0.1797 -0.3719  0.1082
   25loPI   C2B  398   6.528   6.848   9.027  0.0509  0.1107 -0.1751
   25loPI   C3B  399   6.395   6.736   8.628  0.0187  0.2219  0.0465
   25loPI   C4B  400   6.109   6.810   8.346 -0.2120  0.2489 -0.3035
   26loPI    C1  401   2.823   0.903   9.795 -0.0684 -0.1281 -0.1134
   26loPI    C2  402   2.878   1.108  10.134  0.2907 -0.0582 -0.2098
   26loPI    C3  403   2.662   0.772  10.137 -0.1510  0.2180 -0.0152
   26loPI   PO4  404   3.017   0.882   9.701  0.2597  0.2682  0.1939
   26loPI   GL1  405   3.326   0.724   9.279 -0.0047 -0.2152 -0.0643
   26loPI   GL2  406   3.030   0.854   9.152 -0.1399 -0.0794 -0.0981
   26loPI   C1A  407   3.341   0.539   8.773 -0.2233  0.1745 -0.0349
   26loPI   C2A  408   3.038   0.479   8.395  0.1742 -0.0246  0.0485
   26loPI   C3A  409   2.860   0.413   8.042  0.0693  0.0240 -0.0823
   26loPI   C4A  410   2.801   0.293   7.549 -0.0435  0.1148 -0.0353
   26loPI   C5A  411   2.566  -0.066   7.299  0.0977  0.3463  0.0955
   26loPI   C6A  412   2.456  -0.171   6.930 -0.0024 -0.3506  0.1129
   26loPI   C1B  413   2.954   0.821   8.748  0.0674 -0.1713  0.2010
   26loPI   C2B  414   2.707   0.809   8.338  0.0934  0.0307 -0.0616
   26loPI   C3B  415   2.495   0.872   7.954  0.0787  0.1107 -0.2319
   26loPI   C4B  416   2.207   0.732   7.727  0.2866  0.1758 -0.3281
   27loPI    C1  417  15.470   2.181  10.355  0.0590  0.1515  0.0040
   27loPI    C2  418  15.071   2.156  10.376  0.0758 -0.0964  0.0549
   27loPI    C3  419  15.280   2.282  10.693  0.0610 -0.2875  0.1420
   27loPI   PO4  420  15.510   2.268  10.096 -0.2052 -0.2946 -0.3259
   27loPI   GL1  421  15.322   2.385   9.771  0.1330  0.2237  0.1106
   27loPI   GL2  422  15.097   2.023   9.680  0.2925  0.2014  0.0835
   27loPI   C1A  423  15.256   2.409   9.345 -0.1389 -0.3274  0.1705
   27loPI   C2A  424  15.199   2.688   8.956 -0.3435  0.1667  0.0351
   27loPI   C3A  425  15.053   3.009   8.686 -0.0700 -0.1987 -0.1828
   27loPI   C4A  426  14.884   3.200   8.385 -0.2612  0.0856 -0.1334
   27loPI   C5A  427  14.709   2.988   8.088 -0.2767 -0.0096  0.1966
   27loPI   C6A  428  14.589   2.647   7.863  0.2350  0.0746  0.3742
   27loPI   C1B  429  14.957   1.956   9.388  0.0107  0.1967  0.0469
   27loPI   C2B  430  14.812   1.676   9.132 -0.1406 -0.2918  0.1217
   27loPI   C3B  431  14.782   1.663   8.725 -0.1489 -0.1882  0.1263
   27loPI   C4B  432  14.849   1.627   8.326  0.5641  0.2057 -0.0551
   28loPI    C1  433   0.570   0.319   9.905 -0.1270 -0.0584  0.2088
   28loPI    C2  434   0.203   0.343   9.747 -0.0984  0.1005  0.1649
   28loPI    C3  435   0.253   0.202  10.118 -0.1695 -0.2409  0.0480
   28loPI   PO4  436   0.685   0.270   9.697  0.0297  0.4966  0.2170
   28loPI   GL1  437   0.493  -0.075   9.392 -0.0486 -0.1883  0.3411
   28loPI   GL2  438   0.711  -0.047   9.296 -0.0889 -0.2395  0.2634
   28loPI   C1A  439   0.352  -0.338   9.044  0.0552  0.0540 -0.2868
   28loPI   C2A  440   0.227  -0.209   8.660  0.1617 -0.1120 -0.1509
   28loPI   C3A  441   0.281  -0.203   8.190  0.1271 -0.2832  0.1906
   28loPI   C4A  442   0.253  -0.221   7.743 -0.2803 -0.0844 -0.1414
   28loPI   C5A  443   0.302   0.035   7.365 -0.2897 -0.3979 -0.1500
   28loPI   C6A  444  -0.049   0.340   7.412  0.0027  0.1285  0.1042
   28loPI   C1B  445   1.011  -0.084   8.900  0.0410  0.2815 -0.2342
   28loPI   C2B  446   1.065   0.018   8.451  0.1229  0.0212 -0.1636
   28loPI   C3B  447   1.137  -0.150   8.093  0.2112 -0.1105  0.2527
   28loPI   C4B  448   1.203  -0.458   7.722 -0.0337  0.0628 -0.0346
   29loPI    C1  449   5.314   8.282   9.883  0.2305  0.1057  0.1388
   29loPI    C2  450   5.298   7.962  10.123 -0.1183  0.0353  0.0280
   29loPI    C3  451   5.119   8.303  10.232 -0.0589  0.0813 -0.0178
   29loPI   PO4  452   5.266   8.142   9.628  0.0733  0.1665  0.2495
   29loPI   GL1  453   5.296   8.336   9.295  0.1911  0.1278  0.3506
   29loPI   GL2  454   5.172   8.605   9.115  0.0612 -0.3214 -0.1972
   29loPI   C1A  455   5.434   8.274   8.900  0.0712  0.1622 -0.0106
   29loPI   C2A  456   5.440   8.338   8.452  0.0563 -0.0348  0.5706
   29loPI   C3A  457   5.480   8.144   8.111 -0.3114  0.1957  0.1152
   29loPI   C4A  458   5.434   7.923   7.702  0.3958 -0.1994 -0.0417
   29loPI   C5A  459   5.274   7.633   7.365 -0.0502  0.0320  0.3200
   29loPI   C6A  460   5.111   7.369   7.070  0.0059  0.0347 -0.1918
   29loPI   C1B  461   4.993   8.586   8.667  0.0703 -0.2957  0.4417
   29loPI   C2B  462   4.770   8.700   8.328 -0.0128  0.1604 -0.2765
   29loPI   C3B  463   4.705   8.852   7.860 -0.1088  0.2752  0.1317
   29loPI   C4B  464   4.348   8.916   7.652  0.0980 -0.2283  0.1042
   30loPI    C1  465   3.681  12.910   9.578  0.0718 -0.0613  0.0481
   30loPI    C2  466   3.739  12.759   9.944  0.0784 -0.0670  0.0447
   30loPI    C3  467   3.459  12.602   9.705 -0.3196  0.2962  0.2571
   30loPI   PO4  468   3.950  12.870   9.459  0.1651  0.1331 -0.0083
   30loPI   GL1  469   4.081  12.808   9.038 -0.2843  0.0981  0.1444
   30loPI   GL2  470   3.840  12.557   9.114 -0.1177 -0.0661  0.3947
   30loPI   C1A  471   4.272  13.125   8.682  0.0119  0.0392  0.0333
   30loPI   C2A  472   4.600  13.267   8.622 -0.2156 -0.0913  0.4639
   30loPI   C3A  473   4.797  13.409   8.253 -0.2443  0.2275  0.1399
   30loPI   C4A  474   4.710  13.363   7.784 -0.1314  0.2254 -0.1972
   30loPI   C5A  475   4.425  13.291   7.552  0.0029 -0.0087  0.0800
   30loPI   C6A  476   4.301  13.405   7.188 -0.3281  0.0072 -0.1854
   30loPI   C1B  477   3.550  12.469   8.822  0.1566 -0.0286  0.0981
   30loPI   C2B  478   3.607  12.458   8.343  0.3189  0.1593 -0.5858
   30loPI   C3B  479   3.805  12.620   7.960  0.1800 -0.1151 -0.2796
   30loPI   C4B  480   4.128  12.916   7.800  0.1861  0.1619  0.2591
   31loPI    C1  481  17.938   0.625  10.387 -0.3987 -0.0150 -0.0762
   31loPI    C2  482  18.027   0.942  10.614 -0.0705 -0.0527 -0.1464
   31loPI    C3  483  18.019   0.577  10.776  0.0243 -0.0634 -0.1653
   31loPI   PO4  484  17.671   0.716  10.170  0.2151 -0.0814  0.0082
   31loPI   GL1  485  17.415   0.666   9.743  0.3402  0.1396  0.2754
   31loPI   GL2  486  17.606   0.395   9.741  0.0930 -0.2640  0.0703
   31loPI   C1A  487  17.110   0.641   9.310  0.2299  0.1189 -0.2207
   31loPI   C2A  488  16.998   0.622   8.899 -0.2657 -0.2921  0.1644
   31loPI   C3A  489  16.952   0.291   8.594 -0.0071  0.2486 -0.0032
   31loPI   C4A  490  16.700  -0.056   8.299  0.3147 -0.2927  0.0541
   31loPI   C5A  491  16.370  -0.340   8.352  0.1546  0.1012  0.3305
   31loPI   C6A  492  16.271  -0.523   8.827 -0.1954 -0.0289 -0.5851
   31loPI   C1B  493  17.495   0.359   9.308  0.1599 -0.2345 -0.0182
   31loPI   C2B  494  17.504   0.323   8.840 -0.0661  0.0143 -0.1360
   31loPI   C3B  495  17.542   0.141   8.465  0.1295 -0.4619 -0.1880
   31loPI   C4B  496  17.694   0.130   8.058  0.4193  0.1106  0.1242
   32loPI    C1  497   0.344   8.950  10.055  0.1345  0.0334  0.0698
   32loPI    C2  498   0.006   8.765   9.949  0.2945 -0.2377  0.0248
   32loPI    C3  499   0.021   8.973  10.290  0.0177 -0.0362 -0.0816
   32loPI   PO4  500   0.407   9.124   9.796 -0.1487 -0.0729  0.3453
   32loPI   GL1  501   0.493   9.008   9.417 -0.1149  0.0631  0.1612
   32loPI   GL2  502   0.798   8.850   9.409 -0.1880 -0.2409  0.1244
   32loPI   C1A  503   0.321   9.358   9.226  0.0715 -0.1083 -0.0829
   32loPI   C2A  504   0.289   9.502   8.895 -0.0591 -0.0397 -0.1968
   32loPI   C3A  505   0.324   9.623   8.336 -0.0458  0.1723  0.3100
   32loPI   C4A  506   0.211   9.734   7.919  0.1890  0.2637 -0.1905
   32loPI   C5A  507  -0.139   9.527   7.791  0.0029 -0.1616  0.0781
   32loPI   C6A  508  -0.572   9.494   7.960 -0.0549  0.2337 -0.0704
   32loPI   C1B  509   0.676   8.682   9.060  0.0397 -0.1067  0.0694
   32loPI   C2B  510   0.474   8.626   8.633  0.0324  0.2708  0.5191
   32loPI   C3B  511   0.331   8.611   8.116 -0.2304  0.2080  0.0559
   32loPI   C4B  512   0.569   8.880   7.798  0.1365 -0.0632 -0.0556
   33loPI    C1  513   8.751   1.643   9.519 -0.0733 -0.2401  0.0337
   33loPI    C2  514   9.026   1.896   9.662  0.1825 -0.3362 -0.2771
   33loPI    C3  515   8.843   1.640   9.909  0.0391  0.0351  0.0118
   33loPI   PO4  516   8.649   1.829   9.360  0.1447 -0.0821  0.1040
   33loPI   GL1  517   8.699   1.977   8.984 -0.0638  0.0387 -0.0643
   33loPI   GL2  518   8.767   1.574   8.961 -0.3491  0.1700 -0.1684
   33loPI   C1A  519   8.775   2.120   8.593 -0.0463  0.0584  0.2591
   33loPI   C2A  520   8.645   2.293   8.242  0.3472 -0.3439 -0.0296
   33loPI   C3A  521   8.376   2.299   7.900 -0.0970  0.4069 -0.0734
   33loPI   C4A  522   8.385   2.364   7.456 -0.0806 -0.1199 -0.1688
   33loPI   C5A  523   8.458   2.596   7.126 -0.0395  0.0908  0.1305
   33loPI   C6A  524   8.304   3.016   7.048 -0.1680  0.1882 -0.1884
   33loPI   C1B  525   8.616   1.507   8.565 -0.1359 -0.2238 -0.1217
   33loPI   C2B  526   8.636   1.320   8.171 -0.2605 -0.1123  0.0350
   33loPI   C3B  527   8.713   1.017   7.816 -0.0590 -0.3315  0.2833
   33loPI   C4B  528   8.678   0.889   7.352  0.2019 -0.1446 -0.1970
   34loPI    C1  529   6.356   6.111   9.630  0.0731 -0.0644  0.1636
   34loPI    C2  530   5.974   6.220   9.684  0.0141 -0.0924 -0.1770
   34loPI    C3  531   6.253   6.334   9.946 -0.2346 -0.1136  0.1021
   34loPI   PO4  532   6.347   5.885   9.534 -0.1117  0.1014 -0.2124
   34loPI   GL1  533   6.479   5.692   9.299 -0.2771  0.1080  0.0868
   34loPI   GL2  534   6.261   5.529   9.156 -0.0711 -0.2287 -0.1480
   34loPI   C1A  535   6.551   5.848   8.828  0.1889 -0.1597 -0.0868
   34loPI   C2A  536   6.532   5.851   8.404  0.0674 -0.2952  0.0278
   34loPI   C3A  537   6.430   6.032   7.984  0.0097 -0.1189  0.0997
   34loPI   C4A  538   6.635   5.885   7.461  0.0109 -0.0346 -0.2704
   34loPI   C5A  539   6.619   5.593   7.130 -0.1899  0.3602 -0.0151
   34loPI   C6A  540   6.942   5.308   6.938  0.2074  0.0305  0.0800
   34loPI   C1B  541   6.002   5.686   8.869 -0.0174  0.2294  0.0273
   34loPI   C2B  542   5.990   5.742   8.494 -0.3116  0.2253 -0.1716
   34loPI   C3B  543   5.944   5.886   8.031 -0.3933 -0.2749 -0.3352
   34loPI   C4B  544   5.776   5.721   7.653  0.2635 -0.0436 -0.2481
   35loPI    C1  545  15.641   6.943  10.108  0.2333 -0.0897 -0.0256
   35loPI    C2  546  15.986   6.948  10.310  0.0928  0.1502  0.2141
   35loPI    C3  547  15.640   6.897  10.505 -0.0288  0.1752  0.0081
   35loPI   PO4  548  15.675   6.914   9.915 -0.1246 -0.2612 -0.1144
   35loPI   GL1  549  15.754   7.050   9.544  0.0026 -0.0061  0.0318
   35loPI   GL2  550  15.870   6.715   9.381 -0.1123 -0.1332 -0.2635
   35loPI   C1A  551  16.007   7.404   9.418  0.0343 -0.2507  0.0891
   35loPI   C2A  552  16.163   7.381   8.926 -0.2531  0.1919 -0.0339
   35loPI   C3A  553  16.184   7.304   8.587 -0.2247 -0.0573 -0.0207
   35loPI   C4A  554  16.473   7.250   8.220 -0.3052  0.0684 -0.1586
   35loPI   C5A  555  16.516   7.142   7.902 -0.1278 -0.2022 -0.1622
   35loPI   C6A  556  16.398   6.905   7.693  0.0127  0.0446 -0.0376
   35loPI   C1B  557  15.734   7.108   9.068 -0.1799 -0.0292 -0.0858
   35loPI   C2B  558  15.673   7.276   8.630 -0.6538 -0.0999  0.2238
   35loPI   C3B  559  15.827   7.465   8.284  0.1350  0.2830  0.0260
   35loPI   C4B  560  16.117   7.728   7.966 -0.0999 -0.0720 -0.0288
   36loPI    C1  561  11.364   3.977  10.239 -0.1587  0.1210 -0.2738
   36loPI    C2  562  11.337   4.313  10.454  0.3054 -0.0055 -0.0048
   36loPI    C3  563  11.084   4.012  10.523  0.0747  0.1758 -0.0467
   36loPI   PO4  564  11.404   4.075  10.010 -0.2316 -0.0775  0.1234
   36loPI   GL1  565  11.138   4.091   9.583  0.1488 -0.2878  0.0578
   36loPI   GL2  566  10.798   4.123   9.438 -0.0288 -0.0529 -0.0373
   36loPI   C1A  567  11.074   3.701   9.354 -0.1706 -0.5335 -0.0523
   36loPI   C2A  568  11.009   3.712   8.958  0.0028  0.0381 -0.0396
   36loPI   C3A  569  11.055   3.702   8.485  0.2303  0.2562 -0.1036
   36loPI   C4A  570  11.150   3.455   8.118  0.0285  0.2067  0.1185
   36loPI   C5A  571  11.320   3.099   7.724 -0.0440  0.1469 -0.2307
   36loPI   C6A  572  11.175   2.876   7.386 -0.1151  0.1261 -0.0358
   36loPI   C1B  573  10.944   4.222   9.050  0.0772  0.1304 -0.3927
   36loPI   C2B  574  10.746   4.019   8.709 -0.2598 -0.2520  0.0947
   36loPI   C3B  575  10.779   4.179   8.296 -0.2786  0.0861 -0.2907
   36loPI   C4B  576  10.622   4.286   7.871  0.1980  0.2199  0.1394
   37loPI    C1  577   6.439  16.114  10.049  0.0751 -0.0874 -0.1812
   37loPI    C2  578   6.139  16.138   9.785 -0.1608 -0.0787  0.0818
   37loPI    C3  579   6.067  16.196  10.174  0.1779 -0.1154  0.1529
   37loPI   PO4  580   6.693  16.032   9.878  0.0777  0.1781  0.1477
   37loPI   GL1  581   6.742  15.853   9.469  0.0433 -0.1191 -0.0578
   37loPI   GL2  582   6.484  15.876   9.332  0.0039  0.1163  0.0300
   37loPI   C1A  583   6.927  16.175   9.214 -0.0366 -0.0770 -0.0122
   37loPI   C2A  584   7.413  16.215   9.073 -0.2408  0.2752  0.1088
   37loPI   C3A  585   7.430  16.234   8.595  0.0410  0.0730 -0.3676
   37loPI   C4A  586   7.452  16.214   8.227  0.1622  0.4518 -0.1543
   37loPI   C5A  587   7.279  16.158   7.745 -0.1875  0.2229  0.1457
   37loPI   C6A  588   7.236  16.126   7.300 -0.4416 -0.4969 -0.0296
   37loPI   C1B  589   6.529  16.013   8.906  0.1536 -0.0804 -0.0215
   37loPI   C2B  590   6.437  16.041   8.492  0.3260  0.0196  0.1477
   37loPI   C3B  591   6.337  15.897   8.016 -0.0262  0.2744  0.2698
   37loPI   C4B  592   6.128  16.040   7.689  0.0480 -0.2186 -0.1847
   38loPI    C1  593   9.578  16.649  10.101 -0.0249 -0.1982 -0.0261
   38loPI    C2  594   9.694  16.982  10.290 -0.2142 -0.1044 -0.0720
   38loPI    C3  595   9.848  16.628  10.395 -0.2315 -0.0392  0.1781
   38loPI   PO4  596   9.533  16.862   9.834 -0.0827  0.1363  0.3361
   38loPI   GL1  597   9.821  16.973   9.549  0.0214  0.3015 -0.3611
   38loPI   GL2  598   9.946  17.325   9.338  0.0525  0.4440 -0.0991
   38loPI   C1A  599   9.766  16.808   9.133  0.3907 -0.3183  0.0476
   38loPI   C2A  600   9.874  16.508   8.912  0.2013  0.0498  0.2355
   38loPI   C3A  601   9.901  16.444   8.491 -0.2188  0.1817 -0.0181
   38loPI   C4A  602   9.907  16.348   8.079 -0.1443  0.1942 -0.1103
   38loPI   C5A  603  10.121  16.224   7.773  0.0546  0.1496  0.0368
   38loPI   C6A  604  10.239  16.026   7.476 -0.0548  0.1484  0.3301
   38loPI   C1B  605   9.930  17.312   8.951  0.0244 -0.2693 -0.1791
   38loPI   C2B  606   9.914  17.382   8.529  0.0032  0.1196 -0.0716
   38loPI   C3B  607   9.926  17.405   8.087  0.1194 -0.1776 -0.1862
   38loPI   C4B  608   9.691  17.511   7.787 -0.1680  0.0305  0.2309
   39loPI    C1  609  10.650   2.329  10.163 -0.0382 -0.2007  0.1169
   39loPI    C2  610  10.755   2.106  10.479  0.1640 -0.0536  0.1558
   39loPI    C3  611  10.991   2.405  10.358  0.1586 -0.1964 -0.2219
   39loPI   PO4  612  10.609   2.178   9.961  0.1263 -0.2133 -0.2032
   39loPI   GL1  613  10.821   2.206   9.632 -0.1991 -0.1985  0.2486
   39loPI   GL2  614  11.024   2.383   9.764 -0.2069 -0.0007 -0.0055
   39loPI   C1A  615  11.010   2.142   9.197 -0.4550 -0.0668  0.3149
   39loPI   C2A  616  11.182   2.143   8.806  0.0047 -0.0766 -0.0295
   39loPI   C3A  617  11.223   1.962   8.370  0.3198  0.0140  0.0652
   39loPI   C4A  618  11.089   1.672   8.043  0.2189 -0.0500  0.1763
   39loPI   C5A  619  11.118   1.541   7.565  0.1558  0.0050  0.0663
   39loPI   C6A  620  11.397   1.149   7.603  0.1299 -0.1101  0.1870
   39loPI   C1B  621  11.280   2.500   9.423 -0.2295 -0.2277  0.1772
   39loPI   C2B  622  11.456   2.624   9.008 -0.1824  0.0021  0.0562
   39loPI   C3B  623  11.224   2.829   8.648 -0.1551  0.1267  0.0408
   39loPI   C4B  624  11.031   3.070   8.422 -0.1764  0.2906 -0.0142
   40loPI    C1  625  16.287   1.634  10.643  0.0789  0.0750 -0.1925
   40loPI    C2  626  16.090   1.888  10.881  0.1757 -0.0636  0.0395
   40loPI    C3  627  16.113   1.500  10.977  0.4198 -0.0786 -0.0709
   40loPI   PO4  628  16.218   1.606  10.454 -0.3264  0.0173 -0.0349
   40loPI   GL1  629  16.174   1.647   9.990 -0.3054 -0.2223  0.1028
   40loPI   GL2  630  16.144   2.021   9.876 -0.0883  0.0414 -0.0045
   40loPI   C1A  631  16.046   1.565   9.637  0.1638 -0.1253  0.1059
   40loPI   C2A  632  15.882   1.526   9.220 -0.1140  0.0641 -0.3075
   40loPI   C3A  633  15.647   1.252   9.070  0.1392  0.0717 -0.1302
   40loPI   C4A  634  15.598   0.909   8.780 -0.3544 -0.0050 -0.2521
   40loPI   C5A  635  15.641   0.928   8.324  0.2110  0.2419  0.3843
   40loPI   C6A  636  15.475   0.987   7.819 -0.0407  0.2582  0.1006
   40loPI   C1B  637  16.112   2.170   9.465 -0.0073 -0.0612  0.1094
   40loPI   C2B  638  15.929   2.545   9.316  0.1862 -0.0933 -0.0548
   40loPI   C3B  639  15.637   2.457   9.074 -0.0137 -0.1737 -0.0064
   40loPI   C4B  640  15.428   2.278   8.761  0.3224 -0.1540  0.0812
   41loPI    C1  641  13.460   3.993  10.213 -0.1882  0.0369  0.1568
   41loPI    C2  642  13.575   3.789  10.537  0.1639  0.1704  0.1198
   41loPI    C3  643  13.192   3.897  10.494  0.0732 -0.0362  0.3844
   41loPI   PO4  644  13.640   3.928  10.063 -0.0519 -0.1278 -0.2349
   41loPI   GL1  645  13.693   3.656   9.811  0.1979  0.0618  0.2489
   41loPI   GL2  646  13.679   3.406   9.528  0.0404 -0.0281 -0.1156
   41loPI   C1A  647  13.837   3.901   9.465  0.3004 -0.0330  0.1413
   41loPI   C2A  648  13.949   3.969   8.957  0.3853  0.1131  0.1903
   41loPI   C3A  649  14.046   3.849   8.625  0.0763 -0.0305 -0.0380
   41loPI   C4A  650  13.956   3.920   8.193 -0.2128  0.0730  0.0460
   41loPI   C5A  651  13.957   3.713   7.837 -0.0962  0.0486 -0.0003
   41loPI   C6A  652  14.128   3.430   7.516  0.0628  0.0938  0.0937
   41loPI   C1B  653  13.739   3.437   9.198 -0.1416 -0.0796  0.0518
   41loPI   C2B  654  13.629   3.625   8.810 -0.0860  0.2775  0.2470
   41loPI   C3B  655  13.692   3.381   8.461  0.1838 -0.1759 -0.0189
   41loPI   C4B  656  13.981   3.386   8.167 -0.2031 -0.6607 -0.0221
   42loPI    C1  657   5.863  10.100   9.605 -0.2530 -0.2426 -0.0308
   42loPI    C2  658   5.601  10.128   9.906 -0.3035 -0.1657 -0.0815
   42loPI    C3  659   5.972   9.994   9.975 -0.1397  0.3685  0.1211
   42loPI   PO4  660   5.632  10.017   9.356 -0.1979  0.0647  0.1838
   42loPI   GL1  661   5.531  10.204   8.970  0.0246  0.0911 -0.0715
   42loPI   GL2  662   5.305  10.431   8.991  0.0789 -0.1381 -0.0952
   42loPI   C1A  663   5.311  10.055   8.633  0.0712 -0.0186  0.1024
   42loPI   C2A  664   5.359   9.876   8.197  0.3068 -0.1667  0.2378
   42loPI   C3A  665   5.383   9.839   7.673  0.0110  0.0413 -0.0131
   42loPI   C4A  666   5.082   9.957   7.358 -0.0800  0.2028  0.1512
   42loPI   C5A  667   4.817  10.255   7.087  0.0753  0.0231 -0.0495
   42loPI   C6A  668   4.729  10.614   7.212 -0.0610  0.1009 -0.1763
   42loPI   C1B  669   5.392  10.529   8.595  0.2889 -0.1979 -0.0666
   42loPI   C2B  670   5.472  10.581   8.163 -0.2924  0.2860  0.0155
   42loPI   C3B  671   5.616  10.290   7.766  0.0698 -0.0726 -0.2909
   42loPI   C4B  672   5.894  10.231   7.416  0.3027  0.1892 -0.0197
   43loPI    C1  673   2.500  10.717   9.877 -0.0235  0.0707  0.2271
   43loPI    C2  674   2.634  10.559  10.220  0.0763 -0.2226  0.0569
   43loPI    C3  675   2.272  10.729  10.205  0.0649 -0.2222  0.3021
   43loPI   PO4  676   2.592  10.604   9.615  0.0778  0.1477  0.0147
   43loPI   GL1  677   2.825  10.453   9.280 -0.1464  0.1510 -0.0255
   43loPI   GL2  678   2.813  10.191   9.403 -0.2194 -0.0771  0.2690
   43loPI   C1A  679   2.941  10.535   8.900  0.0449  0.0558  0.0385
   43loPI   C2A  680   3.079  10.661   8.456 -0.0081  0.1300 -0.2704
   43loPI   C3A  681   2.966  10.867   8.083  0.1832  0.0669 -0.3301
   43loPI   C4A  682   2.763  11.019   7.679 -0.1369  0.0434  0.1516
   43loPI   C5A  683   3.044  11.242   7.375 -0.2091  0.2307  0.1378
   43loPI   C6A  684   3.270  11.486   7.309  0.0047  0.2756  0.1985
   43loPI   C1B  685   2.730   9.978   9.071  0.3000  0.3750  0.1875
   43loPI   C2B  686   2.763   9.790   8.674 -0.0749 -0.0184  0.1189
   43loPI   C3B  687   2.924   9.805   8.258  0.0752 -0.4497  0.0472
   43loPI   C4B  688   3.032  10.120   7.912  0.1808  0.1089 -0.0643
   44loPI    C1  689  16.174   0.565  10.236 -0.1155  0.0983  0.1945
   44loPI    C2  690  16.120   0.236  10.456 -0.1943  0.0687  0.1315
   44loPI    C3  691  16.465   0.292  10.262 -0.1637  0.0455  0.1792
   44loPI   PO4  692  15.911   0.591  10.137 -0.2861 -0.0517  0.0923
   44loPI   GL1  693  15.729   0.559   9.733 -0.2105  0.0382  0.3438
   44loPI   GL2  694  16.012   0.515   9.662  0.3015  0.1631  0.1168
   44loPI   C1A  695  15.557   0.227   9.426 -0.0779 -0.4372  0.1923
   44loPI   C2A  696  15.605  -0.051   9.114 -0.1771 -0.1368  0.0668
   44loPI   C3A  697  15.762  -0.310   8.879 -0.1326  0.3189 -0.2177
   44loPI   C4A  698  15.924  -0.477   8.539 -0.0888  0.1060  0.1058
   44loPI   C5A  699  16.004  -0.503   8.060  0.1037  0.1149  0.3805
   44loPI   C6A  700  15.980  -0.247   7.742 -0.0947  0.2272 -0.1375
   44loPI   C1B  701  15.826   0.649   9.276  0.2604 -0.0844  0.1626
   44loPI   C2B  702  15.611   0.391   8.963 -0.4706  0.2489  0.1214
   44loPI   C3B  703  15.528   0.464   8.456  0.2124 -0.1126 -0.0011
   44loPI   C4B  704  15.421   0.374   8.008 -0.0018  0.1980 -0.0868
   45loPI    C1  705  10.968  12.047   9.488 -0.0399 -0.3564  0.0013
   45loPI    C2  706  11.308  11.890   9.349  0.1459  0.0367 -0.0020
   45loPI    C3  707  11.258  11.943   9.743  0.0206 -0.1676  0.0111
   45loPI   PO4  708  10.910  12.169   9.301 -0.0317  0.2051 -0.2812
   45loPI   GL1  709  11.066  12.159   8.959  0.0371 -0.3676  0.0574
   45loPI   GL2  710  11.050  12.534   8.963 -0.0277  0.1838 -0.0523
   45loPI   C1A  711  11.077  11.992   8.412 -0.3030 -0.0558 -0.1260
   45loPI   C2A  712  10.943  12.047   7.988  0.0024  0.3065 -0.3798
   45loPI   C3A  713  10.634  12.118   7.759  0.3685 -0.1479  0.0391
   45loPI   C4A  714  10.802  12.003   7.254  0.0766 -0.3135  0.1554
   45loPI   C5A  715  10.962  12.084   6.921 -0.2289  0.2487  0.0443
   45loPI   C6A  716  11.304  12.066   6.676  0.1038  0.1389 -0.0408
   45loPI   C1B  717  11.268  12.566   8.614  0.0342 -0.1528 -0.0769
   45loPI   C2B  718  11.218  12.431   8.176  0.2950 -0.1535  0.2434
   45loPI   C3B  719  11.366  12.687   7.835  0.1173 -0.0286  0.0459
   45loPI   C4B  720  11.334  12.764   7.396 -0.0215 -0.3024 -0.0969
   46loPI    C1  721   4.874  14.542   9.604 -0.2676 -0.2204 -0.0016
   46loPI    C2  722   4.944  14.741   9.944 -0.0627 -0.0632 -0.1332
   46loPI    C3  723   4.624  14.502   9.914 -0.0103 -0.1829  0.2144
   46loPI   PO4  724   5.106  14.432   9.496  0.0525 -0.1221 -0.2799
   46loPI   GL1  725   5.372  14.661   9.156  0.4491  0.1940 -0.2199
   46loPI   GL2  726   5.303  15.000   9.069 -0.2356  0.1625 -0.3212
   46loPI   C1A  727   5.417  14.543   8.721  0.0690 -0.0168  0.4315
   46loPI   C2A  728   5.726  14.592   8.351  0.3990  0.0155  0.0192
   46loPI   C3A  729   5.598  14.612   7.899  0.0027 -0.1051  0.0453
   46loPI   C4A  730   5.648  14.641   7.491  0.1926  0.0892  0.1461
   46loPI   C5A  731   5.696  14.609   7.091 -0.1184  0.2686  0.2589
   46loPI   C6A  732   5.472  14.321   6.803  0.1170  0.0241  0.1210
   46loPI   C1B  733   5.293  15.001   8.691  0.1729 -0.2384 -0.0081
   46loPI   C2B  734   5.306  14.901   8.233  0.0572 -0.0244 -0.0665
   46loPI   C3B  735   5.244  15.095   7.774  0.1111  0.0257 -0.5148
   46loPI   C4B  736   5.003  15.318   7.529  0.3553  0.3007 -0.0858
   47loPI    C1  737  16.746  10.909  10.088  0.0406 -0.0939  0.0964
   47loPI    C2  738  16.591  11.274  10.131 -0.0785 -0.1230 -0.0758
   47loPI    C3  739  16.934  11.181  10.313 -0.1239  0.0264  0.0900
   47loPI   PO4  740  16.551  10.768  10.148 -0.0240 -0.2301 -0.3123
   47loPI   GL1  741  16.406  10.361   9.992 -0.1402  0.0715  0.1685
   47loPI   GL2  742  16.097  10.314   9.800 -0.0745  0.0915  0.3695
   47loPI   C1A  743  16.500  10.187   9.514  0.0050 -0.1205 -0.1938
   47loPI   C2A  744  16.790  10.209   9.198  0.0504 -0.3653 -0.2457
   47loPI   C3A  745  16.912   9.995   8.830 -0.0769 -0.0102 -0.1368
   47loPI   C4A  746  16.948   9.986   8.372  0.1304 -0.0399  0.1383
   47loPI   C5A  747  16.985   9.995   7.831 -0.3063 -0.0518  0.1496
   47loPI   C6A  748  17.257   9.779   7.555  0.2381 -0.0317  0.4215
   47loPI   C1B  749  16.002  10.220   9.380 -0.1654  0.0292 -0.1926
   47loPI   C2B  750  15.868  10.041   9.037  0.0096 -0.2555 -0.0574
   47loPI   C3B  751  15.887   9.720   8.763  0.0036  0.1116  0.1652
   47loPI   C4B  752  16.102   9.486   8.566  0.4934  0.0434  0.2334
   48loPI    C1  753   1.024  11.428   9.912  0.3102 -0.0360 -0.5524
   48loPI    C2  754   1.111  11.788  10.062 -0.0570 -0.1501 -0.0406
   48loPI    C3  755   1.401  11.516  10.015  0.1759  0.1162 -0.1779
   48loPI   PO4  756   0.892  11.375   9.762  0.0425  0.1061  0.0188
   48loPI   GL1  757   0.659  11.064   9.541 -0.0202  0.2950  0.0405
   48loPI   GL2  758   0.463  11.374   9.507 -0.2244  0.1808 -0.2346
   48loPI   C1A  759   0.531  10.875   9.242 -0.2804  0.1817  0.0042
   48loPI   C2A  760   0.242  10.980   8.955 -0.0650 -0.1053 -0.0516
   48loPI   C3A  761   0.237  11.083   8.604  0.1251 -0.0358 -0.1012
   48loPI   C4A  762   0.252  11.174   8.232 -0.4597  0.0560 -0.0840
   48loPI   C5A  763   0.106  11.347   7.895 -0.0491  0.0879 -0.2797
   48loPI   C6A  764  -0.068  11.789   7.703 -0.0590 -0.0025  0.1266
   48loPI   C1B  765   0.642  11.345   9.046 -0.2241  0.0564 -0.0219
   48loPI   C2B  766   0.585  11.483   8.614 -0.1638 -0.0062 -0.1145
   48loPI   C3B  767   0.599  11.476   8.189 -0.1950  0.1984  0.1049
   48loPI   C4B  768   0.599  11.402   7.816  0.2412 -0.0562  0.4099
   49loPI    C1  769   6.450   3.720   9.628  0.0211 -0.0700 -0.3995
   49loPI    C2  770   6.753   3.842   9.858 -0.0540 -0.3042 -0.1709
   49loPI    C3  771   6.594   4.091   9.588  0.3866 -0.2028 -0.3457
   49loPI   PO4  772   6.499   3.444   9.592 -0.1517 -0.1712  0.2160
   49loPI   GL1  773   6.513   3.233   9.179  0.0454 -0.0621 -0.0149
   49loPI   GL2  774   6.513   3.062   9.024  0.0498 -0.0156 -0.2649
   49loPI   C1A  775   6.537   3.575   8.826 -0.3848  0.0654 -0.1436
   49loPI   C2A  776   6.640   3.623   8.318 -0.2529 -0.2057  0.2715
   49loPI   C3A  777   6.890   3.510   7.898  0.0320 -0.4409 -0.0251
   49loPI   C4A  778   6.882   3.383   7.413  0.0243  0.0153 -0.0110
   49loPI   C5A  779   6.933   3.026   7.127  0.2087  0.1332 -0.1447
   49loPI   C6A  780   6.731   2.801   6.808  0.1689 -0.1562 -0.0055
   49loPI   C1B  781   6.540   3.135   8.655 -0.0198 -0.0955  0.2458
   49loPI   C2B  782   6.575   2.997   8.224 -0.0845 -0.0222  0.0190
   49loPI   C3B  783   6.647   3.085   7.764 -0.2931  0.2360 -0.0450
   49loPI   C4B  784   6.738   2.725   7.550 -0.0840  0.1267 -0.0729
   50loPI    C1  785   6.572   2.660   9.394  0.2901  0.0602  0.1583
   50loPI    C2  786   6.462   2.710   9.776 -0.0981  0.2092  0.0317
   50loPI    C3  787   6.698   2.980   9.599  0.1461  0.1001  0.1857
   50loPI   PO4  788   6.349   2.666   9.291 -0.1716  0.0845  0.0230
   50loPI   GL1  789   5.923   2.858   9.150  0.0363  0.0121  0.3909
   50loPI   GL2  790   5.749   3.036   9.053  0.0928 -0.0203  0.3774
   50loPI   C1A  791   6.126   2.874   8.664 -0.3267 -0.2303  0.0415
   50loPI   C2A  792   6.112   2.953   8.249 -0.2149  0.1934 -0.2696
   50loPI   C3A  793   6.176   2.845   7.781 -0.1823  0.0710 -0.1242
   50loPI   C4A  794   5.953   2.707   7.411  0.2648  0.2278  0.1188
   50loPI   C5A  795   5.941   2.400   7.197  0.0436  0.0833  0.4854
   50loPI   C6A  796   6.247   2.189   7.003  0.1602 -0.1671  0.4332
   50loPI   C1B  797   5.689   3.067   8.587  0.0129 -0.1590 -0.0433
   50loPI   C2B  798   5.679   3.066   8.138  0.2085 -0.0561  0.2555
   50loPI   C3B  799   5.833   3.202   7.788  0.2245  0.2366 -0.0955
   50loPI   C4B  800   5.635   3.116   7.403  0.0291 -0.0124 -0.3255
   51loPI    C1  801   3.900   5.498   9.808 -0.1396 -0.3521 -0.0383
   51loPI    C2  802   3.731   5.227  10.049 -0.2329 -0.0398  0.2536
   51loPI    C3  803   3.709   5.617  10.138  0.0088  0.0583 -0.0945
   51loPI   PO4  804   3.838   5.407   9.549  0.1946  0.1479 -0.1917
   51loPI   GL1  805   4.163   5.220   9.281  0.1010 -0.0707  0.1715
   51loPI   GL2  806   3.828   5.056   9.155 -0.2009 -0.0044  0.3102
   51loPI   C1A  807   4.069   5.291   8.808 -0.1093 -0.3574 -0.5226
   51loPI   C2A  808   4.091   5.261   8.342  0.3642 -0.0208 -0.2073
   51loPI   C3A  809   4.229   5.136   7.906 -0.0731 -0.0217 -0.0525
   51loPI   C4A  810   4.341   4.820   7.801 -0.0545 -0.1325 -0.1949
   51loPI   C5A  811   4.401   4.805   7.382  0.0193  0.0398 -0.2601
   51loPI   C6A  812   4.637   4.843   7.029 -0.1522 -0.2909  0.0013
   51loPI   C1B  813   3.669   5.034   8.777  0.0469  0.2042  0.1594
   51loPI   C2B  814   3.580   5.025   8.386 -0.0606  0.1373  0.2502
   51loPI   C3B  815   3.744   5.151   7.941  0.1130  0.2551  0.0259
   51loPI   C4B  816   3.441   5.175   7.533  0.0374  0.2792  0.1260
   52loPI    C1  817   0.745   9.520  10.138 -0.0410 -0.1122 -0.2173
   52loPI    C2  818   0.691   9.168  10.319  0.2024 -0.1418 -0.1986
   52loPI    C3  819   1.025   9.377  10.386 -0.0880  0.2548  0.0561
   52loPI   PO4  820   0.714   9.568   9.940  0.2214 -0.1528  0.1267
   52loPI   GL1  821   0.764   9.535   9.554  0.0987 -0.0650 -0.1010
   52loPI   GL2  822   1.013   9.351   9.425  0.1859 -0.1941  0.3524
   52loPI   C1A  823   0.635   9.770   9.217 -0.2183 -0.0466 -0.2778
   52loPI   C2A  824   0.467   9.932   8.758 -0.2121  0.0339  0.0644
   52loPI   C3A  825   0.221  10.117   8.500 -0.3412  0.0582  0.4034
   52loPI   C4A  826   0.112  10.237   8.065  0.2348 -0.0337  0.1225
   52loPI   C5A  827  -0.309  10.437   7.965 -0.1042 -0.3791  0.1273
   52loPI   C6A  828  -0.770  10.434   7.898  0.3141  0.3617 -0.0764
   52loPI   C1B  829   0.749   9.256   9.047  0.0892 -0.2404  0.1511
   52loPI   C2B  830   0.504   9.085   8.848 -0.0990  0.2811 -0.0860
   52loPI   C3B  831   0.187   9.099   8.513  0.3749 -0.0170 -0.0018
   52loPI   C4B  832   0.175   9.117   8.078  0.0010  0.0287  0.1045
   53loPI    C1  833   1.334   5.774   9.712 -0.2755  0.0227 -0.0783
   53loPI    C2  834   1.012   5.820   9.944 -0.1976  0.2151 -0.0061
   53loPI    C3  835   1.327   5.612  10.078 -0.2924  0.0211 -0.0793
   53loPI   PO4  836   1.326   6.022   9.542  0.1480  0.3505 -0.0006
   53loPI   GL1  837   1.295   6.212   9.160  0.0385  0.1837  0.1563
   53loPI   GL2  838   1.612   5.956   9.168 -0.1664  0.0870 -0.1369
   53loPI   C1A  839   1.352   6.330   8.783 -0.0282  0.3168  0.3331
   53loPI   C2A  840   1.451   6.425   8.543 -0.3149 -0.6305 -0.0697
   53loPI   C3A  841   1.715   6.358   8.111 -0.2014  0.0652  0.0067
   53loPI   C4A  842   1.952   6.341   7.775  0.1552  0.4791 -0.1293
   53loPI   C5A  843   2.324   6.109   7.665  0.1092  0.0993 -0.0389
   53loPI   C6A  844   2.655   6.286   7.754 -0.2420  0.1027 -0.0424
   53loPI   C1B  845   1.740   6.015   8.746  0.2609  0.0191 -0.1831
   53loPI   C2B  846   1.592   5.949   8.373  0.2117 -0.1185 -0.0474
   53loPI   C3B  847   1.514   5.791   7.949  0.2830 -0.0186  0.1091
   53loPI   C4B  848   1.450   5.738   7.549  0.0704 -0.2124 -0.0106
   54loPI    C1  849  13.879   6.586   9.947 -0.0307 -0.1042 -0.0051
   54loPI    C2  850  14.120   6.484  10.249 -0.0236 -0.2985 -0.0748
   54loPI    C3  851  13.724   6.458  10.293 -0.0311 -0.0730  0.0063
   54loPI   PO4  852  13.930   6.870   9.973 -0.0600 -0.2206  0.1662
   54loPI   GL1  853  14.021   6.979   9.671  0.4272  0.1154  0.1656
   54loPI   GL2  854  14.150   6.851   9.492 -0.0704  0.0135  0.1263
   54loPI   C1A  855  14.181   7.350   9.419  0.2938  0.0509  0.1438
   54loPI   C2A  856  14.333   7.487   9.047 -0.2718 -0.0771 -0.1630
   54loPI   C3A  857  14.194   7.575   8.671  0.1941  0.3518 -0.3335
   54loPI   C4A  858  14.368   7.453   8.321 -0.0579 -0.1984 -0.3366
   54loPI   C5A  859  14.633   7.501   7.967 -0.1255  0.0008  0.0730
   54loPI   C6A  860  15.014   7.555   7.789 -0.0117  0.1524 -0.0011
   54loPI   C1B  861  14.381   6.958   9.130  0.0227  0.2802 -0.3274
   54loPI   C2B  862  14.454   6.956   8.739 -0.3569  0.0910 -0.1435
   54loPI   C3B  863  14.724   7.052   8.440  0.3637 -0.1238  0.2206
   54loPI   C4B  864  14.944   7.360   8.347 -0.3260  0.2085  0.1378
   55loPI    C1  865  13.412   8.712  10.197  0.0848 -0.0616 -0.2456
   55loPI    C2  866  13.428   8.833  10.579 -0.0273 -0.1887 -0.1999
   55loPI    C3  867  13.450   8.443  10.491  0.1559 -0.1492 -0.3346
   55loPI   PO4  868  13.562   8.888   9.989 -0.1639 -0.0455  0.0408
   55loPI   GL1  869  13.767   8.881   9.550  0.0435 -0.1353  0.2506
   55loPI   GL2  870  13.654   9.109   9.349  0.0366  0.0863 -0.1950
   55loPI   C1A  871  13.904   8.925   8.986 -0.1215  0.4817 -0.0379
   55loPI   C2A  872  13.758   9.036   8.591  0.2081 -0.1751 -0.0011
   55loPI   C3A  873  13.740   9.346   8.224 -0.1202 -0.0364  0.2247
   55loPI   C4A  874  13.537   9.725   8.233 -0.1444  0.0367 -0.1573
   55loPI   C5A  875  13.403  10.113   8.202 -0.1343  0.3173  0.2290
   55loPI   C6A  876  13.441  10.331   7.759  0.2454  0.1624  0.1574
   55loPI   C1B  877  13.483   9.255   8.948 -0.0621  0.0039  0.3228
   55loPI   C2B  878  13.365   9.286   8.482 -0.2862 -0.0170  0.1652
   55loPI   C3B  879  13.162   9.307   8.069 -0.1608 -0.0399 -0.1532
   55loPI   C4B  880  12.778   9.509   8.061  0.0627  0.4809 -0.0913
   56loPI    C1  881  16.956  15.946  10.534 -0.0950  0.3692  0.0283
   56loPI    C2  882  16.565  15.871  10.499 -0.0595  0.0286  0.2994
   56loPI    C3  883  16.760  15.763  10.831  0.2540  0.2533  0.1931
   56loPI   PO4  884  17.012  15.885  10.274  0.0793  0.3795 -0.0018
   56loPI   GL1  885  17.183  15.674   9.945  0.1509 -0.0008 -0.3061
   56loPI   GL2  886  17.194  15.281   9.905 -0.0379  0.1248 -0.1878
   56loPI   C1A  887  17.165  15.944   9.601  0.1622  0.1949  0.1366
   56loPI   C2A  888  17.061  15.943   9.199  0.1405  0.0550  0.1107
   56loPI   C3A  889  16.966  15.992   8.733  0.2320 -0.1948 -0.1788
   56loPI   C4A  890  17.069  16.003   8.285 -0.0316 -0.0894 -0.3465
   56loPI   C5A  891  16.933  16.064   7.898  0.1926 -0.0310  0.1700
   56loPI   C6A  892  16.839  16.191   7.561 -0.0118  0.0388  0.2477
   56loPI   C1B  893  17.087  15.425   9.416  0.0500  0.0740  0.2197
   56loPI   C2B  894  16.967  15.416   9.015  0.2306  0.1731 -0.4578
   56loPI   C3B  895  16.822  15.515   8.531  0.1199  0.1098 -0.0996
   56loPI   C4B  896  16.863  15.524   8.128 -0.1149 -0.3097 -0.1231
   57loPI    C1  897  14.840   3.847  10.197 -0.1245 -0.1036  0.2395
   57loPI    C2  898  14.599   4.143  10.080  0.2397  0.1767  0.1798
   57loPI    C3  899  14.575   4.002  10.453 -0.1399  0.0705  0.1197
   57loPI   PO4  900  14.788   3.711   9.870 -0.1969  0.1319  0.0275
   57loPI   GL1  901  14.977   3.689   9.494 -0.0101  0.1808  0.0760
   57loPI   GL2  902  14.636   3.458   9.415  0.0350 -0.1786  0.1474
   57loPI   C1A  903  15.138   3.712   9.082  0.1652  0.0313  0.0749
   57loPI   C2A  904  15.038   3.689   8.765  0.2355 -0.1028 -0.0877
   57loPI   C3A  905  14.877   3.686   8.347  0.1787 -0.1561 -0.1735
   57loPI   C4A  906  14.969   3.464   7.980  0.1404  0.0415  0.0245
   57loPI   C5A  907  14.652   3.331   7.703  0.0567 -0.1236 -0.1345
   57loPI   C6A  908  14.362   3.026   7.535  0.1499 -0.1479  0.0278
   57loPI   C1B  909  14.665   3.428   8.969  0.0130 -0.1754 -0.2457
   57loPI   C2B  910  14.491   3.509   8.584 -0.1075 -0.0282 -0.2843
   57loPI   C3B  911  14.461   3.397   8.158  0.3021  0.0473  0.1889
   57loPI   C4B  912  14.267   2.994   8.028 -0.1693  0.1876  0.0495
   58loPI    C1  913  13.892   5.419   9.958  0.0733 -0.1926  0.0081
   58loPI    C2  914  13.973   5.612  10.298 -0.2624  0.0336 -0.0361
   58loPI    C3  915  13.606   5.468  10.233 -0.1242 -0.2593 -0.1827
   58loPI   PO4  916  14.069   5.226   9.856  0.2280  0.0034  0.1140
   58loPI   GL1  917  14.246   4.818   9.697 -0.0686  0.3861 -0.0516
   58loPI   GL2  918  13.880   4.767   9.680 -0.2580 -0.1283 -0.0262
   58loPI   C1A  919  14.394   4.827   9.262  0.2508 -0.0883  0.0929
   58loPI   C2A  920  14.537   4.873   8.796 -0.1648  0.3722 -0.1212
   58loPI   C3A  921  14.574   4.969   8.346 -0.1175 -0.4498 -0.0009
   58loPI   C4A  922  14.755   5.064   8.054  0.2403 -0.1521  0.0995
   58loPI   C5A  923  14.790   5.481   7.855 -0.0237  0.0102  0.0811
   58loPI   C6A  924  14.999   5.593   7.555  0.0161 -0.0189  0.2209
   58loPI   C1B  925  13.891   4.751   9.213 -0.1942  0.0057  0.0730
   58loPI   C2B  926  13.439   4.992   9.057 -0.0820  0.0648 -0.2117
   58loPI   C3B  927  13.314   5.199   8.581 -0.2016 -0.2906  0.2511
   58loPI   C4B  928  13.040   4.932   8.291 -0.1054 -0.2565 -0.0176
   59loPI    C1  929   0.350   4.713   9.999 -0.1201 -0.2268 -0.2481
   59loPI    C2  930   0.341   4.314  10.015 -0.2317 -0.2151  0.0429
   59loPI    C3  931   0.440   4.525  10.340 -0.0835 -0.0070 -0.1344
   59loPI   PO4  932   0.056   4.692   9.821 -0.1575 -0.1311  0.0282
   59loPI   GL1  933  -0.156   4.795   9.591 -0.1535  0.0191 -0.0417
   59loPI   GL2  934   0.015   5.005   9.333 -0.2172 -0.1924 -0.1842
   59loPI   C1A  935  -0.447   4.817   9.305  0.1506 -0.3097  0.3316
   59loPI   C2A  936  -0.439   4.800   8.833 -0.0855  0.1340  0.1390
   59loPI   C3A  937  -0.182   4.854   8.344 -0.1148  0.1866 -0.1540
   59loPI   C4A  938  -0.079   4.959   7.987  0.0876  0.0309 -0.2055
   59loPI   C5A  939   0.193   5.234   8.077 -0.0314 -0.0079 -0.0909
   59loPI   C6A  940   0.390   5.620   7.894 -0.1429 -0.0366  0.0918
   59loPI   C1B  941   0.005   4.858   8.915 -0.1305  0.1757 -0.2980
   59loPI   C2B  942  -0.039   4.473   8.678 -0.1900 -0.0724  0.1067
   59loPI   C3B  943   0.139   4.465   8.263  0.0008 -0.1673 -0.0976
   59loPI   C4B  944   0.006   4.304   7.852  0.1244 -0.0438 -0.1616
   60loPI    C1  945   5.635  11.517   9.584 -0.0139 -0.2092  0.1087
   60loPI    C2  946   5.315  11.540   9.823 -0.0606 -0.0580  0.0329
   60loPI    C3  947   5.521  11.198   9.797 -0.2264 -0.1620  0.0681
   60loPI   PO4  948   5.497  11.673   9.284  0.1561 -0.0489 -0.7157
   60loPI   GL1  949   5.495  11.776   8.853  0.0267  0.1277  0.2467
   60loPI   GL2  950   5.868  11.795   8.851  0.0345 -0.1200  0.4571
   60loPI   C1A  951   5.571  11.701   8.433 -0.0458  0.3860  0.3943
   60loPI   C2A  952   5.715  11.302   8.243 -0.0677  0.2158  0.0796
   60loPI   C3A  953   5.558  11.014   7.929 -0.0904  0.0702  0.0864
   60loPI   C4A  954   5.610  10.741   7.434 -0.4255  0.1726  0.1434
   60loPI   C5A  955   5.595  10.522   7.105 -0.0317 -0.1333 -0.0983
   60loPI   C6A  956   5.547  10.022   7.131  0.1532  0.3111  0.0183
   60loPI   C1B  957   6.062  11.348   8.602  0.2396  0.4668  0.0274
   60loPI   C2B  958   5.876  10.928   8.556 -0.0331 -0.2894 -0.1700
   60loPI   C3B  959   5.940  10.738   8.223 -0.1541 -0.0902 -0.1319
   60loPI   C4B  960   5.958  10.716   7.765 -0.2386  0.0065 -0.0112
   61loPI    C1  961  15.181  18.924  10.103 -0.0786  0.0738 -0.0149
   61loPI    C2  962  15.064  18.697  10.411  0.3580 -0.0365  0.0764
   61loPI    C3  963  14.888  19.050  10.344 -0.1038 -0.2496  0.1285
   61loPI   PO4  964  15.140  18.858   9.851  0.2361  0.2773 -0.1960
   61loPI   GL1  965  15.327  18.817   9.448  0.2429  0.0388  0.1771
   61loPI   GL2  966  15.515  18.593   9.681  0.2863 -0.0867  0.2843
   61loPI   C1A  967  15.367  18.429   9.207 -0.0294 -0.0224  0.2183
   61loPI   C2A  968  15.283  18.162   8.896 -0.1476  0.2984 -0.1935
   61loPI   C3A  969  14.987  17.945   8.511  0.0740 -0.5754 -0.0558
   61loPI   C4A  970  15.020  17.627   8.176 -0.1717 -0.1878  0.1240
   61loPI   C5A  971  14.956  17.315   7.899 -0.1491 -0.0789 -0.1277
   61loPI   C6A  972  14.669  17.279   7.466  0.0134  0.1134 -0.5332
   61loPI   C1B  973  15.858  18.863   9.580 -0.1808  0.0937  0.1477
   61loPI   C2B  974  16.116  18.743   9.221 -0.1521  0.0022  0.0012
   61loPI   C3B  975  16.511  18.823   9.172 -0.0651  0.0837  0.2366
   61loPI   C4B  976  16.753  18.659   8.733 -0.0618 -0.3737 -0.0082
   62loPI    C1  977  16.499  14.261  10.580 -0.0952 -0.0433  0.3746
   62loPI    C2  978  16.331  14.597  10.441  0.0356 -0.0154  0.2820
   62loPI    C3  979  16.301  14.503  10.829 -0.2501 -0.0450  0.2541
   62loPI   PO4  980  16.510  14.089  10.291  0.1002 -0.1183 -0.1125
   62loPI   GL1  981  16.593  14.143   9.885  0.3344  0.0081  0.0874
   62loPI   GL2  982  16.308  14.164   9.725 -0.2505 -0.2605 -0.2936
   62loPI   C1A  983  16.853  14.430   9.564 -0.1705  0.0808 -0.2321
   62loPI   C2A  984  16.962  14.629   9.275  0.0181 -0.2058 -0.4259
   62loPI   C3A  985  16.871  14.539   8.839 -0.1526 -0.0524 -0.2843
   62loPI   C4A  986  16.852  14.523   8.417 -0.0513 -0.2484  0.2554
   62loPI   C5A  987  16.539  14.449   8.082 -0.0866  0.1126  0.1190
   62loPI   C6A  988  16.202  14.374   7.970 -0.2379 -0.0505  0.0204
   62loPI   C1B  989  16.510  14.083   9.315 -0.2930  0.0053 -0.3298
   62loPI   C2B  990  16.328  13.990   8.881 -0.2288 -0.0201 -0.0757
   62loPI   C3B  991  16.209  13.603   8.491  0.0154  0.1725  0.2192
   62loPI   C4B  992  16.193  13.377   8.149  0.0052  0.2122 -0.0143
   63loPI    C1  993  12.468   8.795  10.532 -0.0552  0.0907  0.0943
   63loPI    C2  994  12.384   9.116  10.756 -0.1025 -0.0399  0.2663
   63loPI    C3  995  12.093   8.861  10.655 -0.1035  0.0788 -0.0447
   63loPI   PO4  996  12.539   8.908  10.316 -0.0181 -0.0065  0.0039
   63loPI   GL1  997  12.449   8.962   9.882 -0.2072  0.0230  0.0860
   63loPI   GL2  998  12.416   8.679   9.687  0.3709  0.0063  0.0600
   63loPI   C1A  999  12.583   9.317   9.611  0.2504 -0.0970  0.2078
   63loPI   C2A 1000  12.600   9.331   9.183 -0.1616  0.3851 -0.2184
   63loPI   C3A 1001  12.544   9.373   8.769 -0.1414 -0.1523  0.3026
   63loPI   C4A 1002  12.365   9.319   8.267 -0.1886  0.0055 -0.0155
   63loPI   C5A 1003  12.386   9.449   7.774  0.1448  0.1648 -0.2559
   63loPI   C6A 1004  12.131   9.783   7.569  0.2272  0.1465  0.0000
   63loPI   C1B 1005  12.562   8.844   9.220 -0.0525 -0.0951 -0.1295
   63loPI   C2B 1006  12.602   8.823   8.829 -0.3075  0.1396  0.2856
   63loPI   C3B 1007  12.572   8.757   8.397  0.3973  0.1878 -0.0488
   63loPI   C4B 1008  12.444   8.878   8.004 -0.0459  0.2275  0.0131
   64loPI    C1 1009   3.622   6.838   9.691  0.0910 -0.0521 -0.0353
   64loPI    C2 1010   3.975   6.771   9.867 -0.0216 -0.1798  0.1455
   64loPI    C3 1011   3.640   6.770  10.085 -0.1192  0.0982  0.0014
   64loPI   PO4 1012   3.781   6.742   9.399 -0.2585  0.0049 -0.1284
   64loPI   GL1 1013   4.102   6.720   9.174  0.1976  0.0786 -0.1672
   64loPI   GL2 1014   4.462   6.430   9.147  0.1386  0.2427 -0.2889
   64loPI   C1A 1015   3.988   7.014   8.769 -0.0439 -0.1971  0.2774
   64loPI   C2A 1016   4.044   7.250   8.337 -0.2081 -0.1396  0.2690
   64loPI   C3A 1017   4.174   7.145   7.919 -0.1074  0.1161 -0.1954
   64loPI   C4A 1018   4.450   6.967   7.623  0.1063  0.2567 -0.2520
   64loPI   C5A 1019   4.697   6.910   7.247  0.1362  0.1095 -0.1525
   64loPI   C6A 1020   4.751   6.609   7.044  0.1503  0.0341  0.0573
   64loPI   C1B 1021   4.200   6.347   8.824  0.1306 -0.0417  0.0156
   64loPI   C2B 1022   4.197   6.135   8.373 -0.0508 -0.0490 -0.0164
   64loPI   C3B 1023   4.186   6.075   8.059 -0.1088 -0.1435 -0.0709
   64loPI   C4B 1024   4.283   6.004   7.533 -0.0981  0.1563 -0.0838
   65loPI    C1 1025  15.198   1.554  10.591  0.1941 -0.1650 -0.2909
   65loPI    C2 1026  15.200   1.808  10.900 -0.0815 -0.4389 -0.0571
   65loPI    C3 1027  15.248   1.416  10.963  0.0960 -0.4741 -0.3889
   65loPI   PO4 1028  15.328   1.738  10.334 -0.2978  0.1222  0.0809
   65loPI   GL1 1029  15.577   1.684   9.969 -0.0177 -0.2566  0.0569
   65loPI   GL2 1030  15.595   1.907   9.719 -0.3333 -0.0539 -0.0872
   65loPI   C1A 1031  15.444   1.447   9.640  0.1447  0.1413  0.1784
   65loPI   C2A 1032  15.324   1.652   9.274 -0.1648  0.1316 -0.0164
   65loPI   C3A 1033  15.354   1.763   8.898  0.4776  0.1073 -0.1014
   65loPI   C4A 1034  15.557   1.851   8.605  0.4159 -0.0723 -0.2584
   65loPI   C5A 1035  15.570   1.770   8.140  0.0509 -0.2313 -0.0556
   65loPI   C6A 1036  15.425   1.511   7.786 -0.0162  0.0810 -0.2891
   65loPI   C1B 1037  15.662   2.010   9.356  0.2738  0.1018 -0.4524
   65loPI   C2B 1038  15.905   2.052   8.975  0.0965  0.0046 -0.0884
   65loPI   C3B 1039  15.882   2.445   8.679 -0.0827  0.0764 -0.1800
   65loPI   C4B 1040  16.069   2.918   8.534  0.0076  0.1677 -0.0007
   66loPI    C1 1041  15.931  18.351  10.223 -0.0539  0.1729 -0.0759
   66loPI    C2 1042  15.911  18.698  10.026  0.4526  0.2495 -0.0045
   66loPI    C3 1043  16.033  18.691  10.407  0.4385 -0.0064 -0.0036
   66loPI   PO4 1044  16.054  18.165  10.083 -0.0022  0.1636 -0.0622
   66loPI   GL1 1045  16.170  18.107   9.764 -0.0233 -0.0242 -0.0061
   66loPI   GL2 1046  15.991  18.367   9.624  0.2211 -0.3492  0.3196
   66loPI   C1A 1047  16.236  17.997   9.335 -0.1457  0.1858  0.3403
   66loPI   C2A 1048  16.210  17.762   8.939  0.0443  0.0832 -0.1047
   66loPI   C3A 1049  16.301  17.706   8.542  0.2394 -0.6215 -0.0518
   66loPI   C4A 1050  16.446  17.721   8.149 -0.0329 -0.1451  0.0853
   66loPI   C5A 1051  16.813  17.671   7.848  0.2706  0.1852  0.0717
   66loPI   C6A 1052  17.131  17.886   7.777 -0.0012 -0.1657 -0.0520
   66loPI   C1B 1053  15.858  18.371   9.250 -0.0307 -0.0461  0.2288
   66loPI   C2B 1054  15.932  18.165   8.821 -0.3245  0.0632 -0.1596
   66loPI   C3B 1055  15.944  18.043   8.388  0.1878  0.0817 -0.1040
   66loPI   C4B 1056  15.986  18.038   7.934  0.0851 -0.0138  0.0817
   67loPI    C1 1057  16.903   8.117  10.121  0.0596 -0.1646  0.2273
   67loPI    C2 1058  17.066   7.850   9.871 -0.0827 -0.2549  0.2300
   67loPI    C3 1059  16.958   7.739  10.240  0.3195 -0.0727  0.4080
   67loPI   PO4 1060  16.822   8.305   9.819  0.0969  0.1525  0.0608
   67loPI   GL1 1061  16.952   8.389   9.501  0.1079 -0.0814  0.2282
   67loPI   GL2 1062  17.133   8.137   9.481  0.3395  0.4442 -0.1646
   67loPI   C1A 1063  16.837   8.548   9.051  0.0678  0.0391 -0.0195
   67loPI   C2A 1064  16.833   8.628   8.671 -0.1240 -0.0386  0.3198
   67loPI   C3A 1065  16.920   8.958   8.330 -0.0081 -0.0165 -0.0194
   67loPI   C4A 1066  16.753   8.765   7.875  0.1128  0.0197 -0.1413
   67loPI   C5A 1067  16.759   8.511   7.425 -0.1291  0.0455 -0.0303
   67loPI   C6A 1068  16.883   8.465   6.984 -0.1844  0.1274  0.3830
   67loPI   C1B 1069  17.255   8.165   9.120  0.2660  0.0183  0.1412
   67loPI   C2B 1070  17.301   8.040   8.704 -0.0688  0.1270  0.0777
   67loPI   C3B 1071  17.190   7.962   8.340 -0.0403  0.1855 -0.0226
   67loPI   C4B 1072  16.979   7.623   8.192 -0.1115 -0.0023 -0.0570
   68loPI    C1 1073  17.925   1.496  10.101  0.0778 -0.0230  0.0943
   68loPI    C2 1074  17.750   1.256  10.370 -0.0836  0.1184  0.1176
   68loPI    C3 1075  17.684   1.650  10.381  0.3515  0.1938  0.2148
   68loPI   PO4 1076  17.902   1.449   9.922  0.0794 -0.0407 -0.0561
   68loPI   GL1 1077  17.701   1.409   9.559  0.1468  0.0569  0.1708
   68loPI   GL2 1078  17.709   1.010   9.593  0.2160 -0.1333 -0.0119
   68loPI   C1A 1079  17.393   1.426   9.201  0.3491  0.0597 -0.0023
   68loPI   C2A 1080  17.435   1.372   8.764 -0.0036 -0.0696 -0.1207
   68loPI   C3A 1081  17.495   1.509   8.420 -0.2251  0.0582 -0.1599
   68loPI   C4A 1082  17.661   1.523   8.049  0.1847 -0.0815  0.0145
   68loPI   C5A 1083  18.060   1.463   7.776  0.0056 -0.1528 -0.2792
   68loPI   C6A 1084  17.980   1.328   7.364  0.6070  0.0283 -0.3555
   68loPI   C1B 1085  17.459   0.861   9.096  0.2061  0.1319 -0.2376
   68loPI   C2B 1086  17.412   0.863   8.678  0.2533 -0.0716 -0.0948
   68loPI   C3B 1087  17.306   0.606   8.458  0.1235  0.2830  0.2268
   68loPI   C4B 1088  17.191   0.390   8.047  0.1008 -0.0949  0.0203
   69loPI    C1 1089   2.056   8.299   9.679 -0.0368  0.1489  0.3584
   69loPI    C2 1090   1.873   7.948   9.736  0.0673 -0.0263 -0.3031
   69loPI    C3 1091   2.270   7.976   9.780  0.0370  0.0584 -0.0686
   69loPI   PO4 1092   1.998   8.338   9.367  0.3437  0.2832 -0.0115
   69loPI   GL1 1093   1.599   8.334   9.239  0.1284 -0.1965 -0.2282
   69loPI   GL2 1094   1.553   7.975   9.270  0.3313  0.1468  0.2313
   69loPI   C1A 1095   1.741   8.222   8.852  0.0445  0.1206  0.2252
   69loPI   C2A 1096   1.625   8.216   8.326  0.0606  0.2020  0.0598
   69loPI   C3A 1097   1.448   7.966   8.039 -0.0862  0.1459  0.1971
   69loPI   C4A 1098   1.290   7.665   7.737 -0.2244 -0.0088  0.0004
   69loPI   C5A 1099   1.028   7.617   7.417 -0.3254 -0.1756 -0.0041
   69loPI   C6A 1100   1.096   7.545   6.878 -0.0622  0.0165  0.2793
   69loPI   C1B 1101   1.196   7.867   8.919  0.0263  0.0382 -0.0257
   69loPI   C2B 1102   1.157   7.975   8.461 -0.0668 -0.0557  0.0554
   69loPI   C3B 1103   1.038   8.298   8.182  0.0970 -0.1410  0.1677
   69loPI   C4B 1104   0.812   8.465   7.880 -0.1376 -0.0934 -0.0182
   70loPI    C1 1105  10.560   7.359   9.955  0.0659 -0.3358  0.1188
   70loPI    C2 1106  10.947   7.425   9.874  0.0464 -0.2895  0.0619
   70loPI    C3 1107  10.813   7.454  10.250  0.0250  0.0692  0.0297
   70loPI   PO4 1108  10.474   7.335   9.705 -0.3851 -0.0324  0.1671
   70loPI   GL1 1109  10.305   7.463   9.312  0.1099  0.0687 -0.1531
   70loPI   GL2 1110   9.824   7.574   9.247  0.0754  0.0964  0.0749
   70loPI   C1A 1111  10.390   7.494   8.850 -0.2042  0.0007 -0.2047
   70loPI   C2A 1112  10.610   7.534   8.384  0.1164 -0.3033  0.0597
   70loPI   C3A 1113  10.891   7.680   8.029 -0.0351 -0.0007  0.1292
   70loPI   C4A 1114  11.244   7.594   7.876  0.0591 -0.2591 -0.2887
   70loPI   C5A 1115  11.602   7.730   7.701  0.0963 -0.0866  0.2347
   70loPI   C6A 1116  12.038   7.624   7.687  0.0294  0.1265  0.0423
   70loPI   C1B 1117   9.954   7.742   8.977  0.1104  0.1776  0.2611
   70loPI   C2B 1118   9.792   7.418   8.601 -0.0241  0.0939  0.3534
   70loPI   C3B 1119   9.386   7.196   8.505 -0.0101 -0.0479 -0.3265
   70loPI   C4B 1120   9.115   7.027   8.855 -0.0305 -0.0845  0.0211
   71loPI    C1 1121   4.620   1.725   9.836 -0.2773  0.0772  0.2490
   71loPI    C2 1122   4.712   1.336   9.846 -0.1068  0.1053 -0.1006
   71loPI    C3 1123   4.333   1.451   9.791 -0.1529 -0.0110 -0.0267
   71loPI   PO4 1124   4.959   1.794   9.772  0.0601  0.0211  0.1829
   71loPI   GL1 1125   5.199   1.905   9.361  0.0068  0.3380  0.1390
   71loPI   GL2 1126   4.904   1.924   9.306  0.0600  0.4563  0.3224
   71loPI   C1A 1127   5.410   2.002   8.947  0.3732  0.1299  0.1471
   71loPI   C2A 1128   5.499   2.128   8.544  0.1251 -0.0253  0.1092
   71loPI   C3A 1129   5.664   2.077   8.063  0.0525  0.5067  0.1237
   71loPI   C4A 1130   5.572   1.941   7.612  0.0118 -0.2160  0.1676
   71loPI   C5A 1131   5.633   1.686   7.323  0.0697 -0.0997 -0.1717
   71loPI   C6A 1132   5.458   1.716   6.951 -0.0282  0.2785  0.1167
   71loPI   C1B 1133   4.900   2.102   8.845 -0.2051 -0.0879  0.1528
   71loPI   C2B 1134   5.002   2.261   8.516 -0.2370 -0.0057  0.0896
   71loPI   C3B 1135   5.168   2.068   8.129 -0.1183  0.0410  0.1251
   71loPI   C4B 1136   5.167   1.743   7.849  0.0788 -0.3054 -0.1751
   72loPI    C1 1137   1.734   4.951  10.062  0.1920  0.0997 -0.2842
   72loPI    C2 1138   2.036   5.206   9.999  0.2339  0.0706 -0.2020
   72loPI    C3 1139   1.999   5.022  10.353  0.1311  0.0591 -0.2184
   72loPI   PO4 1140   1.758   4.783   9.794  0.0494 -0.1816 -0.1068
   72loPI   GL1 1141   1.780   4.713   9.352  0.3767  0.0735  0.2441
   72loPI   GL2 1142   1.868   5.006   9.365 -0.0832  0.3099 -0.1358
   72loPI   C1A 1143   1.750   4.528   8.945 -0.0590 -0.2568  0.0212
   72loPI   C2A 1144   1.528   4.422   8.567 -0.0984 -0.3393  0.0877
   72loPI   C3A 1145   1.585   4.348   8.097  0.0926  0.0599 -0.2642
   72loPI   C4A 1146   1.600   4.173   7.732 -0.2118 -0.0278  0.1399
   72loPI   C5A 1147   1.671   3.815   7.602  0.0570  0.1532 -0.1132
   72loPI   C6A 1148   2.028   3.568   7.542  0.2431  0.1076 -0.2016
   72loPI   C1B 1149   1.627   5.005   8.883 -0.4413  0.0059 -0.0932
   72loPI   C2B 1150   1.410   4.915   8.602 -0.2041  0.2002  0.0567
   72loPI   C3B 1151   1.525   4.803   8.213 -0.0362 -0.0438 -0.2163
   72loPI   C4B 1152   1.657   4.718   7.757  0.1955 -0.0707 -0.2122
   73loPI    C1 1153   1.115  10.761  10.144 -0.0762  0.2116  0.0633
   73loPI    C2 1154   0.803  10.512  10.181 -0.2095  0.4001  0.2278
   73loPI    C3 1155   1.010  10.624  10.505 -0.0849  0.4214  0.1417
   73loPI   PO4 1156   0.957  10.874   9.860  0.0435  0.0984  0.2184
   73loPI   GL1 1157   0.649  10.579   9.650  0.1589 -0.2219  0.0455
   73loPI   GL2 1158   0.732  10.297   9.443 -0.0822 -0.0478 -0.1617
   73loPI   C1A 1159   0.242  10.477   9.475  0.1013  0.1090 -0.0849
   73loPI   C2A 1160   0.086  10.482   9.111  0.3128 -0.0618  0.2405
   73loPI   C3A 1161   0.011  10.584   8.748  0.1749 -0.3616  0.0388
   73loPI   C4A 1162  -0.027  10.759   8.293 -0.3958 -0.0094  0.0290
   73loPI   C5A 1163   0.124  10.745   7.868 -0.1886 -0.2516  0.0370
   73loPI   C6A 1164   0.353  10.701   7.518  0.0678  0.2437  0.1815
   73loPI   C1B 1165   0.571  10.358   9.096 -0.0468 -0.1405 -0.0647
   73loPI   C2B 1166   0.551  10.602   8.715  0.2747 -0.0395 -0.1476
   73loPI   C3B 1167   0.440  10.523   8.286  0.0537 -0.0966  0.0171
   73loPI   C4B 1168   0.518  10.363   7.858  0.1250  0.0051  0.0504
   74loPI    C1 1169   8.931  15.150   9.829  0.1134 -0.0007  0.3209
   74loPI    C2 1170   8.891  14.786   9.989  0.0108 -0.1258  0.0183
   74loPI    C3 1171   8.594  14.943   9.772  0.0829  0.1094  0.0863
   74loPI   PO4 1172   9.173  15.219   9.687  0.0025  0.0228  0.3699
   74loPI   GL1 1173   9.346  15.271   9.359 -0.0909  0.2722  0.1884
   74loPI   GL2 1174   9.091  14.953   9.248 -0.2124  0.0550 -0.0486
   74loPI   C1A 1175   9.586  15.111   9.054 -0.1797  0.0534 -0.0924
   74loPI   C2A 1176   9.577  15.216   8.642  0.2787  0.1317  0.0272
   74loPI   C3A 1177   9.467  15.416   8.191 -0.2194  0.4721  0.6149
   74loPI   C4A 1178   9.594  15.502   7.846 -0.0462  0.0251 -0.1260
   74loPI   C5A 1179   9.832  15.644   7.534 -0.1097 -0.2385  0.2137
   74loPI   C6A 1180   9.898  15.850   7.150 -0.2335 -0.0043 -0.1446
   74loPI   C1B 1181   9.134  15.066   8.903 -0.1216  0.1822  0.1287
   74loPI   C2B 1182   9.129  15.130   8.419  0.2922 -0.1329 -0.3431
   74loPI   C3B 1183   8.860  14.912   8.132  0.1779 -0.2769  0.5562
   74loPI   C4B 1184   9.057  14.593   8.026  0.2788  0.1831  0.1618
   75loPI    C1 1185   3.625  10.961   9.335 -0.0176  0.1134  0.0696
   75loPI    C2 1186   3.574  10.852   9.716  0.1158  0.0017  0.0562
   75loPI    C3 1187   3.712  10.588   9.450  0.1830  0.1273 -0.0343
   75loPI   PO4 1188   3.665  11.243   9.377 -0.3878 -0.0516 -0.1003
   75loPI   GL1 1189   3.759  11.601   9.182 -0.1226 -0.0416 -0.2105
   75loPI   GL2 1190   3.953  11.968   9.222 -0.0014  0.0521 -0.2961
   75loPI   C1A 1191   3.621  11.778   8.823 -0.1454 -0.1733  0.0431
   75loPI   C2A 1192   3.810  12.021   8.369  0.0640 -0.1734 -0.4326
   75loPI   C3A 1193   3.826  12.103   7.989  0.1970 -0.1932 -0.0570
   75loPI   C4A 1194   3.922  12.244   7.521  0.2332 -0.2437 -0.0571
   75loPI   C5A 1195   3.886  12.417   7.201 -0.0253  0.2547 -0.1096
   75loPI   C6A 1196   3.730  12.360   6.802  0.1442  0.2911  0.2510
   75loPI   C1B 1197   3.459  12.042   9.168  0.3228 -0.0799  0.0291
   75loPI   C2B 1198   3.220  12.083   8.776 -0.3992 -0.1802  0.2302
   75loPI   C3B 1199   3.073  12.469   8.488  0.3127 -0.1759  0.2287
   75loPI   C4B 1200   2.786  12.568   8.025 -0.2595  0.0637 -0.0140
   76loPI    C1 1201   4.192  15.148   9.754  0.2134  0.0303 -0.0446
   76loPI    C2 1202   4.255  14.882  10.047 -0.1151  0.0244  0.0245
   76loPI    C3 1203   4.277  15.274  10.124  0.2213  0.0216 -0.0435
   76loPI   PO4 1204   3.999  14.999   9.619  0.2397  0.1328  0.1787
   76loPI   GL1 1205   3.936  14.745   9.416  0.0019 -0.1799 -0.0794
   76loPI   GL2 1206   4.076  14.921   9.134 -0.2808 -0.1338 -0.1782
   76loPI   C1A 1207   3.907  14.486   8.998 -0.0551  0.2156 -0.1209
   76loPI   C2A 1208   3.776  14.506   8.694  0.0027  0.1056  0.3493
   76loPI   C3A 1209   3.693  14.720   8.242 -0.2267  0.1782 -0.1248
   76loPI   C4A 1210   3.688  14.857   7.797 -0.1915  0.0891  0.1367
   76loPI   C5A 1211   3.728  14.799   7.253  0.0759  0.1104 -0.1745
   76loPI   C6A 1212   3.978  15.179   7.142 -0.2699 -0.1113  0.3829
   76loPI   C1B 1213   3.975  15.213   8.996 -0.2048  0.0506 -0.2180
   76loPI   C2B 1214   4.038  15.290   8.625 -0.1145 -0.0136 -0.2236
   76loPI   C3B 1215   4.097  15.512   8.162  0.0306  0.3234 -0.0624
   76loPI   C4B 1216   4.057  15.600   7.753  0.3958 -0.5576  0.0480
   77loPI    C1 1217   1.216  10.316   9.965 -0.1481  0.0526 -0.0280
   77loPI    C2 1218   1.574  10.495   9.971 -0.0668 -0.1010 -0.2064
   77loPI    C3 1219   1.438  10.310  10.298 -0.0558  0.0976 -0.0883
   77loPI   PO4 1220   1.135  10.438   9.726 -0.0558  0.3132  0.0458
   77loPI   GL1 1221   1.058  10.816   9.344 -0.0453  0.0172  0.0533
   77loPI   GL2 1222   1.186  11.234   9.352  0.0898  0.2690  0.1166
   77loPI   C1A 1223   0.997  10.735   8.886  0.0244  0.0374  0.2240
   77loPI   C2A 1224   0.942  10.511   8.512 -0.1732  0.1724 -0.0053
   77loPI   C3A 1225   0.929  10.523   8.126 -0.0715 -0.2682  0.2111
   77loPI   C4A 1226   0.973  10.541   7.714  0.1454  0.1339 -0.0391
   77loPI   C5A 1227   0.852  10.446   7.435 -0.2228  0.1170 -0.2004
   77loPI   C6A 1228   0.426  10.339   7.207 -0.1598  0.1468 -0.0209
   77loPI   C1B 1229   1.218  11.303   8.962  0.1565  0.0716  0.0205
   77loPI   C2B 1230   1.031  11.242   8.557  0.1065 -0.2224  0.2557
   77loPI   C3B 1231   0.721  11.003   8.316  0.1963 -0.2795 -0.1281
   77loPI   C4B 1232   0.570  10.858   7.980 -0.0815  0.0749 -0.0649
   78loPI    C1 1233   1.263   0.644   9.909 -0.0700  0.0375  0.2445
   78loPI    C2 1234   1.579   0.796  10.101  0.1690 -0.1325 -0.0047
   78loPI    C3 1235   1.591   0.422   9.962 -0.0942 -0.0963 -0.1325
   78loPI   PO4 1236   1.228   0.755   9.697 -0.0237 -0.1734 -0.0784
   78loPI   GL1 1237   1.191   0.452   9.416 -0.1066  0.2158  0.0951
   78loPI   GL2 1238   0.854   0.429   9.293  0.1452 -0.2169  0.0448
   78loPI   C1A 1239   1.274   0.429   8.983 -0.0203  0.0770 -0.0277
   78loPI   C2A 1240   0.977   0.614   8.746  0.0285  0.0479  0.0036
   78loPI   C3A 1241   1.020   0.578   8.241 -0.1853 -0.1705 -0.0891
   78loPI   C4A 1242   0.974   0.820   7.943  0.1199  0.0625  0.1353
   78loPI   C5A 1243   1.196   0.885   7.646 -0.0464  0.0926 -0.0205
   78loPI   C6A 1244   1.468   0.687   7.280 -0.1273 -0.1852 -0.0924
   78loPI   C1B 1245   0.600   0.168   8.878 -0.1563  0.1107  0.1632
   78loPI   C2B 1246   0.569   0.139   8.413 -0.1395 -0.0593 -0.2238
   78loPI   C3B 1247   0.689   0.126   8.043 -0.0690 -0.3498  0.1394
   78loPI   C4B 1248   1.032   0.259   7.854  0.2275  0.0909 -0.1692
   79loPI    C1 1249   6.433   1.848   9.489 -0.0770  0.2269 -0.2014
   79loPI    C2 1250   6.325   2.230   9.532  0.0537  0.2465 -0.0360
   79loPI    C3 1251   6.706   2.123   9.586  0.0083  0.0846 -0.0305
   79loPI   PO4 1252   6.240   1.792   9.314  0.4848 -0.0757 -0.1209
   79loPI   GL1 1253   5.751   1.644   9.011 -0.2055  0.2160 -0.0737
   79loPI   GL2 1254   5.532   1.580   9.184  0.1388  0.2676  0.1144
   79loPI   C1A 1255   5.602   1.535   8.656  0.2111  0.3206 -0.4464
   79loPI   C2A 1256   5.552   1.631   8.281 -0.1983 -0.1128  0.2227
   79loPI   C3A 1257   5.559   1.435   7.871 -0.1030  0.0187 -0.3541
   79loPI   C4A 1258   5.541   1.196   7.522 -0.2133  0.2938 -0.0133
   79loPI   C5A 1259   5.541   0.873   7.157 -0.1595  0.1805 -0.0951
   79loPI   C6A 1260   5.284   0.703   6.790 -0.1055  0.0463  0.0288
   79loPI   C1B 1261   5.041   1.595   8.950 -0.3452  0.2101 -0.2068
   79loPI   C2B 1262   5.008   1.679   8.503 -0.0253  0.1246  0.0209
   79loPI   C3B 1263   5.081   1.360   8.282  0.0894 -0.1756  0.1574
   79loPI   C4B 1264   4.941   1.002   8.318  0.2073 -0.0657  0.0108
   80loPI    C1 1265   8.049   0.378   9.677 -0.0896  0.1594  0.0857
   80loPI    C2 1266   7.889   0.657   9.438 -0.0531 -0.0214 -0.1539
   80loPI    C3 1267   7.674   0.502   9.737 -0.1031  0.1989 -0.0736
   80loPI   PO4 1268   8.203   0.239   9.508  0.0922  0.0384  0.0637
   80loPI   GL1 1269   8.382   0.495   9.292  0.0437  0.4225 -0.1084
   80loPI   GL2 1270   8.659   0.279   9.321 -0.0180 -0.2017  0.0253
   80loPI   C1A 1271   8.565   0.579   8.857 -0.2429  0.1019  0.1810
   80loPI   C2A 1272   8.766   0.398   8.409  0.0887 -0.2415 -0.2928
   80loPI   C3A 1273   8.663   0.288   8.007  0.2148  0.0461 -0.2840
   80loPI   C4A 1274   8.711   0.327   7.552  0.3233  0.0882  0.1815
   80loPI   C5A 1275   9.102   0.398   7.277  0.0137 -0.2858  0.0899
   80loPI   C6A 1276   9.078   0.751   7.070  0.0427 -0.1800  0.0794
   80loPI   C1B 1277   8.799   0.138   8.904  0.3498 -0.3054  0.0022
   80loPI   C2B 1278   9.113   0.066   8.647 -0.1389 -0.0031 -0.0345
   80loPI   C3B 1279   9.111   0.111   8.142 -0.0317  0.2631 -0.0478
   80loPI   C4B 1280   9.112   0.010   7.635  0.1686 -0.2978 -0.2019
   81loPI    C1 1281  12.464  16.893  10.230  0.1408 -0.0376 -0.2911
   81loPI    C2 1282  12.286  16.918   9.873 -0.1242 -0.2553 -0.1779
   81loPI    C3 1283  12.077  16.800  10.193  0.1375 -0.1650  0.0302
   81loPI   PO4 1284  12.786  16.717   9.971  0.0603  0.0620 -0.2882
   81loPI   GL1 1285  12.800  16.873   9.571 -0.0833  0.0483 -0.0981
   81loPI   GL2 1286  12.594  17.118   9.469 -0.2862 -0.0372 -0.1282
   81loPI   C1A 1287  12.767  16.595   9.205 -0.0625  0.0882 -0.2954
   81loPI   C2A 1288  12.696  16.249   8.858 -0.0234  0.1431 -0.1336
   81loPI   C3A 1289  12.603  16.245   8.401 -0.0688 -0.4047 -0.1085
   81loPI   C4A 1290  12.491  16.128   8.012 -0.0737 -0.1027 -0.2604
   81loPI   C5A 1291  12.012  16.096   7.834  0.1726 -0.4173 -0.1410
   81loPI   C6A 1292  11.728  16.380   7.671 -0.0268 -0.0257 -0.3513
   81loPI   C1B 1293  12.218  17.397   9.333  0.0306  0.0259  0.0021
   81loPI   C2B 1294  12.214  17.794   9.167 -0.0205 -0.4554  0.1177
   81loPI   C3B 1295  12.004  17.983   8.818 -0.0647  0.1154 -0.0265
   81loPI   C4B 1296  11.793  17.725   8.547  0.4170 -0.1854  0.0764
   82loPI    C1 1297  16.134  15.576  10.392  0.0269  0.2345 -0.1442
   82loPI    C2 1298  15.968  15.932  10.318 -0.0409  0.2467  0.0589
   82loPI    C3 1299  15.930  15.765  10.679  0.1111  0.0980  0.0076
   82loPI   PO4 1300  16.088  15.272  10.212  0.1300  0.2269  0.1762
   82loPI   GL1 1301  16.388  15.135   9.975 -0.2212  0.0459 -0.3145
   82loPI   GL2 1302  16.149  15.133   9.704  0.1405 -0.0671  0.1549
   82loPI   C1A 1303  16.731  15.449   9.773  0.0030  0.2360 -0.0276
   82loPI   C2A 1304  16.708  15.775   9.489 -0.1017  0.0605 -0.0906
   82loPI   C3A 1305  16.527  16.129   9.204  0.1944  0.0081  0.0944
   82loPI   C4A 1306  16.500  16.293   8.823  0.0194 -0.0476 -0.0112
   82loPI   C5A 1307  16.597  16.462   8.309 -0.0284  0.2056 -0.0562
   82loPI   C6A 1308  16.734  16.862   8.224 -0.3274 -0.1146 -0.1375
   82loPI   C1B 1309  16.108  14.933   9.246 -0.2326 -0.1221  0.1081
   82loPI   C2B 1310  15.983  14.882   8.797  0.2670 -0.2033  0.2477
   82loPI   C3B 1311  15.866  14.834   8.454 -0.0157  0.5418  0.0773
   82loPI   C4B 1312  15.698  14.550   8.119  0.3438  0.0956  0.3137
   83loPI    C1 1313  14.596   8.388   9.662 -0.0513  0.1792 -0.1117
   83loPI    C2 1314  14.606   8.308   9.270 -0.2544 -0.1182 -0.0593
   83loPI    C3 1315  14.947   8.350   9.475 -0.1459 -0.2247 -0.2161
   83loPI   PO4 1316  14.383   8.440   9.690  0.0577 -0.2466 -0.1841
   83loPI   GL1 1317  14.100   8.574   9.340  0.1092  0.0628 -0.0536
   83loPI   GL2 1318  13.853   8.352   9.353  0.0331  0.1071  0.6114
   83loPI   C1A 1319  14.273   8.607   8.939  0.1745 -0.0992 -0.1259
   83loPI   C2A 1320  14.120   8.640   8.585  0.1034 -0.0391  0.0760
   83loPI   C3A 1321  13.983   8.856   8.206 -0.3109  0.1160 -0.2232
   83loPI   C4A 1322  13.604   8.913   7.942 -0.4298 -0.1263 -0.1849
   83loPI   C5A 1323  13.670   8.878   7.568  0.2274  0.1323  0.1515
   83loPI   C6A 1324  14.068   8.683   7.361 -0.1393  0.4316  0.1496
   83loPI   C1B 1325  13.812   8.396   8.944  0.1666 -0.0069  0.1255
   83loPI   C2B 1326  13.724   8.222   8.619 -0.3611 -0.0564 -0.0109
   83loPI   C3B 1327  13.816   8.299   8.276 -0.1404  0.0921 -0.0862
   83loPI   C4B 1328  14.075   8.485   7.872 -0.2180  0.0463 -0.0497
   84loPI    C1 1329  12.611  10.084  10.366 -0.0241  0.1925 -0.1408
   84loPI    C2 1330  12.960  10.211  10.513  0.1268 -0.2043 -0.1452
   84loPI    C3 1331  12.726   9.972  10.732 -0.0714 -0.0658 -0.2029
   84loPI   PO4 1332  12.665   9.997  10.171  0.1257 -0.1594  0.2147
   84loPI   GL1 1333  12.712   9.952   9.693  0.1366  0.2546  0.1189
   84loPI   GL2 1334  12.793  10.241   9.608  0.0792 -0.1276 -0.1284
   84loPI   C1A 1335  12.581   9.801   9.298  0.3519  0.2602  0.0527
   84loPI   C2A 1336  12.518   9.972   8.880 -0.0697  0.0297 -0.0451
   84loPI   C3A 1337  12.511  10.262   8.426 -0.0577  0.3132  0.4992
   84loPI   C4A 1338  12.546  10.565   8.097  0.1341 -0.1356  0.0531
   84loPI   C5A 1339  12.307  10.595   7.776 -0.1331 -0.1498 -0.0427
   84loPI   C6A 1340  11.752  10.574   7.729  0.0072 -0.1361  0.0900
   84loPI   C1B 1341  12.821  10.221   9.177 -0.0663  0.0587 -0.0079
   84loPI   C2B 1342  12.725  10.513   8.810  0.1144  0.0813 -0.1887
   84loPI   C3B 1343  12.626  10.772   8.517 -0.2287 -0.0493 -0.2252
   84loPI   C4B 1344  12.426  11.133   8.196 -0.0082  0.1431 -0.3270
   85loPI    C1 1345  14.293   8.984  10.174  0.1053 -0.0344 -0.1276
   85loPI    C2 1346  14.422   8.605  10.171  0.0668 -0.0492  0.0197
   85loPI    C3 1347  14.659   8.896  10.311  0.0288 -0.0440  0.0735
   85loPI   PO4 1348  14.253   8.963   9.776  0.3053  0.2074 -0.0074
   85loPI   GL1 1349  14.163   9.156   9.361  0.0556  0.0791 -0.2148
   85loPI   GL2 1350  14.036   9.510   9.422  0.1127 -0.0432  0.0793
   85loPI   C1A 1351  14.365   9.157   9.044 -0.1354  0.3564  0.0093
   85loPI   C2A 1352  14.248   9.108   8.610  0.1988 -0.0484  0.3954
   85loPI   C3A 1353  14.223   9.223   8.078 -0.0943 -0.1103  0.0775
   85loPI   C4A 1354  13.962   9.287   7.676  0.3021  0.0371 -0.3097
   85loPI   C5A 1355  13.530   9.485   7.646 -0.0016 -0.2040 -0.4722
   85loPI   C6A 1356  13.108   9.805   7.808  0.0471  0.1300 -0.0655
   85loPI   C1B 1357  13.981   9.497   8.955 -0.1910 -0.0299 -0.1335
   85loPI   C2B 1358  13.958   9.617   8.543 -0.2247 -0.3468  0.0827
   85loPI   C3B 1359  13.939   9.812   8.027  0.0263  0.3346 -0.2005
   85loPI   C4B 1360  13.945  10.083   7.639 -0.0184  0.0485 -0.0435
   86loPI    C1 1361  10.772   6.894   9.939 -0.1776 -0.0047 -0.5809
   86loPI    C2 1362  10.427   6.705   9.869 -0.1370 -0.2954 -0.0472
   86loPI    C3 1363  10.751   6.497   9.979 -0.0495  0.0606  0.3996
   86loPI   PO4 1364  10.861   6.994   9.682 -0.1204 -0.1523  0.1852
   86loPI   GL1 1365  11.152   7.117   9.364  0.0067  0.0878 -0.1068
   86loPI   GL2 1366  11.284   7.363   9.498 -0.1847 -0.2885  0.0199
   86loPI   C1A 1367  11.247   7.068   9.065 -0.0287  0.0528 -0.0151
   86loPI   C2A 1368  11.360   7.135   8.687 -0.0077 -0.0843 -0.2702
   86loPI   C3A 1369  11.484   7.224   8.202 -0.1376 -0.0542  0.0013
   86loPI   C4A 1370  11.519   7.030   7.952 -0.0401  0.1929  0.0953
   86loPI   C5A 1371  11.269   6.929   7.708  0.0292  0.3778  0.2603
   86loPI   C6A 1372  10.797   6.838   7.553  0.4073 -0.1499 -0.0599
   86loPI   C1B 1373  11.455   7.544   9.108  0.1709 -0.2912 -0.0018
   86loPI   C2B 1374  11.447   7.765   8.749 -0.0810  0.0088  0.2853
   86loPI   C3B 1375  11.248   7.588   8.408 -0.0000  0.3539 -0.1345
   86loPI   C4B 1376  11.004   7.238   8.215 -0.0389 -0.0581 -0.0120
   87loPI    C1 1377  11.439  15.307   9.868 -0.2420 -0.2672 -0.1603
   87loPI    C2 1378  11.494  14.960  10.058 -0.2504 -0.2768 -0.1754
   87loPI    C3 1379  11.235  15.229  10.203  0.0031 -0.1357  0.0227
   87loPI   PO4 1380  11.729  15.298   9.709  0.0588 -0.1796  0.1364
   87loPI   GL1 1381  11.927  15.318   9.296 -0.2464  0.1483 -0.0401
   87loPI   GL2 1382  12.191  15.183   9.149 -0.2505  0.0057 -0.0737
   87loPI   C1A 1383  12.062  15.756   9.178  0.0078  0.0797 -0.1497
   87loPI   C2A 1384  12.162  15.816   8.830  0.0535 -0.0586  0.2126
   87loPI   C3A 1385  12.458  15.793   8.674 -0.1057 -0.2640 -0.1955
   87loPI   C4A 1386  12.606  15.745   8.344  0.3068  0.0777 -0.3215
   87loPI   C5A 1387  12.642  15.668   7.909  0.1803 -0.0726 -0.1157
   87loPI   C6A 1388  12.928  15.508   7.622  0.0054  0.0124  0.3872
   87loPI   C1B 1389  12.102  15.254   8.745 -0.0190 -0.2479  0.1083
   87loPI   C2B 1390  11.856  15.369   8.374  0.0430  0.0770 -0.1574
   87loPI   C3B 1391  11.687  15.539   7.884 -0.0745  0.3313 -0.1189
   87loPI   C4B 1392  11.601  15.845   7.655 -0.1754  0.2755  0.0670
   88loPI    C1 1393  13.695  11.347  10.379 -0.1370  0.1653 -0.1711
   88loPI    C2 1394  13.360  11.158  10.271  0.0188 -0.2030 -0.0285
   88loPI    C3 1395  13.694  10.949  10.338  0.2405  0.1447 -0.0243
   88loPI   PO4 1396  13.797  11.540  10.168  0.1238 -0.0021 -0.0743
   88loPI   GL1 1397  13.868  11.448   9.745  0.1721  0.0606  0.2065
   88loPI   GL2 1398  14.171  11.329   9.662 -0.1488 -0.0322 -0.0127
   88loPI   C1A 1399  13.840  11.555   9.266 -0.2113  0.2070 -0.3252
   88loPI   C2A 1400  13.840  11.377   8.839 -0.1209 -0.0516 -0.2266
   88loPI   C3A 1401  13.944  11.447   8.358 -0.0364  0.1768 -0.0324
   88loPI   C4A 1402  14.236  11.511   8.026 -0.1732  0.1569  0.0421
   88loPI   C5A 1403  14.308  11.253   7.681 -0.2262 -0.1143  0.1401
   88loPI   C6A 1404  14.678  11.109   7.546 -0.1494 -0.4155 -0.0142
   88loPI   C1B 1405  14.304  11.157   9.248 -0.0152 -0.1305  0.1104
   88loPI   C2B 1406  14.418  11.236   8.790 -0.2819 -0.2315  0.0863
   88loPI   C3B 1407  14.347  11.210   8.439  0.1564 -0.1254  0.1043
   88loPI   C4B 1408  14.560  11.055   8.066  0.1887 -0.4914  0.1521
   89loPI    C1 1409  11.858   4.249   9.893 -0.2112 -0.1205  0.0054
   89loPI    C2 1410  11.846   4.091  10.260  0.2164 -0.1850 -0.0032
   89loPI    C3 1411  11.918   3.857   9.943 -0.2001 -0.1379 -0.1390
   89loPI   PO4 1412  12.026   4.426   9.876 -0.0687  0.0973 -0.1450
   89loPI   GL1 1413  12.219   4.351   9.574  0.3919 -0.0541  0.1673
   89loPI   GL2 1414  12.303   4.030   9.530 -0.0261  0.0163 -0.3105
   89loPI   C1A 1415  12.180   4.511   9.263  0.2651  0.1384  0.1330
   89loPI   C2A 1416  12.155   4.877   9.093 -0.2397  0.0053 -0.2745
   89loPI   C3A 1417  12.203   5.085   8.788 -0.4689  0.1375  0.2549
   89loPI   C4A 1418  12.338   5.262   8.423 -0.1510  0.0343  0.0473
   89loPI   C5A 1419  12.720   5.392   8.157  0.0580 -0.4306  0.1658
   89loPI   C6A 1420  13.104   5.423   8.075 -0.0223  0.1626 -0.0787
   89loPI   C1B 1421  12.605   4.221   9.246  0.0861 -0.1367 -0.0605
   89loPI   C2B 1422  12.598   4.557   8.946 -0.4199 -0.1547  0.0964
   89loPI   C3B 1423  12.480   4.712   8.529 -0.3556  0.0112  0.1393
   89loPI   C4B 1424  12.222   4.889   8.149  0.2019 -0.0732  0.0644
   90loPI    C1 1425   0.271  15.962  10.329  0.1030  0.2286  0.0829
   90loPI    C2 1426   0.281  16.322  10.155 -0.0308  0.2597  0.1389
   90loPI    C3 1427   0.041  16.258  10.469 -0.0554  0.1038  0.0888
   90loPI   PO4 1428   0.346  15.844  10.165  0.2329  0.1289 -0.3030
   90loPI   GL1 1429   0.204  15.991   9.806  0.1211 -0.3848 -0.1533
   90loPI   GL2 1430   0.299  16.253   9.675 -0.1330 -0.1816 -0.2988
   90loPI   C1A 1431   0.154  15.761   9.435  0.3350  0.1176 -0.1506
   90loPI   C2A 1432  -0.079  15.557   9.000  0.0481  0.1610  0.0958
   90loPI   C3A 1433  -0.040  15.437   8.567  0.0250 -0.1769  0.0015
   90loPI   C4A 1434   0.244  15.435   8.177 -0.2604 -0.2029 -0.0399
   90loPI   C5A 1435   0.681  15.569   7.972 -0.3258 -0.0990  0.0065
   90loPI   C6A 1436   0.945  15.253   7.621  0.0785  0.0321 -0.0118
   90loPI   C1B 1437   0.289  16.368   9.293 -0.0021 -0.1644  0.1866
   90loPI   C2B 1438   0.517  16.342   8.904 -0.1090  0.2127 -0.0313
   90loPI   C3B 1439   0.556  16.210   8.426  0.0941 -0.1681 -0.1294
   90loPI   C4B 1440   1.010  16.372   8.128 -0.0493 -0.4473  0.2367
   91loPI    C1 1441  12.566   1.243  10.172 -0.1025 -0.0813 -0.3584
   91loPI    C2 1442  12.245   1.053  10.026 -0.2618 -0.3170  0.2695
   91loPI    C3 1443  12.320   1.431   9.918 -0.6183 -0.3352 -0.0631
   91loPI   PO4 1444  12.729   1.026  10.129 -0.0466  0.1122 -0.1183
   91loPI   GL1 1445  12.622   0.646   9.806  0.1554 -0.0325  0.1080
   91loPI   GL2 1446  12.416   0.925   9.576 -0.1646 -0.2342 -0.1700
   91loPI   C1A 1447  12.948   0.725   9.500  0.0384 -0.1126 -0.0360
   91loPI   C2A 1448  13.076   0.783   9.111 -0.2085 -0.1519 -0.2419
   91loPI   C3A 1449  13.142   0.635   8.678 -0.3573  0.3407 -0.1201
   91loPI   C4A 1450  12.973   0.331   8.338 -0.0221  0.0989 -0.1023
   91loPI   C5A 1451  12.790   0.404   8.017  0.1192  0.3847 -0.2144
   91loPI   C6A 1452  12.501   0.123   7.871  0.2973  0.0563 -0.0726
   91loPI   C1B 1453  12.716   1.069   9.234 -0.0072  0.1919  0.1191
   91loPI   C2B 1454  12.542   1.082   8.828 -0.0562  0.0171  0.0344
   91loPI   C3B 1455  12.317   1.169   8.355  0.0470 -0.1526 -0.2561
   91loPI   C4B 1456  12.263   1.377   7.913 -0.0775  0.2019  0.0379
   92loPI    C1 1457   6.843   5.864   9.656 -0.0830  0.0779  0.0943
   92loPI    C2 1458   7.095   5.719   9.932 -0.1466  0.2039  0.2197
   92loPI    C3 1459   6.959   5.482   9.640  0.1067  0.1316  0.1587
   92loPI   PO4 1460   6.923   6.146   9.687  0.0206 -0.1548  0.1020
   92loPI   GL1 1461   7.181   6.325   9.354  0.0792 -0.1346 -0.0417
   92loPI   GL2 1462   7.425   6.578   9.373  0.0160  0.0057  0.1159
   92loPI   C1A 1463   7.276   6.373   8.908  0.1455  0.1331 -0.0410
   92loPI   C2A 1464   7.384   6.569   8.530 -0.3991  0.1314  0.0246
   92loPI   C3A 1465   7.402   6.603   8.060  0.1640  0.3348  0.1673
   92loPI   C4A 1466   7.636   6.537   7.761 -0.0204  0.1604 -0.0365
   92loPI   C5A 1467   7.869   6.511   7.467 -0.4610 -0.1999 -0.3681
   92loPI   C6A 1468   8.248   6.598   7.297  0.2953 -0.0683  0.2791
   92loPI   C1B 1469   7.635   6.699   8.996  0.1231  0.0583 -0.2017
   92loPI   C2B 1470   7.835   6.775   8.645 -0.0045  0.2498 -0.1072
   92loPI   C3B 1471   7.867   6.722   8.299 -0.0596 -0.3355 -0.3970
   92loPI   C4B 1472   7.763   6.991   7.995 -0.1525 -0.1109 -0.1949
   93loPI    C1 1473  15.128  13.800  10.147  0.0369 -0.0492  0.1764
   93loPI    C2 1474  15.156  13.426  10.286 -0.0015 -0.0663  0.1383
   93loPI    C3 1475  14.850  13.659  10.398  0.0254 -0.0445  0.1664
   93loPI   PO4 1476  15.249  13.718   9.894  0.5194 -0.0043  0.0906
   93loPI   GL1 1477  15.413  13.699   9.467 -0.1329 -0.1662 -0.2133
   93loPI   GL2 1478  15.118  13.501   9.387  0.0613  0.0919  0.1112
   93loPI   C1A 1479  15.611  13.443   9.179 -0.1891 -0.1909 -0.1114
   93loPI   C2A 1480  15.491  13.410   8.752 -0.0340  0.2672  0.3129
   93loPI   C3A 1481  15.708  13.249   8.356 -0.1608  0.0060  0.0614
   93loPI   C4A 1482  15.724  13.457   7.902  0.2002 -0.0151 -0.0271
   93loPI   C5A 1483  16.013  13.828   7.910 -0.1235 -0.0165 -0.2570
   93loPI   C6A 1484  16.457  13.882   8.041 -0.0597 -0.0504  0.0935
   93loPI   C1B 1485  15.150  13.296   9.032  0.2797  0.2283 -0.2255
   93loPI   C2B 1486  15.050  13.156   8.650  0.0173  0.1919  0.1585
   93loPI   C3B 1487  15.111  12.940   8.150 -0.0149  0.1995 -0.2094
   93loPI   C4B 1488  15.090  13.151   7.754 -0.0796  0.0580 -0.5424
   94loPI    C1 1489   9.154  11.754   9.841 -0.0916 -0.1166 -0.3580
   94loPI    C2 1490   9.515  11.584   9.808  0.0521  0.0179  0.3627
   94loPI    C3 1491   9.214  11.382   9.977 -0.1066  0.0513  0.1246
   94loPI   PO4 1492   9.092  11.872   9.533 -0.1098 -0.0741  0.0954
   94loPI   GL1 1493   8.908  11.982   9.114  0.0720 -0.3036  0.2726
   94loPI   GL2 1494   9.003  11.637   9.037 -0.1404 -0.1024  0.1425
   94loPI   C1A 1495   9.036  12.166   8.653 -0.3455  0.0867 -0.3401
   94loPI   C2A 1496   8.965  11.984   8.299  0.2629 -0.1379 -0.2688
   94loPI   C3A 1497   9.005  11.911   7.910  0.1739 -0.1511  0.0405
   94loPI   C4A 1498   9.131  11.575   7.562  0.1806 -0.2632  0.1435
   94loPI   C5A 1499   9.260  11.331   7.268  0.1352  0.2712 -0.1823
   94loPI   C6A 1500   9.707  11.087   7.206  0.4256  0.1195 -0.1889
   94loPI   C1B 1501   9.167  11.586   8.569  0.3070 -0.0946  0.0459
   94loPI   C2B 1502   9.307  11.493   8.135  0.1124 -0.1459  0.1559
   94loPI   C3B 1503   9.498  11.747   7.835 -0.1643 -0.4498  0.1384
   94loPI   C4B 1504   9.636  11.849   7.455  0.1351 -0.2715 -0.0314
   95loPI    C1 1505  16.844  11.638  10.476  0.0595 -0.1931  0.0686
   95loPI    C2 1506  16.597  11.899  10.653  0.0895 -0.3374  0.3277
   95loPI    C3 1507  16.884  11.719  10.865  0.4633 -0.1252  0.0172
   95loPI   PO4 1508  16.820  11.730  10.166  0.1137  0.3089 -0.7951
   95loPI   GL1 1509  16.945  11.498   9.745  0.3816  0.2251 -0.1861
   95loPI   GL2 1510  17.132  11.178   9.841 -0.0696  0.3576 -0.4501
   95loPI   C1A 1511  16.915  11.191   9.406  0.0218  0.0160  0.1168
   95loPI   C2A 1512  16.966  11.099   8.953 -0.2102 -0.0455  0.1508
   95loPI   C3A 1513  17.159  10.981   8.655  0.2374  0.2264  0.2835
   95loPI   C4A 1514  17.428  10.840   8.419  0.0723  0.4571  0.0577
   95loPI   C5A 1515  17.798  10.502   8.182  0.1219 -0.4474  0.4492
   95loPI   C6A 1516  17.832  10.332   7.772  0.0241 -0.0232 -0.0769
   95loPI   C1B 1517  17.387  11.268   9.608 -0.0193  0.0639  0.0167
   95loPI   C2B 1518  17.357  11.450   9.194 -0.1259  0.1817  0.0335
   95loPI   C3B 1519  17.323  11.647   8.841  0.2731 -0.2471  0.0227
   95loPI   C4B 1520  16.998  11.774   8.448  0.2335  0.0060 -0.1103
   96loPI    C1 1521   5.936   1.362   9.531 -0.0600  0.1397  0.1985
   96loPI    C2 1522   6.004   1.056   9.780  0.1399 -0.1304 -0.1784
   96loPI    C3 1523   6.160   1.416   9.858  0.2771 -0.2352  0.0379
   96loPI   PO4 1524   5.989   1.163   9.285 -0.0961 -0.0034 -0.2558
   96loPI   GL1 1525   5.730   1.121   8.980  0.2971 -0.2440  0.3149
   96loPI   GL2 1526   5.462   1.145   8.876 -0.0069  0.0318 -0.0819
   96loPI   C1A 1527   6.020   1.304   8.575 -0.1190 -0.1836  0.0315
   96loPI   C2A 1528   5.913   1.180   8.186  0.1515 -0.0425 -0.0075
   96loPI   C3A 1529   5.942   1.032   7.824  0.2487  0.0663  0.1380
   96loPI   C4A 1530   6.036   0.969   7.382 -0.0756 -0.1847 -0.1803
   96loPI   C5A 1531   6.290   1.034   7.052 -0.3449  0.1159  0.0630
   96loPI   C6A 1532   6.663   1.289   6.798 -0.1877 -0.0283  0.0263
   96loPI   C1B 1533   5.473   1.083   8.409  0.0450 -0.2933 -0.0218
   96loPI   C2B 1534   5.381   0.944   8.046 -0.1793 -0.1206 -0.2564
   96loPI   C3B 1535   5.146   1.005   7.709  0.3197 -0.0500 -0.0755
   96loPI   C4B 1536   5.056   0.820   7.313  0.1727 -0.1229 -0.3176
   97loPI    C1 1537   6.017   3.570  10.124 -0.1293  0.0989 -0.1599
   97loPI    C2 1538   6.085   3.263  10.370 -0.1455  0.1506 -0.0908
   97loPI    C3 1539   5.815   3.541  10.467 -0.1400  0.1798 -0.1592
   97loPI   PO4 1540   6.034   3.418   9.846  0.1909  0.1992  0.2202
   97loPI   GL1 1541   6.057   3.570   9.338  0.0480 -0.0468 -0.1467
   97loPI   GL2 1542   6.152   3.784   9.156 -0.4861 -0.0751 -0.2495
   97loPI   C1A 1543   6.109   3.330   8.904 -0.1853  0.0821  0.2105
   97loPI   C2A 1544   6.190   3.478   8.458  0.1773 -0.0390  0.0809
   97loPI   C3A 1545   6.229   3.368   8.046  0.0865 -0.2418 -0.1604
   97loPI   C4A 1546   6.400   3.569   7.690  0.0236  0.0367 -0.0983
   97loPI   C5A 1547   6.342   3.986   7.574  0.0324 -0.1854  0.1120
   97loPI   C6A 1548   6.411   4.186   7.215  0.1307 -0.4051  0.1761
   97loPI   C1B 1549   5.947   3.799   8.777 -0.2642 -0.1691  0.1895
   97loPI   C2B 1550   5.794   3.736   8.343  0.1817  0.0963 -0.0604
   97loPI   C3B 1551   5.650   3.580   8.092  0.1145  0.0409  0.1989
   97loPI   C4B 1552   5.381   3.631   7.713  0.3210 -0.0037  0.0368
   98loPI    C1 1553  10.956   8.267  10.082  0.0342  0.1132  0.1100
   98loPI    C2 1554  11.061   7.955  10.309 -0.0872 -0.0100 -0.0015
   98loPI    C3 1555  10.737   8.170  10.402  0.1643  0.2697  0.2482
   98loPI   PO4 1556  10.991   8.197   9.816 -0.1877 -0.1330 -0.2525
   98loPI   GL1 1557  11.184   8.283   9.534  0.1429  0.3240  0.1626
   98loPI   GL2 1558  11.545   8.132   9.454  0.2777 -0.1550 -0.1208
   98loPI   C1A 1559  11.211   8.558   9.209  0.3518  0.0543  0.3800
   98loPI   C2A 1560  11.062   8.768   8.825  0.0283  0.0035  0.1688
   98loPI   C3A 1561  10.840   8.814   8.507 -0.0865 -0.2940 -0.1312
   98loPI   C4A 1562  10.601   9.042   8.150 -0.0094  0.0786 -0.0123
   98loPI   C5A 1563  10.435   9.101   7.747 -0.3626  0.0338 -0.0088
   98loPI   C6A 1564  10.177   9.109   7.450  0.1769  0.0165 -0.0890
   98loPI   C1B 1565  11.740   8.336   8.967 -0.0563 -0.0370 -0.0811
   98loPI   C2B 1566  11.819   8.524   8.569  0.0131  0.1423 -0.1012
   98loPI   C3B 1567  12.107   8.535   8.276 -0.3311 -0.0108  0.0960
   98loPI   C4B 1568  12.086   8.516   7.838  0.1620  0.3467 -0.1511
   99loPI    C1 1569  12.921   8.942   9.743 -0.0639 -0.0677  0.0659
   99loPI    C2 1570  12.865   8.670  10.031 -0.0402 -0.2841 -0.1304
   99loPI    C3 1571  13.022   9.027  10.120 -0.3402 -0.2236  0.1782
   99loPI   PO4 1572  13.060   8.874   9.619  0.1730 -0.0382 -0.2334
   99loPI   GL1 1573  13.038   9.218   9.322 -0.1069  0.0558  0.2197
   99loPI   GL2 1574  13.006   9.538   9.463  0.2424 -0.0136 -0.0264
   99loPI   C1A 1575  13.024   9.086   8.923  0.1145 -0.1290  0.1304
   99loPI   C2A 1576  12.865   9.137   8.516  0.2305 -0.0016  0.1153
   99loPI   C3A 1577  12.940   8.841   8.096  0.0663 -0.0590  0.0517
   99loPI   C4A 1578  13.134   8.769   7.695  0.0447 -0.1015 -0.1121
   99loPI   C5A 1579  13.223   8.383   7.445  0.0410 -0.0616  0.0433
   99loPI   C6A 1580  13.331   8.008   7.400  0.2478  0.0574 -0.0732
   99loPI   C1B 1581  12.981   9.591   8.990  0.3386  0.1288 -0.0630
   99loPI   C2B 1582  13.003   9.635   8.521  0.0922  0.2754  0.1194
   99loPI   C3B 1583  12.889   9.984   8.231  0.3107  0.0107 -0.1536
   99loPI   C4B 1584  12.777  10.233   7.830 -0.4273 -0.0097  0.0527
  100loPI    C1 1585  17.165  19.021  10.316 -0.2881 -0.1019 -0.2265
  100loPI    C2 1586  17.305  19.361  10.158  0.2655  0.0345  0.5020
  100loPI    C3 1587  16.948  19.357  10.339  0.0147  0.0820  0.0267
  100loPI   PO4 1588  17.376  18.865  10.074 -0.0641  0.1973  0.2100
  100loPI   GL1 1589  17.605  18.865   9.654  0.0505 -0.1732 -0.0182
  100loPI   GL2 1590  17.781  18.723   9.445 -0.2105 -0.2493 -0.0783
  100loPI   C1A 1591  17.392  18.919   9.114 -0.0250 -0.1025  0.4838
  100loPI   C2A 1592  17.163  18.893   8.764  0.5316 -0.0698  0.0272
  100loPI   C3A 1593  17.135  18.845   8.323 -0.1331  0.1616 -0.1658
  100loPI   C4A 1594  17.022  18.880   7.948  0.0871  0.0002 -0.1183
  100loPI   C5A 1595  17.385  18.985   7.708 -0.0622 -0.1101  0.1516
  100loPI   C6A 1596  17.841  18.993   7.638 -0.0863 -0.2422 -0.1090
  100loPI   C1B 1597  18.091  18.742   9.139  0.1562  0.3989 -0.2146
  100loPI   C2B 1598  18.353  18.649   8.865 -0.5038  0.0170 -0.5929
  100loPI   C3B 1599  18.402  18.579   8.429  0.0407  0.0120 -0.0719
  100loPI   C4B 1600  18.186  18.616   8.035 -0.2464  0.2027 -0.1980
  101loPI    C1 1601   8.549   0.650   9.716 -0.0555  0.1971  0.2013
  101loPI    C2 1602   8.682   0.288   9.825 -0.2689  0.0224 -0.1030
  101loPI    C3 1603   8.448   0.498  10.072 -0.2074 -0.0801  0.0437
  101loPI   PO4 1604   8.736   0.743   9.577  0.4126 -0.2102 -0.2487
  101loPI   GL1 1605   8.725   0.888   9.274  0.0118  0.0012 -0.0237
  101loPI   GL2 1606   8.703   1.197   9.309 -0.0721 -0.1693  0.1687
  101loPI   C1A 1607   9.030   0.749   9.054  0.0354  0.1046 -0.1487
  101loPI   C2A 1608   9.155   0.597   8.655 -0.2159 -0.2258  0.3924
  101loPI   C3A 1609   9.451   0.557   8.271 -0.1255 -0.0727  0.2020
  101loPI   C4A 1610   9.511   0.431   7.930 -0.0793  0.0011 -0.3821
  101loPI   C5A 1611   9.616   0.453   7.465 -0.1569 -0.3959  0.0121
  101loPI   C6A 1612   9.591   0.564   7.095 -0.1192  0.0428  0.0486
  101loPI   C1B 1613   8.339   1.041   8.972 -0.0977  0.0686 -0.1089
  101loPI   C2B 1614   8.375   1.024   8.543 -0.0334  0.0540  0.0012
  101loPI   C3B 1615   8.485   0.783   8.193 -0.2274 -0.0910 -0.0483
  101loPI   C4B 1616   8.273   0.544   7.740 -0.3439  0.2375  0.1519
  102loPI    C1 1617   5.060  15.557   9.838 -0.3044 -0.0259  0.1197
  102loPI    C2 1618   5.094  15.234  10.072 -0.1234 -0.0817  0.0194
  102loPI    C3 1619   5.319  15.557  10.143 -0.0900 -0.0876 -0.0594
  102loPI   PO4 1620   4.817  15.604   9.733 -0.2814 -0.2056 -0.1347
  102loPI   GL1 1621   4.517  15.591   9.297 -0.2520  0.4147 -0.2005
  102loPI   GL2 1622   4.451  15.311   9.357 -0.0500  0.1311 -0.0433
  102loPI   C1A 1623   4.535  15.677   8.842 -0.2106  0.2723  0.1184
  102loPI   C2A 1624   4.570  15.727   8.449  0.0442 -0.1918  0.1238
  102loPI   C3A 1625   4.518  15.822   7.978  0.5221  0.3208 -0.1140
  102loPI   C4A 1626   4.605  15.747   7.541  0.0773 -0.0281  0.1016
  102loPI   C5A 1627   4.916  15.730   7.196  0.1932  0.2175  0.0947
  102loPI   C6A 1628   5.141  16.028   6.961  0.3297  0.1008  0.3890
  102loPI   C1B 1629   4.477  15.160   8.920 -0.1095  0.0967  0.1463
  102loPI   C2B 1630   4.394  15.093   8.404  0.0691  0.2539 -0.1068
  102loPI   C3B 1631   4.131  15.049   8.092 -0.0914 -0.3187  0.0889
  102loPI   C4B 1632   4.065  15.078   7.613  0.0076 -0.2679 -0.3364
  103loPI    C1 1633  14.630  10.732  10.210  0.2706 -0.0237  0.1643
  103loPI    C2 1634  14.288  10.718  10.418  0.1674 -0.1397 -0.0109
  103loPI    C3 1635  14.639  10.701  10.609  0.0857  0.4697  0.2143
  103loPI   PO4 1636  14.489  10.906   9.972 -0.3046 -0.0787 -0.0343
  103loPI   GL1 1637  14.597  10.980   9.623  0.1703  0.1760 -0.0366
  103loPI   GL2 1638  14.897  11.135   9.531  0.2896  0.1136  0.0059
  103loPI   C1A 1639  14.678  10.761   9.202 -0.2299  0.0513 -0.4231
  103loPI   C2A 1640  14.299  10.614   8.905 -0.0677 -0.0445 -0.0864
  103loPI   C3A 1641  13.997  10.816   8.921  0.1282 -0.2020  0.1069
  103loPI   C4A 1642  13.845  10.962   8.563  0.0048 -0.0873  0.2138
  103loPI   C5A 1643  13.961  10.962   8.188 -0.0596  0.0402 -0.2170
  103loPI   C6A 1644  14.192  10.783   7.881 -0.0275  0.1948 -0.4126
  103loPI   C1B 1645  14.844  11.304   9.238  0.4140  0.0206 -0.0671
  103loPI   C2B 1646  14.854  11.374   8.755 -0.1644  0.2016  0.2296
  103loPI   C3B 1647  14.827  11.499   8.232 -0.0104  0.1428 -0.2324
  103loPI   C4B 1648  14.758  11.690   7.899  0.2407 -0.0902  0.0354
  104loPI    C1 1649   9.937  18.854  10.105 -0.0241 -0.0366 -0.2725
  104loPI    C2 1650  10.289  18.985   9.969 -0.1460  0.5977 -0.0120
  104loPI    C3 1651  10.170  19.079  10.339 -0.2648 -0.2497  0.1846
  104loPI   PO4 1652   9.774  19.019   9.888  0.0098  0.2602 -0.1537
  104loPI   GL1 1653   9.568  19.039   9.562 -0.0494 -0.1849 -0.1585
  104loPI   GL2 1654   9.729  19.014   9.198  0.0259  0.1062  0.2102
  104loPI   C1A 1655   9.260  18.939   9.245  0.2689 -0.0228 -0.5331
  104loPI   C2A 1656   9.420  18.693   8.906 -0.1564 -0.4532  0.0302
  104loPI   C3A 1657   9.412  18.720   8.489 -0.0449 -0.0930  0.0335
  104loPI   C4A 1658   9.240  18.623   7.993  0.1602  0.0952 -0.1105
  104loPI   C5A 1659   8.985  18.236   7.834 -0.1425  0.0867 -0.0640
  104loPI   C6A 1660   8.643  18.057   7.927  0.1350  0.0174  0.1341
  104loPI   C1B 1661   9.892  18.820   8.787 -0.0695  0.0781  0.0356
  104loPI   C2B 1662   9.921  18.729   8.396  0.1656  0.1855  0.0079
  104loPI   C3B 1663  10.043  18.820   7.937 -0.1621  0.2447  0.0456
  104loPI   C4B 1664  10.238  18.649   7.710 -0.2643  0.5200  0.3124
  105loPI    C1 1665  10.796   3.545  10.162  0.4287  0.0475  0.1076
  105loPI    C2 1666  10.887   3.547   9.772 -0.1395  0.1399 -0.0334
  105loPI    C3 1667  10.880   3.890   9.978  0.1817  0.0886  0.0682
  105loPI   PO4 1668  10.585   3.303  10.085 -0.0531  0.2431 -0.1815
  105loPI   GL1 1669  10.506   3.119   9.618 -0.3159 -0.0423 -0.0043
  105loPI   GL2 1670  10.550   3.447   9.460  0.0415  0.1551  0.0820
  105loPI   C1A 1671  10.372   2.991   9.225 -0.0535 -0.2008  0.1122
  105loPI   C2A 1672  10.305   2.929   8.747 -0.2346  0.1611 -0.1227
  105loPI   C3A 1673  10.430   2.916   8.396  0.0221  0.1160 -0.1898
  105loPI   C4A 1674  10.741   2.684   8.119  0.1044 -0.2117  0.0490
  105loPI   C5A 1675  11.117   2.720   8.039  0.0767  0.1506 -0.3719
  105loPI   C6A 1676  11.473   2.961   8.173 -0.1341 -0.2203 -0.1184
  105loPI   C1B 1677  10.500   3.694   9.066 -0.1132  0.1308  0.0780
  105loPI   C2B 1678  10.221   3.957   8.836  0.0471  0.2607  0.2144
  105loPI   C3B 1679   9.936   4.162   8.965  0.1559 -0.1867 -0.0170
  105loPI   C4B 1680   9.433   4.261   8.967 -0.0594  0.1042  0.1422
  106loPI    C1 1681   6.590  14.648   9.816  0.2154 -0.0975 -0.1407
  106loPI    C2 1682   6.526  14.689  10.209  0.2799  0.1655 -0.1560
  106loPI    C3 1683   6.865  14.522  10.078  0.1454 -0.1622 -0.0977
  106loPI   PO4 1684   6.489  14.861   9.681  0.0826 -0.1878 -0.0661
  106loPI   GL1 1685   6.442  14.728   9.280 -0.1633 -0.0823 -0.1529
  106loPI   GL2 1686   6.632  14.641   9.083 -0.1444  0.0665  0.2182
  106loPI   C1A 1687   6.278  14.920   8.878  0.1786 -0.0345  0.1315
  106loPI   C2A 1688   6.359  14.933   8.483 -0.0775 -0.2623  0.3267
  106loPI   C3A 1689   6.271  15.090   8.163 -0.0328  0.0021 -0.2386
  106loPI   C4A 1690   6.212  15.389   7.935  0.0233  0.0533 -0.0811
  106loPI   C5A 1691   6.287  15.602   7.628  0.1361  0.1201  0.4997
  106loPI   C6A 1692   6.001  15.771   7.326  0.2727 -0.3136 -0.3971
  106loPI   C1B 1693   6.664  14.583   8.647  0.0271 -0.0472  0.1039
  106loPI   C2B 1694   6.530  14.512   8.277 -0.1254 -0.0375 -0.0164
  106loPI   C3B 1695   6.604  14.562   7.922  0.0865 -0.1453 -0.0660
  106loPI   C4B 1696   6.639  14.555   7.486 -0.1102  0.0101 -0.3878
  107loPI    C1 1697  12.418   3.367  10.219 -0.1238  0.1260  0.1294
  107loPI    C2 1698  12.391   2.987  10.342 -0.2081  0.0805 -0.0271
  107loPI    C3 1699  12.650   3.237  10.518 -0.0832 -0.0751  0.0118
  107loPI   PO4 1700  12.123   3.404  10.116 -0.2052 -0.1270 -0.1886
  107loPI   GL1 1701  12.224   3.530   9.659 -0.1920  0.1084  0.0292
  107loPI   GL2 1702  12.090   3.253   9.409 -0.0892 -0.1893  0.0970
  107loPI   C1A 1703  12.462   3.667   9.343  0.1882  0.0241  0.3715
  107loPI   C2A 1704  12.537   3.831   8.948  0.0942 -0.1252 -0.0545
  107loPI   C3A 1705  12.377   3.727   8.571  0.1835  0.0079  0.0294
  107loPI   C4A 1706  12.580   3.783   8.285 -0.1156  0.1674  0.3200
  107loPI   C5A 1707  12.475   3.598   7.802  0.0464 -0.0433  0.1138
  107loPI   C6A 1708  12.139   3.714   7.490 -0.1559  0.1557  0.1300
  107loPI   C1B 1709  12.089   3.471   8.981  0.0601 -0.2119  0.3163
  107loPI   C2B 1710  11.871   3.608   8.706  0.0420  0.2821 -0.2565
  107loPI   C3B 1711  11.932   3.914   8.526  0.2057 -0.1003  0.1243
  107loPI   C4B 1712  11.759   4.325   8.314  0.1531 -0.1152  0.0511
  108loPI    C1 1713  11.288   5.455  10.120 -0.0181  0.4077 -0.2890
  108loPI    C2 1714  11.642   5.380  10.290 -0.1647 -0.0525 -0.1734
  108loPI    C3 1715  11.358   5.570  10.497 -0.0987  0.0230 -0.1517
  108loPI   PO4 1716  11.296   5.566   9.822  0.1648  0.0700 -0.0264
  108loPI   GL1 1717  11.310   5.606   9.408  0.1283  0.2063  0.0094
  108loPI   GL2 1718  11.608   5.508   9.414 -0.1150 -0.1306 -0.4593
  108loPI   C1A 1719  11.072   5.833   9.084 -0.2693 -0.2022  0.1322
  108loPI   C2A 1720  10.837   5.848   8.748 -0.3183  0.0322  0.2435
  108loPI   C3A 1721  10.812   5.855   8.392 -0.1455 -0.1624 -0.2829
  108loPI   C4A 1722  10.806   6.032   7.986  0.1228 -0.2322  0.1620
  108loPI   C5A 1723  10.770   6.299   7.712  0.1254  0.1257  0.0012
  108loPI   C6A 1724  11.003   6.453   7.396  0.1043  0.0075 -0.1861
  108loPI   C1B 1725  11.399   5.475   8.962  0.1319 -0.0431 -0.1981
  108loPI   C2B 1726  11.291   5.686   8.527 -0.2371 -0.1812 -0.0477
  108loPI   C3B 1727  11.235   5.699   8.089 -0.0302  0.2412 -0.0329
  108loPI   C4B 1728  11.536   5.478   7.847 -0.0895 -0.0497  0.0299
  109loPI    C1 1729  10.577  12.308   9.705 -0.1202  0.1680 -0.1022
  109loPI    C2 1730  10.366  12.041   9.915  0.2408 -0.1498 -0.1328
  109loPI    C3 1731  10.551  12.342  10.103 -0.2062  0.1143 -0.1030
  109loPI   PO4 1732  10.441  12.403   9.449  0.2747  0.1823 -0.3463
  109loPI   GL1 1733  10.514  12.296   9.046  0.3380  0.0123 -0.0952
  109loPI   GL2 1734  10.445  12.623   8.973  0.3820  0.5119 -0.2542
  109loPI   C1A 1735  10.696  12.296   8.607  0.0485 -0.0729 -0.3178
  109loPI   C2A 1736  10.680  12.371   8.212  0.1408 -0.2876 -0.1112
  109loPI   C3A 1737  10.885  12.526   7.778 -0.0264 -0.1820  0.0201
  109loPI   C4A 1738  11.059  12.335   7.555  0.3589 -0.0111 -0.1428
  109loPI   C5A 1739  11.340  12.300   7.192 -0.1951 -0.0996 -0.2033
  109loPI   C6A 1740  11.622  12.472   6.935  0.2100 -0.1136  0.1606
  109loPI   C1B 1741  10.229  12.399   8.552  0.5312  0.1238  0.2070
  109loPI   C2B 1742   9.980  12.373   8.189 -0.1206  0.3604 -0.1611
  109loPI   C3B 1743   9.900  12.620   7.743  0.0961 -0.2069 -0.0235
  109loPI   C4B 1744  10.158  12.870   7.412 -0.1970  0.1369  0.1531
  110loPI    C1 1745  16.716   3.652  10.029 -0.0273  0.0211 -0.0679
  110loPI    C2 1746  16.950   3.720  10.346 -0.1822 -0.2447  0.1089
  110loPI    C3 1747  16.800   4.027  10.138  0.2101 -0.0708  0.0734
  110loPI   PO4 1748  16.701   3.338   9.991  0.2440  0.2323  0.0071
  110loPI   GL1 1749  16.464   3.322   9.632  0.1179  0.0667 -0.4569
  110loPI   GL2 1750  16.458   2.992   9.563  0.2228 -0.0796  0.0026
  110loPI   C1A 1751  16.531   3.328   9.159 -0.2833 -0.2385  0.1473
  110loPI   C2A 1752  16.591   3.726   8.892 -0.0390 -0.1657  0.1037
  110loPI   C3A 1753  16.628   3.711   8.454 -0.0805  0.1352 -0.1150
  110loPI   C4A 1754  16.323   3.689   8.122  0.3733 -0.1497  0.3021
  110loPI   C5A 1755  16.254   3.958   7.768 -0.0075  0.2013 -0.0231
  110loPI   C6A 1756  16.059   3.981   7.530 -0.0125  0.3974 -0.0292
  110loPI   C1B 1757  16.400   2.637   9.362  0.0749  0.0850  0.1019
  110loPI   C2B 1758  16.260   2.383   8.994 -0.1464  0.2118  0.0227
  110loPI   C3B 1759  16.368   2.474   8.630 -0.1807 -0.2330 -0.0713
  110loPI   C4B 1760  16.104   2.472   8.255  0.1394 -0.1521 -0.3997
  111loPI    C1 1761   3.486   8.744   9.827 -0.3004  0.1712 -0.0890
  111loPI    C2 1762   3.123   8.807   9.982 -0.1283 -0.0692  0.4374
  111loPI    C3 1763   3.432   9.031  10.101 -0.0845  0.0850  0.0467
  111loPI   PO4 1764   3.494   8.518   9.782 -0.0055  0.0741 -0.1675
  111loPI   GL1 1765   3.596   8.503   9.346  0.1251  0.2641  0.2570
  111loPI   GL2 1766   3.480   8.255   9.083 -0.0177 -0.4809  0.2016
  111loPI   C1A 1767   3.328   8.892   9.124 -0.2130 -0.0697 -0.1536
  111loPI   C2A 1768   3.005   9.142   8.824  0.0032 -0.1382 -0.3129
  111loPI   C3A 1769   3.099   9.316   8.381  0.0004  0.1076 -0.1402
  111loPI   C4A 1770   3.374   9.055   7.986  0.2592  0.2916  0.1952
  111loPI   C5A 1771   3.034   8.864   7.812  0.1595  0.2688 -0.0005
  111loPI   C6A 1772   2.673   8.861   7.606  0.0575  0.1344  0.2470
  111loPI   C1B 1773   3.337   7.929   8.769 -0.0700  0.1097 -0.0741
  111loPI   C2B 1774   3.584   8.063   8.482  0.2572  0.2396 -0.1000
  111loPI   C3B 1775   3.539   8.089   8.053  0.0681 -0.6089 -0.0538
  111loPI   C4B 1776   3.776   8.046   7.751 -0.3161  0.1538  0.1192
  112loPI    C1 1777  17.050   8.917  10.109 -0.3050  0.0117 -0.1558
  112loPI    C2 1778  16.667   8.810  10.157 -0.2693 -0.0861 -0.0878
  112loPI    C3 1779  16.960   8.569  10.284 -0.1833 -0.0568 -0.2284
  112loPI   PO4 1780  17.048   8.901   9.789 -0.0869 -0.0501 -0.5715
  112loPI   GL1 1781  16.987   9.159   9.535  0.1159 -0.0168  0.0576
  112loPI   GL2 1782  17.205   9.429   9.550  0.3461  0.0671 -0.2631
  112loPI   C1A 1783  16.884   9.064   9.097  0.1109  0.1120  0.1560
  112loPI   C2A 1784  16.961   9.242   8.785 -0.0068 -0.0889  0.1307
  112loPI   C3A 1785  16.858   9.456   8.474 -0.0331 -0.0759  0.4246
  112loPI   C4A 1786  16.795   9.371   8.000  0.2264 -0.1561  0.2942
  112loPI   C5A 1787  16.822   9.423   7.501 -0.1436  0.0058  0.0661
  112loPI   C6A 1788  17.047   9.106   7.207  0.0213  0.0642  0.1424
  112loPI   C1B 1789  17.317   9.291   9.116 -0.1243 -0.0411 -0.0191
  112loPI   C2B 1790  17.421   9.119   8.633  0.1719  0.1756  0.0085
  112loPI   C3B 1791  17.463   8.899   8.192 -0.0190 -0.3399 -0.1437
  112loPI   C4B 1792  17.206   9.081   7.828 -0.1698 -0.1649 -0.1875
  113loPI    C1 1793  13.679   1.833   9.934  0.0806 -0.1276  0.1561
  113loPI    C2 1794  14.065   1.739   9.886  0.0833 -0.1574  0.2346
  113loPI    C3 1795  13.821   1.490  10.082  0.0052 -0.1778  0.1127
  113loPI   PO4 1796  13.642   2.140   9.781  0.1198  0.1216 -0.0606
  113loPI   GL1 1797  13.754   2.520   9.519 -0.3038  0.1776  0.1380
  113loPI   GL2 1798  13.736   2.894   9.598  0.1870 -0.0197 -0.0419
  113loPI   C1A 1799  13.747   2.427   9.095  0.3466  0.0763  0.1151
  113loPI   C2A 1800  13.588   2.262   8.625  0.2775 -0.1647  0.0161
  113loPI   C3A 1801  13.451   2.058   8.274 -0.0980 -0.0200 -0.0641
  113loPI   C4A 1802  13.221   2.124   7.918 -0.2801 -0.0836 -0.3388
  113loPI   C5A 1803  12.893   2.399   7.986  0.2955  0.0588  0.0607
  113loPI   C6A 1804  12.744   2.717   7.721 -0.3394 -0.1437  0.0234
  113loPI   C1B 1805  13.526   2.922   9.185  0.2369 -0.0328 -0.1840
  113loPI   C2B 1806  13.530   3.167   8.849  0.1706 -0.0167 -0.2185
  113loPI   C3B 1807  13.236   3.231   8.455 -0.1187  0.0066 -0.2636
  113loPI   C4B 1808  12.955   3.494   8.067 -0.0300 -0.4178 -0.1603
  114loPI    C1 1809  14.077   3.896  10.531  0.2103  0.1040  0.0300
  114loPI    C2 1810  14.189   4.185  10.783 -0.0158  0.0112  0.2412
  114loPI    C3 1811  13.884   3.944  10.878 -0.0532 -0.0757 -0.0879
  114loPI   PO4 1812  14.080   4.097  10.301  0.1515 -0.2492  0.1234
  114loPI   GL1 1813  13.991   4.208   9.827 -0.0371  0.3749 -0.2319
  114loPI   GL2 1814  14.311   4.315   9.733  0.0992  0.1238 -0.0980
  114loPI   C1A 1815  14.112   4.329   9.295  0.1215  0.1082 -0.2379
  114loPI   C2A 1816  14.230   4.477   8.891  0.0007  0.2033  0.0978
  114loPI   C3A 1817  14.100   4.365   8.430  0.1005 -0.0859 -0.1892
  114loPI   C4A 1818  14.178   4.633   8.136 -0.2269  0.1640 -0.2191
  114loPI   C5A 1819  14.529   4.665   7.794  0.1902  0.1434 -0.1949
  114loPI   C6A 1820  14.895   4.828   7.618 -0.2693  0.0158  0.1549
  114loPI   C1B 1821  14.657   4.476   9.513 -0.1883  0.0390  0.1223
  114loPI   C2B 1822  14.685   4.450   9.005 -0.1874 -0.2272  0.0873
  114loPI   C3B 1823  14.560   4.488   8.508  0.1776 -0.0981 -0.2288
  114loPI   C4B 1824  14.710   4.353   8.146 -0.0156 -0.0986  0.1376
  115loPI    C1 1825   7.648   2.133   9.741  0.0328  0.1685  0.0989
  115loPI    C2 1826   7.774   1.765   9.834  0.1195  0.1334 -0.1519
  115loPI    C3 1827   7.511   1.951  10.070 -0.0594 -0.1590 -0.1153
  115loPI   PO4 1828   7.867   2.206   9.691 -0.0897  0.0667  0.0757
  115loPI   GL1 1829   8.269   2.375   9.440 -0.2410 -0.2676  0.0386
  115loPI   GL2 1830   8.023   2.335   9.228  0.1217  0.0314  0.0900
  115loPI   C1A 1831   8.468   2.363   8.962  0.1027  0.0656  0.1803
  115loPI   C2A 1832   8.436   2.561   8.587 -0.3220 -0.2269 -0.2626
  115loPI   C3A 1833   8.461   2.750   8.131  0.1399 -0.1083 -0.3627
  115loPI   C4A 1834   8.300   2.799   7.707  0.3405 -0.2858  0.1387
  115loPI   C5A 1835   8.027   3.133   7.448 -0.1127 -0.2137  0.2997
  115loPI   C6A 1836   7.857   3.566   7.249  0.1366 -0.1154  0.1249
  115loPI   C1B 1837   8.002   2.440   8.708 -0.2216 -0.0080  0.1887
  115loPI   C2B 1838   8.052   2.556   8.279  0.2569 -0.0989 -0.0603
  115loPI   C3B 1839   7.847   2.437   7.840  0.5053 -0.4972 -0.0823
  115loPI   C4B 1840   7.908   2.109   7.510 -0.1388 -0.1302 -0.1191
  116loPI    C1 1841   8.487  12.137   9.353 -0.1146  0.0302 -0.1546
  116loPI    C2 1842   8.650  12.454   9.172  0.0987  0.0534  0.0721
  116loPI    C3 1843   8.786  12.336   9.529 -0.0392 -0.2405  0.0305
  116loPI   PO4 1844   8.434  11.945   9.238  0.1469  0.2062 -0.1568
  116loPI   GL1 1845   8.143  11.852   8.979 -0.1011  0.3850 -0.1988
  116loPI   GL2 1846   7.851  12.045   8.901  0.1080  0.1194  0.0874
  116loPI   C1A 1847   8.104  11.629   8.586 -0.2552  0.1686 -0.0546
  116loPI   C2A 1848   8.085  11.630   8.138  0.3660  0.1894  0.1637
  116loPI   C3A 1849   8.184  11.811   7.624  0.4056  0.1234  0.3032
  116loPI   C4A 1850   8.474  11.911   7.238  0.0398 -0.0565 -0.0999
  116loPI   C5A 1851   8.879  11.942   7.353  0.1454 -0.0385  0.0252
  116loPI   C6A 1852   9.243  12.229   7.546 -0.1655  0.1747 -0.1333
  116loPI   C1B 1853   7.929  12.473   8.648 -0.3050  0.0817  0.0765
  116loPI   C2B 1854   8.044  12.586   8.248  0.4660  0.0879 -0.1024
  116loPI   C3B 1855   7.953  12.596   7.813  0.3869  0.1649 -0.0761
  116loPI   C4B 1856   7.754  12.642   7.374  0.0788 -0.3037  0.5221
  117loPI    C1 1857  18.872   5.242   9.890 -0.0104 -0.1598 -0.1282
  117loPI    C2 1858  18.747   4.941  10.122  0.0324 -0.2818 -0.2620
  117loPI    C3 1859  19.051   5.173  10.241 -0.4377  0.1432  0.1597
  117loPI   PO4 1860  18.622   5.450   9.834 -0.0211  0.0437 -0.0470
  117loPI   GL1 1861  18.583   5.304   9.429  0.1529  0.1378 -0.4380
  117loPI   GL2 1862  18.680   5.692   9.305 -0.1350 -0.1052  0.1235
  117loPI   C1A 1863  18.687   5.258   9.041 -0.0186 -0.0317 -0.0567
  117loPI   C2A 1864  18.573   5.272   8.603 -0.0310 -0.2642 -0.4032
  117loPI   C3A 1865  18.676   5.481   8.209  0.4504  0.1096  0.2123
  117loPI   C4A 1866  18.906   5.473   7.810 -0.1586 -0.0665  0.0034
  117loPI   C5A 1867  19.260   5.221   7.523 -0.1041 -0.0170 -0.2737
  117loPI   C6A 1868  19.503   5.134   7.114  0.0263  0.1364 -0.1116
  117loPI   C1B 1869  18.669   5.707   8.860  0.0059  0.2950  0.3386
  117loPI   C2B 1870  18.384   5.924   8.547 -0.0995  0.1256  0.0504
  117loPI   C3B 1871  18.209   5.669   8.197 -0.0380  0.0203  0.2017
  117loPI   C4B 1872  18.415   5.564   7.716 -0.0326  0.0272 -0.0953
  118loPI    C1 1873   5.497   2.554   9.983  0.1258  0.0388  0.0103
  118loPI    C2 1874   5.576   2.789  10.297  0.0938 -0.1320  0.1474
  118loPI    C3 1875   5.344   2.467  10.341 -0.1568  0.0081 -0.1157
  118loPI   PO4 1876   5.474   2.748   9.812  0.2166 -0.1736 -0.2843
  118loPI   GL1 1877   5.474   2.655   9.327  0.0682  0.2779 -0.3832
  118loPI   GL2 1878   5.108   2.816   9.269 -0.1752 -0.1602  0.0965
  118loPI   C1A 1879   5.247   2.501   8.891 -0.2706  0.0257 -0.3031
  118loPI   C2A 1880   5.327   2.605   8.492  0.2167 -0.0633  0.3117
  118loPI   C3A 1881   5.285   2.580   8.144  0.1344  0.1402  0.1106
  118loPI   C4A 1882   5.027   2.485   7.813 -0.0088  0.0504  0.2913
  118loPI   C5A 1883   5.096   2.152   7.583 -0.0161  0.1336  0.2190
  118loPI   C6A 1884   5.340   2.137   7.182 -0.0011 -0.4270 -0.2316
  118loPI   C1B 1885   4.929   2.836   8.828  0.0743  0.0351  0.0237
  118loPI   C2B 1886   4.839   2.799   8.472 -0.1733  0.3092 -0.2397
  118loPI   C3B 1887   4.788   2.857   8.009  0.0282 -0.2304 -0.1957
  118loPI   C4B 1888   4.705   2.855   7.607 -0.2033 -0.1893 -0.0649
  119loPI    C1 1889  18.735  17.620  10.677  0.0947  0.1073 -0.0718
  119loPI    C2 1890  18.656  17.417  11.012 -0.3044  0.5262  0.0984
  119loPI    C3 1891  18.997  17.622  10.979 -0.1009  0.1957  0.0992
  119loPI   PO4 1892  18.781  17.488  10.386 -0.1197 -0.2840  0.0564
  119loPI   GL1 1893  18.765  17.277   9.965 -0.0258  0.0955  0.2069
  119loPI   GL2 1894  18.795  17.549   9.883  0.0676 -0.0264  0.1538
  119loPI   C1A 1895  18.926  16.883   9.860 -0.0667  0.0037  0.0391
  119loPI   C2A 1896  19.093  16.801   9.558 -0.0271  0.0574 -0.1180
  119loPI   C3A 1897  18.997  16.770   9.200  0.1912 -0.2593  0.0240
  119loPI   C4A 1898  18.996  16.557   8.795  0.3353 -0.0224  0.1615
  119loPI   C5A 1899  18.980  16.319   8.470  0.0639 -0.0865 -0.0173
  119loPI   C6A 1900  18.742  16.228   8.153 -0.0855 -0.1041 -0.2275
  119loPI   C1B 1901  18.842  17.537   9.414  0.3378 -0.1526 -0.0380
  119loPI   C2B 1902  18.695  17.467   8.996 -0.1458 -0.1165  0.0386
  119loPI   C3B 1903  18.682  17.597   8.532  0.0226 -0.3632 -0.3538
  119loPI   C4B 1904  18.638  17.635   8.206  0.0690  0.1249  0.3135
  120loPI    C1 1905   7.467  12.397   9.468 -0.1894  0.2016  0.1870
  120loPI    C2 1906   7.506  12.682   9.746  0.3184  0.1035  0.2255
  120loPI    C3 1907   7.779  12.648   9.455 -0.1219  0.1046 -0.1999
  120loPI   PO4 1908   7.244  12.380   9.409  0.0790 -0.0023  0.1787
  120loPI   GL1 1909   7.074  12.592   9.111 -0.0808 -0.0836  0.2905
  120loPI   GL2 1910   6.993  12.828   8.958  0.1468 -0.1219 -0.0239
  120loPI   C1A 1911   7.134  12.363   8.685 -0.0770  0.2294  0.1866
  120loPI   C2A 1912   7.459  12.368   8.469  0.0604 -0.1157 -0.1824
  120loPI   C3A 1913   7.291  12.464   8.012  0.0195  0.0136  0.0674
  120loPI   C4A 1914   7.233  12.471   7.600  0.3112 -0.2375 -0.0942
  120loPI   C5A 1915   7.248  12.774   7.154 -0.5550 -0.3289  0.0023
  120loPI   C6A 1916   6.994  12.892   6.815 -0.1593 -0.1398 -0.0285
  120loPI   C1B 1917   7.066  12.806   8.438  0.1493 -0.0314  0.0357
  120loPI   C2B 1918   7.165  12.908   8.046 -0.3401 -0.1149  0.0622
  120loPI   C3B 1919   7.267  13.040   7.701  0.1599  0.1790  0.0574
  120loPI   C4B 1920   6.991  13.215   7.304  0.1601  0.1019 -0.0788
  121loPI    C1 1921   3.548  18.038  10.268  0.1212  0.0258 -0.1456
  121loPI    C2 1922   3.440  17.653  10.247 -0.0953  0.0790 -0.0340
  121loPI    C3 1923   3.563  17.808  10.595  0.2010  0.0574 -0.1267
  121loPI   PO4 1924   3.604  18.101   9.988 -0.2672 -0.0321  0.0466
  121loPI   GL1 1925   3.755  18.133   9.655  0.2012 -0.0249  0.1712
  121loPI   GL2 1926   4.084  18.143   9.616 -0.1523  0.1241  0.0660
  121loPI   C1A 1927   3.755  18.218   9.194 -0.0700 -0.1903 -0.2686
  121loPI   C2A 1928   3.582  18.558   8.976 -0.1196  0.1958  0.0611
  121loPI   C3A 1929   3.658  18.715   8.631 -0.2538 -0.1648  0.0427
  121loPI   C4A 1930   3.728  18.957   8.235 -0.2374  0.0382  0.2244
  121loPI   C5A 1931   3.839  19.235   7.919 -0.0408  0.0685 -0.2352
  121loPI   C6A 1932   3.800  19.379   7.613 -0.3528  0.3698 -0.0039
  121loPI   C1B 1933   4.240  17.987   9.230 -0.0765 -0.4615  0.0120
  121loPI   C2B 1934   4.345  17.533   9.008  0.1384  0.1703  0.1576
  121loPI   C3B 1935   4.323  17.447   8.676 -0.2804  0.5034 -0.0500
  121loPI   C4B 1936   4.250  17.785   8.330  0.0698  0.1759 -0.0401
  122loPI    C1 1937  10.704  18.245   9.813 -0.0556 -0.1506 -0.1536
  122loPI    C2 1938  11.033  18.024   9.865  0.0649  0.0275 -0.1499
  122loPI    C3 1939  10.844  18.179  10.182  0.1098  0.1151 -0.1654
  122loPI   PO4 1940  10.533  18.163   9.704  0.1363 -0.0118 -0.3342
  122loPI   GL1 1941  10.295  18.184   9.383  0.1369  0.0853  0.0425
  122loPI   GL2 1942  10.141  17.906   9.424 -0.0659 -0.0990 -0.0727
  122loPI   C1A 1943  10.460  18.174   9.011 -0.1510 -0.1449 -0.0999
  122loPI   C2A 1944  10.702  18.344   8.710  0.1457  0.1043 -0.1782
  122loPI   C3A 1945  10.693  18.403   8.273  0.2521  0.1033  0.3437
  122loPI   C4A 1946  10.616  18.379   7.938 -0.1257  0.2607  0.1493
  122loPI   C5A 1947  10.532  18.159   7.583 -0.0586 -0.1092  0.2956
  122loPI   C6A 1948  10.318  17.860   7.218  0.0843 -0.0733  0.0613
  122loPI   C1B 1949  10.225  17.690   9.090  0.0508 -0.3122 -0.1988
  122loPI   C2B 1950  10.371  17.644   8.711 -0.0673 -0.0563  0.0582
  122loPI   C3B 1951  10.411  17.707   8.201  0.0482  0.1572  0.0617
  122loPI   C4B 1952  10.226  17.635   7.755 -0.2091  0.1572 -0.0022
  123loPI    C1 1953  14.833  16.014  10.032  0.0400  0.0846 -0.0545
  123loPI    C2 1954  14.975  15.983  10.405  0.0612 -0.0629 -0.0740
  123loPI    C3 1955  14.794  15.670  10.233 -0.1277  0.0670 -0.1154
  123loPI   PO4 1956  14.922  16.265   9.970 -0.2389 -0.1276 -0.0667
  123loPI   GL1 1957  14.798  16.482   9.685 -0.3900  0.2352  0.0316
  123loPI   GL2 1958  14.661  16.233   9.511 -0.1041  0.1360 -0.0994
  123loPI   C1A 1959  14.637  16.732   9.435 -0.2403  0.1307 -0.3233
  123loPI   C2A 1960  14.773  17.009   9.161 -0.2198  0.0238  0.0219
  123loPI   C3A 1961  14.710  17.294   8.868 -0.3380  0.2807  0.0435
  123loPI   C4A 1962  14.538  17.514   8.409  0.0063 -0.0284 -0.0176
  123loPI   C5A 1963  14.485  17.456   7.988 -0.0100 -0.2570  0.0858
  123loPI   C6A 1964  14.203  17.331   7.578  0.1717  0.0396 -0.0472
  123loPI   C1B 1965  14.737  15.989   9.263 -0.1454 -0.1602 -0.5099
  123loPI   C2B 1966  14.881  15.879   8.801  0.2444 -0.0471 -0.0327
  123loPI   C3B 1967  14.956  16.091   8.430  0.0583 -0.1764  0.1774
  123loPI   C4B 1968  14.770  16.435   8.277 -0.2885 -0.1117 -0.0399
  124loPI    C1 1969   1.518   9.957   9.872  0.0824 -0.0621  0.2171
  124loPI    C2 1970   1.773   9.649   9.890 -0.0434 -0.1729  0.1242
  124loPI    C3 1971   1.719   9.884  10.210  0.2063 -0.1226  0.1309
  124loPI   PO4 1972   1.552  10.074   9.612  0.0910  0.2603  0.0617
  124loPI   GL1 1973   1.357   9.815   9.228  0.2246 -0.1275 -0.3570
  124loPI   GL2 1974   1.258  10.163   9.261  0.0729  0.1030 -0.0343
  124loPI   C1A 1975   1.030   9.653   8.999  0.1396  0.0245  0.3051
  124loPI   C2A 1976   0.778   9.536   8.603 -0.1620  0.2076 -0.0847
  124loPI   C3A 1977   0.777   9.555   8.287  0.0513 -0.0728  0.0883
  124loPI   C4A 1978   0.580   9.383   7.925 -0.0383  0.1925 -0.0441
  124loPI   C5A 1979   0.797   9.424   7.549  0.2088 -0.1786 -0.4504
  124loPI   C6A 1980   1.003   9.586   7.122  0.0735 -0.0044  0.0878
  124loPI   C1B 1981   1.078  10.189   8.926 -0.0830 -0.0752 -0.0860
  124loPI   C2B 1982   1.115   9.991   8.584 -0.1634  0.0144  0.3028
  124loPI   C3B 1983   0.792  10.103   8.264  0.3204 -0.0924 -0.4937
  124loPI   C4B 1984   0.664   9.923   7.962  0.2995 -0.2058 -0.3780
  125loPI    C1 1985  17.107   1.342  10.074  0.0318 -0.1868 -0.3198
  125loPI    C2 1986  17.411   1.569   9.946 -0.0024 -0.0386 -0.1415
  125loPI    C3 1987  17.456   1.173   9.975  0.0852 -0.0470 -0.3728
  125loPI   PO4 1988  16.960   1.394   9.882  0.2291 -0.2540  0.1431
  125loPI   GL1 1989  16.855   1.370   9.408 -0.0761 -0.1565 -0.4973
  125loPI   GL2 1990  16.503   1.345   9.665  0.2066  0.1598  0.2101
  125loPI   C1A 1991  16.824   1.562   9.049 -0.1563 -0.2842  0.0555
  125loPI   C2A 1992  16.970   1.649   8.722  0.0526  0.1413  0.0979
  125loPI   C3A 1993  17.010   1.811   8.332 -0.0532  0.1378  0.1015
  125loPI   C4A 1994  16.811   1.898   7.924 -0.1579  0.1949  0.0841
  125loPI   C5A 1995  16.502   1.628   7.732  0.3779 -0.1499  0.0221
  125loPI   C6A 1996  16.333   1.321   7.428 -0.0243  0.0606  0.1373
  125loPI   C1B 1997  16.412   1.244   9.260  0.1551 -0.1872  0.2748
  125loPI   C2B 1998  16.097   1.177   8.964  0.0625 -0.3089  0.1408
  125loPI   C3B 1999  16.043   0.958   8.613 -0.1918 -0.1010 -0.0489
  125loPI   C4B 2000  16.371   1.002   8.341 -0.1700  0.3828 -0.0376
  126loPI    C1 2001  12.932  15.045  10.203  0.2817 -0.1110 -0.0461
  126loPI    C2 2002  13.181  14.979  10.509  0.1798 -0.2687  0.0037
  126loPI    C3 2003  12.792  14.892  10.545  0.1049  0.0313 -0.0530
  126loPI   PO4 2004  12.948  14.761   9.990  0.0974 -0.0884  0.0255
  126loPI   GL1 2005  12.888  14.463   9.691 -0.1153 -0.2770  0.0577
  126loPI   GL2 2006  12.752  14.803   9.510 -0.1950  0.3356  0.1154
  126loPI   C1A 2007  13.107  14.134   9.446  0.2132 -0.3007 -0.0140
  126loPI   C2A 2008  13.116  14.308   9.055  0.4093  0.2547 -0.1042
  126loPI   C3A 2009  13.206  14.459   8.681 -0.0877 -0.0189 -0.0323
  126loPI   C4A 2010  13.394  14.521   8.259  0.0182 -0.5410 -0.1591
  126loPI   C5A 2011  13.592  14.832   8.128  0.1341 -0.3017  0.1642
  126loPI   C6A 2012  13.705  15.021   7.711  0.2484 -0.2583 -0.0140
  126loPI   C1B 2013  12.789  14.840   9.021 -0.1143 -0.0879  0.0743
  126loPI   C2B 2014  12.815  14.912   8.568 -0.0054 -0.0330 -0.0295
  126loPI   C3B 2015  13.014  14.828   8.198  0.2179  0.1598 -0.4313
  126loPI   C4B 2016  13.229  14.654   7.790  0.1326  0.1932  0.0612
  127loPI    C1 2017  17.670   4.228  10.556  0.3205 -0.0134  0.0875
  127loPI    C2 2018  17.468   4.566  10.486  0.0874 -0.1776 -0.0459
  127loPI    C3 2019  17.530   4.443  10.862 -0.4093 -0.3277 -0.0053
  127loPI   PO4 2020  17.784   4.143  10.314  0.0505  0.0899  0.0069
  127loPI   GL1 2021  17.683   3.904   9.903  0.0383 -0.2901  0.0176
  127loPI   GL2 2022  17.647   4.181   9.867 -0.1856  0.1754  0.1331
  127loPI   C1A 2023  17.634   3.717   9.417 -0.1881  0.2750 -0.4441
  127loPI   C2A 2024  17.546   3.785   8.982 -0.0487 -0.1869 -0.0589
  127loPI   C3A 2025  17.468   3.823   8.550  0.2928 -0.2339 -0.3017
  127loPI   C4A 2026  17.256   3.548   8.215  0.2310 -0.0687 -0.0836
  127loPI   C5A 2027  16.964   3.132   8.007 -0.2960 -0.1735 -0.0096
  127loPI   C6A 2028  16.877   3.106   7.590  0.1506  0.2236 -0.0035
  127loPI   C1B 2029  17.482   4.296   9.458  0.0555  0.0069  0.5640
  127loPI   C2B 2030  17.487   4.359   9.013 -0.2911 -0.1019  0.0546
  127loPI   C3B 2031  17.333   4.385   8.570  0.0352  0.3754  0.1237
  127loPI   C4B 2032  17.317   4.585   8.165 -0.1531  0.0220  0.1397
  128loPI    C1 2033   9.108  17.884   9.987  0.0810  0.1453  0.3226
  128loPI    C2 2034   8.747  18.006   9.865  0.1447 -0.1212 -0.1582
  128loPI    C3 2035   8.792  17.848  10.229 -0.1914  0.0515 -0.0374
  128loPI   PO4 2036   9.162  17.681   9.810 -0.0145  0.1288 -0.2989
  128loPI   GL1 2037   8.980  17.718   9.466  0.1040  0.4266  0.0627
  128loPI   GL2 2038   8.886  17.391   9.374 -0.0489 -0.4139 -0.2034
  128loPI   C1A 2039   9.254  17.703   9.129  0.2362 -0.0054  0.0984
  128loPI   C2A 2040   9.207  17.702   8.709 -0.1091 -0.2052 -0.2360
  128loPI   C3A 2041   9.334  17.676   8.331  0.1950  0.3138  0.0164
  128loPI   C4A 2042   9.206  17.738   7.871  0.0396 -0.0175 -0.3780
  128loPI   C5A 2043   9.310  17.461   7.497 -0.0537 -0.2395 -0.1901
  128loPI   C6A 2044   9.375  17.360   7.091 -0.1133 -0.1127  0.0556
  128loPI   C1B 2045   8.861  17.390   8.930 -0.1184  0.0195  0.1197
  128loPI   C2B 2046   8.921  17.434   8.459  0.2647 -0.0493 -0.0780
  128loPI   C3B 2047   8.843  17.274   8.078  0.1486 -0.0261 -0.2811
  128loPI   C4B 2048   8.844  17.307   7.637 -0.1055  0.0293 -0.1257
  129loPI    C1 2049  15.306  14.422  10.061  0.0049 -0.1165  0.0598
  129loPI    C2 2050  15.515  14.607  10.348 -0.2483  0.0554  0.1364
  129loPI    C3 2051  15.523  14.208  10.320  0.1600  0.0635  0.0810
  129loPI   PO4 2052  15.323  14.564   9.874  0.4568  0.3561  0.1665
  129loPI   GL1 2053  15.255  14.596   9.484 -0.1448  0.3734  0.1280
  129loPI   GL2 2054  15.301  14.925   9.541  0.5182 -0.1208 -0.0961
  129loPI   C1A 2055  14.993  14.651   9.106  0.1192  0.0159 -0.1238
  129loPI   C2A 2056  14.860  14.440   8.729  0.1335  0.3923  0.0176
  129loPI   C3A 2057  14.869  14.333   8.301 -0.1756  0.0205 -0.0904
  129loPI   C4A 2058  14.764  14.497   7.912 -0.0219  0.0997  0.2857
  129loPI   C5A 2059  14.848  14.690   7.621 -0.1122 -0.0926 -0.0167
  129loPI   C6A 2060  14.475  14.809   7.294 -0.1304  0.4075  0.2004
  129loPI   C1B 2061  15.077  15.127   9.086  0.1321 -0.0865  0.0485
  129loPI   C2B 2062  14.971  14.943   8.686 -0.1188 -0.1930 -0.2192
  129loPI   C3B 2063  14.963  14.879   8.204 -0.0089  0.1358  0.2867
  129loPI   C4B 2064  15.214  14.921   7.900 -0.0015 -0.0516  0.1492
  130loPI    C1 2065   7.534   1.423  10.008  0.4315 -0.2167  0.2155
  130loPI    C2 2066   7.298   1.280  10.297  0.1777 -0.2109  0.0144
  130loPI    C3 2067   7.542   1.587  10.372  0.0701 -0.1706  0.2061
  130loPI   PO4 2068   7.353   1.539   9.737  0.0278 -0.0857 -0.0774
  130loPI   GL1 2069   7.391   1.356   9.194 -0.0354  0.1001  0.0229
  130loPI   GL2 2070   7.106   1.295   9.024  0.2646  0.0655 -0.0555
  130loPI   C1A 2071   7.548   1.612   8.850  0.3344 -0.0877 -0.0382
  130loPI   C2A 2072   7.642   1.675   8.500 -0.2102 -0.2852  0.3508
  130loPI   C3A 2073   7.700   1.643   8.053  0.0910 -0.1367 -0.4358
  130loPI   C4A 2074   7.745   1.256   7.783  0.4184 -0.0327  0.0327
  130loPI   C5A 2075   7.754   0.954   7.466  0.0136 -0.0548 -0.0088
  130loPI   C6A 2076   7.603   0.587   7.331  0.1168 -0.2691 -0.1262
  130loPI   C1B 2077   7.280   1.287   8.656  0.3048 -0.1351  0.0581
  130loPI   C2B 2078   7.574   1.189   8.331 -0.2164  0.0471  0.3533
  130loPI   C3B 2079   7.958   1.096   8.262 -0.1162 -0.3249  0.2441
  130loPI   C4B 2080   8.000   0.704   8.494  0.2310  0.1929 -0.2263
  131loPI    C1 2081  16.494   4.450  10.513  0.0771  0.0475 -0.2159
  131loPI    C2 2082  16.675   4.107  10.610  0.0431  0.0875 -0.0076
  131loPI    C3 2083  16.328   4.206  10.783 -0.0957  0.0895 -0.2825
  131loPI   PO4 2084  16.553   4.487  10.286 -0.3850  0.0861 -0.3992
  131loPI   GL1 2085  16.405   4.571   9.942  0.1741 -0.0517  0.2034
  131loPI   GL2 2086  16.777   4.647   9.818 -0.1495  0.0384 -0.1720
  131loPI   C1A 2087  16.471   4.627   9.474  0.2638 -0.1437 -0.1327
  131loPI   C2A 2088  16.474   4.612   9.070 -0.1528  0.1911 -0.1578
  131loPI   C3A 2089  16.508   4.858   8.685 -0.2078  0.2532 -0.0778
  131loPI   C4A 2090  16.734   5.106   8.219  0.1710  0.2157  0.2132
  131loPI   C5A 2091  17.080   5.548   8.261 -0.2191  0.0684 -0.2412
  131loPI   C6A 2092  17.366   5.561   8.008  0.1939  0.0030 -0.0167
  131loPI   C1B 2093  16.992   4.478   9.431 -0.0353  0.1756 -0.1159
  131loPI   C2B 2094  16.962   4.441   8.952 -0.1219  0.1217  0.0691
  131loPI   C3B 2095  16.842   4.470   8.421 -0.0395 -0.0272 -0.0616
  131loPI   C4B 2096  16.869   4.664   8.025  0.2754  0.0787  0.2194
  132loPI    C1 2097   6.106  15.555   9.390  0.0381  0.1810 -0.0659
  132loPI    C2 2098   6.089  15.266   9.666 -0.0066  0.1828 -0.0669
  132loPI    C3 2099   6.189  15.177   9.289 -0.1389  0.1490 -0.0947
  132loPI   PO4 2100   5.886  15.705   9.481  0.0962  0.2674 -0.0741
  132loPI   GL1 2101   5.619  15.968   9.276  0.0055 -0.3162 -0.2309
  132loPI   GL2 2102   5.793  16.186   9.305 -0.1805 -0.0855 -0.0463
  132loPI   C1A 2103   5.483  15.959   8.888  0.0256  0.1213  0.0310
  132loPI   C2A 2104   5.511  15.886   8.455 -0.1327  0.1541 -0.4016
  132loPI   C3A 2105   5.441  16.055   7.967  0.2280  0.1497 -0.0350
  132loPI   C4A 2106   5.654  16.243   7.609 -0.1455  0.1798  0.1397
  132loPI   C5A 2107   5.935  16.509   7.341  0.2753 -0.2605  0.4935
  132loPI   C6A 2108   6.151  16.952   7.526 -0.3103 -0.2230 -0.1279
  132loPI   C1B 2109   5.966  16.027   8.858 -0.2061  0.2265  0.0031
  132loPI   C2B 2110   5.976  16.061   8.452 -0.0107  0.0993  0.0292
  132loPI   C3B 2111   6.042  16.298   8.153  0.1817  0.4101 -0.0582
  132loPI   C4B 2112   5.965  16.563   7.846  0.1021 -0.0500 -0.0001
  133loPI    C1 2113  15.024  18.186  10.537 -0.1107 -0.0463 -0.0391
  133loPI    C2 2114  14.702  18.391  10.658 -0.2717 -0.2367 -0.1390
  133loPI    C3 2115  14.845  18.092  10.882 -0.0347 -0.0173  0.0085
  133loPI   PO4 2116  15.055  18.214  10.207 -0.1215 -0.3922  0.1649
  133loPI   GL1 2117  15.149  18.279   9.774 -0.1457 -0.0668  0.1654
  133loPI   GL2 2118  15.015  18.471   9.607  0.1888  0.1529  0.1328
  133loPI   C1A 2119  14.973  18.011   9.364 -0.0498 -0.0365  0.0336
  133loPI   C2A 2120  15.200  17.684   9.001 -0.1120  0.1359  0.1655
  133loPI   C3A 2121  15.300  17.424   8.584  0.1093  0.0948  0.0500
  133loPI   C4A 2122  15.430  17.290   8.173 -0.1778 -0.2382  0.0823
  133loPI   C5A 2123  15.463  17.008   7.765  0.0086  0.1326  0.0742
  133loPI   C6A 2124  15.258  16.710   7.520 -0.1031  0.1392 -0.0312
  133loPI   C1B 2125  14.811  18.431   9.187  0.1332  0.1465 -0.4186
  133loPI   C2B 2126  14.696  18.303   8.819 -0.3371  0.0437 -0.0287
  133loPI   C3B 2127  14.818  18.394   8.395 -0.0086 -0.1390 -0.0623
  133loPI   C4B 2128  15.099  18.435   8.063 -0.0533 -0.1492  0.1264
  134loPI    C1 2129   2.638   3.446   9.861 -0.1979  0.1165  0.0146
  134loPI    C2 2130   2.629   3.339  10.246  0.0664 -0.2614 -0.0785
  134loPI    C3 2131   2.305   3.290  10.018 -0.1579  0.1540  0.1381
  134loPI   PO4 2132   2.800   3.405   9.691 -0.0227  0.1033 -0.0838
  134loPI   GL1 2133   2.670   3.098   9.354  0.1332 -0.0634 -0.2484
  134loPI   GL2 2134   3.015   3.045   9.321 -0.2450 -0.2352  0.1240
  134loPI   C1A 2135   2.467   2.953   9.006 -0.0777 -0.0137  0.0231
  134loPI   C2A 2136   2.431   3.154   8.599 -0.3211 -0.2593  0.4114
  134loPI   C3A 2137   2.530   3.367   8.211 -0.2509  0.3003 -0.0501
  134loPI   C4A 2138   2.489   3.381   7.813  0.1387 -0.0705  0.2132
  134loPI   C5A 2139   2.408   3.293   7.444 -0.1617  0.1208 -0.5299
  134loPI   C6A 2140   2.061   3.161   7.165  0.1578  0.1869 -0.1846
  134loPI   C1B 2141   2.945   3.243   8.937  0.2958 -0.1871 -0.3666
  134loPI   C2B 2142   2.869   3.318   8.568 -0.2026 -0.0508 -0.2535
  134loPI   C3B 2143   3.040   3.311   8.137 -0.1591  0.1689 -0.1546
  134loPI   C4B 2144   3.467   3.412   8.131  0.1808 -0.0484 -0.0132
  135loPI    C1 2145  15.636  16.333  10.467  0.1013 -0.1817  0.0512
  135loPI    C2 2146  15.243  16.403  10.463  0.1139 -0.1118  0.0274
  135loPI    C3 2147  15.473  16.570  10.745  0.1278 -0.1451  0.0359
  135loPI   PO4 2148  15.568  16.210  10.130  0.1756  0.2225 -0.0171
  135loPI   GL1 2149  15.386  16.328   9.759 -0.0567  0.0525  0.0591
  135loPI   GL2 2150  15.186  16.156   9.591 -0.1093 -0.0830 -0.0839
  135loPI   C1A 2151  15.695  16.291   9.418 -0.1169 -0.1360  0.2352
  135loPI   C2A 2152  16.023  16.172   9.094  0.0813 -0.2904  0.1271
  135loPI   C3A 2153  15.975  16.217   8.604  0.4407  0.0325  0.1338
  135loPI   C4A 2154  15.975  16.122   8.129  0.1051  0.1427  0.2676
  135loPI   C5A 2155  15.941  16.179   7.683 -0.0728 -0.1723  0.1442
  135loPI   C6A 2156  16.256  16.118   7.373  0.3004  0.0802 -0.0850
  135loPI   C1B 2157  15.245  16.050   9.085  0.0170  0.1638  0.0213
  135loPI   C2B 2158  15.419  16.116   8.704 -0.1970  0.1061  0.1289
  135loPI   C3B 2159  15.534  16.269   8.291  0.1764 -0.1670 -0.0980
  135loPI   C4B 2160  15.707  16.516   7.981  0.3702  0.1499 -0.4130
  136loPI    C1 2161   8.614  15.629   9.920 -0.2283 -0.1508 -0.0601
  136loPI    C2 2162   8.959  15.702   9.731 -0.1453  0.0315  0.1583
  136loPI    C3 2163   8.961  15.547  10.099 -0.2981 -0.0122  0.1416
  136loPI   PO4 2164   8.485  15.431   9.694 -0.1341  0.0291  0.5951
  136loPI   GL1 2165   8.399  15.504   9.275 -0.0160  0.1784  0.1940
  136loPI   GL2 2166   8.168  15.549   9.039 -0.2505 -0.1292 -0.0070
  136loPI   C1A 2167   8.664  15.474   8.928  0.0358 -0.2729  0.3362
  136loPI   C2A 2168   8.678  15.087   8.702  0.1838 -0.1982 -0.0419
  136loPI   C3A 2169   8.924  14.669   8.564  0.2502  0.1529 -0.0189
  136loPI   C4A 2170   9.165  14.338   8.416  0.3174 -0.1083  0.3387
  136loPI   C5A 2171   9.178  14.109   7.965  0.0739 -0.0146 -0.4448
  136loPI   C6A 2172   9.415  13.980   7.602 -0.0457 -0.0405 -0.1079
  136loPI   C1B 2173   8.272  15.617   8.635 -0.2890  0.2333  0.0091
  136loPI   C2B 2174   8.747  15.511   8.385 -0.1408 -0.2075 -0.4089
  136loPI   C3B 2175   8.988  15.422   8.035 -0.0451  0.0910 -0.3111
  136loPI   C4B 2176   9.016  15.145   7.645 -0.4239  0.0133  0.0402
  137loPI    C1 2177  13.421   2.505  10.195 -0.2227 -0.0415  0.2568
  137loPI    C2 2178  13.417   2.819  10.443  0.0732  0.4149 -0.2932
  137loPI    C3 2179  13.701   2.539  10.479 -0.0209  0.3556  0.0188
  137loPI   PO4 2180  13.312   2.702   9.955 -0.1170  0.2238 -0.4782
  137loPI   GL1 2181  13.146   2.757   9.540 -0.0381 -0.4013 -0.0669
  137loPI   GL2 2182  13.271   2.395   9.463 -0.0984  0.1948  0.0975
  137loPI   C1A 2183  13.000   2.904   9.116  0.2534 -0.0121  0.0659
  137loPI   C2A 2184  12.862   2.818   8.759 -0.2960 -0.0283 -0.1350
  137loPI   C3A 2185  12.886   2.378   8.562  0.0556  0.1628 -0.2051
  137loPI   C4A 2186  12.883   2.055   8.327  0.1811 -0.1546  0.4056
  137loPI   C5A 2187  12.776   1.847   7.953 -0.2177  0.0821 -0.2736
  137loPI   C6A 2188  12.768   1.586   7.678 -0.2159  0.0350 -0.1080
  137loPI   C1B 2189  13.236   2.409   9.009  0.1201  0.0775  0.1795
  137loPI   C2B 2190  13.343   2.696   8.632 -0.3118 -0.0986 -0.2727
  137loPI   C3B 2191  13.262   2.707   8.188  0.0104  0.2123  0.2213
  137loPI   C4B 2192  13.173   3.052   7.809  0.2082  0.4545  0.0224
  138loPI    C1 2193   3.399  15.206   9.945 -0.0203  0.1575  0.0797
  138loPI    C2 2194   3.781  15.122  10.026 -0.0449  0.0529  0.0886
  138loPI    C3 2195   3.578  15.377  10.259  0.0472  0.1842  0.0268
  138loPI   PO4 2196   3.451  15.236   9.685 -0.0296 -0.1894 -0.0084
  138loPI   GL1 2197   3.501  15.241   9.270 -0.0335 -0.1470  0.0225
  138loPI   GL2 2198   3.512  14.958   9.241  0.0848  0.0824  0.1287
  138loPI   C1A 2199   3.432  15.423   8.863  0.1503  0.4355  0.1546
  138loPI   C2A 2200   3.255  15.482   8.415 -0.1903 -0.1417 -0.0567
  138loPI   C3A 2201   3.129  15.517   8.077 -0.1699  0.0735 -0.0518
  138loPI   C4A 2202   3.185  15.359   7.663 -0.2692  0.3107 -0.2340
  138loPI   C5A 2203   3.425  15.150   7.308  0.1217 -0.0091  0.0391
  138loPI   C6A 2204   3.560  15.082   6.840 -0.0097 -0.1285  0.2199
  138loPI   C1B 2205   3.606  14.909   8.868 -0.2635 -0.0079 -0.0867
  138loPI   C2B 2206   3.551  14.982   8.607  0.3937 -0.4411  0.1998
  138loPI   C3B 2207   3.723  15.228   8.232 -0.0510 -0.3942 -0.0334
  138loPI   C4B 2208   3.632  15.314   7.798 -0.0867 -0.1878 -0.2341
  139loPI    C1 2209  17.734   3.283  10.453  0.4117  0.1538  0.3040
  139loPI    C2 2210  17.382   3.310  10.641  0.2302  0.0633 -0.0163
  139loPI    C3 2211  17.721   3.301  10.853  0.0434  0.1740  0.2945
  139loPI   PO4 2212  17.751   3.148  10.230 -0.3125 -0.2725  0.0974
  139loPI   GL1 2213  17.750   3.356   9.835 -0.2882 -0.0456  0.1567
  139loPI   GL2 2214  18.074   3.563   9.712  0.0124  0.0842  0.1675
  139loPI   C1A 2215  17.853   3.166   9.459 -0.1162  0.0654 -0.1779
  139loPI   C2A 2216  17.972   3.306   9.075 -0.0112 -0.4399 -0.0256
  139loPI   C3A 2217  17.994   3.640   8.749 -0.1221 -0.0832  0.0541
  139loPI   C4A 2218  17.943   3.770   8.327  0.2353 -0.0354 -0.3404
  139loPI   C5A 2219  17.803   3.709   7.960 -0.1424 -0.0949  0.1841
  139loPI   C6A 2220  17.714   3.915   7.511 -0.1406 -0.2162 -0.0614
  139loPI   C1B 2221  18.300   3.695   9.297 -0.2472  0.2667  0.1058
  139loPI   C2B 2222  18.353   3.969   8.980  0.0420  0.0733 -0.0795
  139loPI   C3B 2223  18.259   4.129   8.517  0.0110 -0.2175 -0.0836
  139loPI   C4B 2224  18.153   4.168   8.097 -0.0512 -0.0765  0.1404
  140loPI    C1 2225  10.500  13.966   9.386 -0.1929  0.0051  0.0032
  140loPI    C2 2226  10.626  14.314   9.539 -0.0641 -0.0119 -0.0633
  140loPI    C3 2227  10.242  14.267   9.439 -0.1132  0.0589  0.0902
  140loPI   PO4 2228  10.744  13.827   9.250  0.1733  0.0966  0.3946
  140loPI   GL1 2229  10.842  13.676   8.852 -0.0056  0.4187 -0.0104
  140loPI   GL2 2230  10.557  13.436   8.943  0.3756  0.0321  0.1965
  140loPI   C1A 2231  11.009  13.458   8.574 -0.2344 -0.0385 -0.0322
  140loPI   C2A 2232  11.052  13.464   8.118 -0.1784  0.3602  0.4097
  140loPI   C3A 2233  11.169  13.458   7.742 -0.1890  0.0146  0.0003
  140loPI   C4A 2234  11.303  13.675   7.384 -0.1554 -0.1972  0.0297
  140loPI   C5A 2235  11.627  13.731   7.207 -0.0607  0.0206 -0.1651
  140loPI   C6A 2236  11.846  14.010   7.125  0.3119  0.1522 -0.0814
  140loPI   C1B 2237  10.506  13.389   8.485 -0.2429  0.1553 -0.4317
  140loPI   C2B 2238  10.542  13.278   8.098 -0.0213  0.1757  0.0347
  140loPI   C3B 2239  10.629  13.499   7.721 -0.2478  0.1893 -0.1355
  140loPI   C4B 2240  10.823  13.569   7.386  0.2952  0.0880  0.1405
  141loPI    C1 2241   6.947   0.609   9.503 -0.0661 -0.2689 -0.1197
  141loPI    C2 2242   7.197   0.298   9.534  0.1891 -0.0537  0.0145
  141loPI    C3 2243   7.142   0.543   9.846  0.0254  0.0627 -0.1042
  141loPI   PO4 2244   6.732   0.536   9.364  0.3249 -0.0722 -0.0865
  141loPI   GL1 2245   6.405   0.568   8.939 -0.0613  0.4355 -0.0245
  141loPI   GL2 2246   6.108   0.679   9.070  0.0544  0.1158  0.0782
  141loPI   C1A 2247   6.448   0.609   8.503  0.0411 -0.2775  0.1801
  141loPI   C2A 2248   6.287   0.746   8.159 -0.1823 -0.1354 -0.0459
  141loPI   C3A 2249   6.330   0.658   7.750 -0.0310  0.1252  0.0257
  141loPI   C4A 2250   6.542   0.858   7.427  0.2245  0.0116  0.2946
  141loPI   C5A 2251   6.906   0.893   7.223  0.3943 -0.0893 -0.1005
  141loPI   C6A 2252   7.134   0.540   7.095 -0.2417  0.1168 -0.2185
  141loPI   C1B 2253   5.973   0.858   8.664 -0.2325  0.2843  0.1694
  141loPI   C2B 2254   5.812   0.736   8.398  0.1828  0.3883 -0.3815
  141loPI   C3B 2255   5.749   0.619   8.042  0.1345 -0.0554  0.0110
  141loPI   C4B 2256   5.606   0.641   7.628  0.2139  0.3615 -0.1905
  142loPI    C1 2257  16.219   2.815  10.087  0.1894  0.0818  0.0504
  142loPI    C2 2258  16.368   2.532   9.847 -0.2068 -0.1001  0.0108
  142loPI    C3 2259  16.156   2.429  10.170  0.0117  0.1494  0.2386
  142loPI   PO4 2260  16.117   2.956   9.947 -0.2381 -0.0196 -0.1136
  142loPI   GL1 2261  15.963   3.173   9.689 -0.0770 -0.1062 -0.5165
  142loPI   GL2 2262  15.696   3.033   9.686 -0.0425  0.0608 -0.2815
  142loPI   C1A 2263  16.053   3.066   9.306 -0.2733  0.0262  0.3635
  142loPI   C2A 2264  16.250   2.933   9.019 -0.0191  0.2849  0.1554
  142loPI   C3A 2265  16.692   2.761   8.974 -0.0651 -0.0634  0.1422
  142loPI   C4A 2266  16.852   2.519   8.658  0.4154  0.2171 -0.0539
  142loPI   C5A 2267  16.701   2.301   8.276 -0.2089 -0.1457 -0.0213
  142loPI   C6A 2268  16.327   2.139   7.918  0.1425 -0.0869 -0.0995
  142loPI   C1B 2269  15.586   2.951   9.283 -0.2387  0.1724 -0.4544
  142loPI   C2B 2270  15.653   2.874   8.889  0.0475 -0.0436  0.0283
  142loPI   C3B 2271  15.571   2.885   8.504 -0.0081  0.1064 -0.0708
  142loPI   C4B 2272  15.322   3.003   8.189  0.1462  0.2257  0.0223
  143loPI    C1 2273   7.153  18.810   9.454  0.0043 -0.2315 -0.0039
  143loPI    C2 2274   7.307  18.557   9.722 -0.1602 -0.3733 -0.0409
  143loPI    C3 2275   6.944  18.489   9.570 -0.1743 -0.1547 -0.1086
  143loPI   PO4 2276   7.320  18.836   9.271 -0.0259  0.0446 -0.0858
  143loPI   GL1 2277   7.294  19.014   8.944 -0.0627  0.0098 -0.1558
  143loPI   GL2 2278   6.968  19.232   8.986  0.3911 -0.2457 -0.1968
  143loPI   C1A 2279   7.184  18.990   8.459  0.2615 -0.1087 -0.1268
  143loPI   C2A 2280   7.284  19.225   8.148  0.1482 -0.0552  0.1414
  143loPI   C3A 2281   7.319  19.451   7.809  0.0316  0.0165 -0.1136
  143loPI   C4A 2282   6.913  19.619   7.688  0.0632 -0.0058 -0.2873
  143loPI   C5A 2283   6.713  19.468   7.280  0.1908  0.4672  0.1535
  143loPI   C6A 2284   6.278  19.537   7.215  0.1230  0.0849 -0.2335
  143loPI   C1B 2285   6.969  19.468   8.613  0.1293  0.2856 -0.0468
  143loPI   C2B 2286   6.869  19.561   8.268 -0.0434 -0.3201  0.0870
  143loPI   C3B 2287   6.699  19.924   7.972  0.0537 -0.0877  0.2081
  143loPI   C4B 2288   6.455  20.238   7.813 -0.1125  0.1120  0.0803
  144loPI    C1 2289  18.467   4.211  10.328 -0.1248 -0.1006 -0.1525
  144loPI    C2 2290  18.442   4.191  10.727 -0.1554 -0.2367 -0.1607
  144loPI    C3 2291  18.222   3.945  10.500 -0.1223 -0.1742 -0.2613
  144loPI   PO4 2292  18.387   4.350  10.265 -0.2250  0.2391  0.1311
  144loPI   GL1 2293  18.163   4.185   9.936 -0.3306  0.1877 -0.0795
  144loPI   GL2 2294  18.166   4.399   9.765 -0.0237  0.2806  0.0353
  144loPI   C1A 2295  18.036   4.061   9.508 -0.1961  0.3891  0.2587
  144loPI   C2A 2296  17.915   4.150   9.056  0.0562 -0.1186  0.0597
  144loPI   C3A 2297  17.811   4.156   8.620 -0.1885  0.0523 -0.3454
  144loPI   C4A 2298  17.661   4.191   8.210  0.0620 -0.2987  0.2033
  144loPI   C5A 2299  17.573   4.381   7.739  0.0209  0.1844 -0.0460
  144loPI   C6A 2300  17.327   4.391   7.406  0.5752  0.0841  0.2539
  144loPI   C1B 2301  18.193   4.511   9.370  0.0690 -0.3450  0.2882
  144loPI   C2B 2302  18.141   4.516   8.798  0.0405 -0.0263 -0.0373
  144loPI   C3B 2303  18.405   4.575   8.377  0.0252  0.0261 -0.2999
  144loPI   C4B 2304  18.516   4.609   7.979 -0.0605  0.0252  0.0063
  145loPI    C1 2305  17.550   9.604  10.446 -0.1642 -0.2112 -0.0009
  145loPI    C2 2306  17.936   9.705  10.420 -0.2075 -0.0490 -0.0242
  145loPI    C3 2307  17.806   9.493  10.733 -0.0754 -0.2168 -0.0817
  145loPI   PO4 2308  17.388   9.845  10.431  0.0064 -0.1403 -0.0843
  145loPI   GL1 2309  17.590  10.084  10.096 -0.1664  0.3995  0.0785
  145loPI   GL2 2310  17.518  10.362   9.970  0.3168 -0.1551 -0.1527
  145loPI   C1A 2311  17.601   9.946   9.682  0.0030  0.3326 -0.0577
  145loPI   C2A 2312  17.405   9.885   9.223  0.0237  0.2419 -0.1820
  145loPI   C3A 2313  17.439   9.994   8.878 -0.1949 -0.1490 -0.1627
  145loPI   C4A 2314  17.468  10.158   8.380 -0.0498 -0.0976 -0.3847
  145loPI   C5A 2315  17.499   9.921   7.992 -0.2112  0.0928 -0.1566
  145loPI   C6A 2316  17.775   9.815   7.564  0.0790 -0.0103 -0.5730
  145loPI   C1B 2317  17.800  10.433   9.501  0.1400  0.0765 -0.2454
  145loPI   C2B 2318  17.723  10.421   9.054 -0.1048  0.3643  0.1819
  145loPI   C3B 2319  17.773  10.418   8.674  0.0291  0.0440  0.0377
  145loPI   C4B 2320  18.229  10.343   8.547  0.1325 -0.1853 -0.0840
  146loPI    C1 2321  15.823  12.215   9.974 -0.0383  0.1415  0.0557
  146loPI    C2 2322  15.613  11.908   9.829  0.2766 -0.0654  0.0289
  146loPI    C3 2323  15.565  12.021  10.209 -0.2199  0.1895 -0.1010
  146loPI   PO4 2324  16.136  12.133   9.861  0.0976 -0.0820  0.0390
  146loPI   GL1 2325  16.236  12.120   9.464  0.2153 -0.2149 -0.1796
  146loPI   GL2 2326  15.871  12.095   9.375  0.0168 -0.2103 -0.2721
  146loPI   C1A 2327  16.215  11.744   9.195  0.1894  0.1780 -0.0551
  146loPI   C2A 2328  16.248  11.592   8.850 -0.0120  0.1738  0.0065
  146loPI   C3A 2329  16.254  11.380   8.411 -0.1066 -0.0162  0.0569
  146loPI   C4A 2330  16.422  11.086   8.056 -0.1051 -0.0644 -0.2860
  146loPI   C5A 2331  16.525  10.660   7.864 -0.1891  0.1806  0.0476
  146loPI   C6A 2332  16.580  10.353   8.171  0.1422 -0.0743 -0.2117
  146loPI   C1B 2333  15.908  12.183   9.020 -0.0549  0.0544  0.1173
  146loPI   C2B 2334  15.974  11.945   8.597 -0.1152 -0.1926 -0.1250
  146loPI   C3B 2335  16.175  11.837   8.251  0.0741 -0.1121 -0.1558
  146loPI   C4B 2336  16.577  11.746   8.187 -0.1038  0.2258  0.0719
  147loPI    C1 2337  12.635   7.966  10.219 -0.0694 -0.0108  0.0170
  147loPI    C2 2338  12.514   8.234   9.948  0.5080  0.0047 -0.2391
  147loPI    C3 2339  12.627   8.355  10.312 -0.2099 -0.0101  0.0053
  147loPI   PO4 2340  12.823   7.800  10.121  0.4074 -0.0684 -0.1832
  147loPI   GL1 2341  12.829   7.729   9.586 -0.2512  0.0645  0.0256
  147loPI   GL2 2342  12.779   7.582   9.323 -0.2596 -0.1254 -0.3239
  147loPI   C1A 2343  13.032   8.059   9.283  0.0525  0.0773 -0.1181
  147loPI   C2A 2344  12.828   8.028   8.908 -0.0166 -0.0523 -0.1248
  147loPI   C3A 2345  12.840   7.824   8.488 -0.1207  0.1907 -0.0823
  147loPI   C4A 2346  12.810   7.406   8.327 -0.0091  0.1524 -0.1798
  147loPI   C5A 2347  12.978   7.232   7.986 -0.1108  0.1706  0.0671
  147loPI   C6A 2348  13.380   6.967   7.900 -0.1363  0.0741  0.0005
  147loPI   C1B 2349  12.618   7.510   8.963  0.0382 -0.0265 -0.1831
  147loPI   C2B 2350  12.411   7.689   8.677  0.0807 -0.0885 -0.4151
  147loPI   C3B 2351  12.273   7.650   8.393  0.0057 -0.0309  0.4365
  147loPI   C4B 2352  12.437   7.471   7.983  0.2018  0.0056  0.0890
  148loPI    C1 2353   1.932   1.528  10.144 -0.0049  0.1753 -0.0999
  148loPI    C2 2354   1.719   1.674  10.449  0.0281  0.0952 -0.0380
  148loPI    C3 2355   2.119   1.664  10.471  0.0216 -0.1125  0.0088
  148loPI   PO4 2356   1.713   1.647   9.823  0.0953  0.1079  0.3415
  148loPI   GL1 2357   1.805   1.556   9.409  0.0425 -0.1868 -0.0336
  148loPI   GL2 2358   1.928   1.217   9.380 -0.0181  0.0765 -0.3845
  148loPI   C1A 2359   1.608   1.438   8.971 -0.3585 -0.0851 -0.2385
  148loPI   C2A 2360   1.573   1.397   8.494 -0.0576  0.2202  0.2267
  148loPI   C3A 2361   1.803   1.419   8.171  0.2366  0.2982  0.2351
  148loPI   C4A 2362   1.845   1.267   7.829  0.0988  0.0598  0.2931
  148loPI   C5A 2363   1.702   0.808   7.806  0.0366  0.1677  0.0212
  148loPI   C6A 2364   1.462   0.528   7.859  0.1446 -0.3816  0.2765
  148loPI   C1B 2365   2.026   0.948   9.083 -0.2159 -0.3093  0.3296
  148loPI   C2B 2366   1.676   0.973   8.744 -0.3688 -0.0947 -0.0041
  148loPI   C3B 2367   1.432   0.690   8.539  0.1386 -0.0191 -0.1206
  148loPI   C4B 2368   1.446   0.369   8.308 -0.0907  0.1857  0.5700
  149loPI    C1 2369   7.271  16.181   9.649 -0.1124  0.0189 -0.2308
  149loPI    C2 2370   7.634  16.012   9.636  0.0247  0.2971 -0.0893
  149loPI    C3 2371   7.307  15.783   9.623  0.2068  0.0152  0.1660
  149loPI   PO4 2372   7.350  16.455   9.728  0.1017  0.0558 -0.4409
  149loPI   GL1 2373   7.284  16.628   9.375 -0.1998 -0.0875 -0.1132
  149loPI   GL2 2374   7.429  16.932   9.388 -0.3020  0.1450 -0.0250
  149loPI   C1A 2375   7.420  16.713   8.941 -0.1183  0.0203  0.1780
  149loPI   C2A 2376   7.566  16.789   8.561 -0.1351 -0.1720 -0.2144
  149loPI   C3A 2377   7.640  16.686   8.165  0.2766 -0.1518 -0.3256
  149loPI   C4A 2378   7.793  16.478   7.899  0.0351 -0.1875 -0.2547
  149loPI   C5A 2379   7.898  16.560   7.527 -0.2060 -0.3955  0.0386
  149loPI   C6A 2380   8.151  16.922   7.331 -0.0383  0.2388  0.0353
  149loPI   C1B 2381   7.067  17.008   9.112 -0.1660  0.1726 -0.0933
  149loPI   C2B 2382   7.021  17.020   8.652 -0.1412 -0.2080 -0.0445
  149loPI   C3B 2383   6.866  17.032   8.360 -0.0377 -0.4858 -0.0589
  149loPI   C4B 2384   6.784  17.043   8.017 -0.0181  0.0314  0.0271
  150loPI    C1 2385   2.058   0.706  10.249  0.0524 -0.0127  0.0747
  150loPI    C2 2386   2.303   0.417  10.378 -0.0836 -0.1233  0.0865
  150loPI    C3 2387   2.113   0.652  10.641  0.0475 -0.0050  0.0764
  150loPI   PO4 2388   2.083   0.636   9.917  0.0571  0.0607 -0.0693
  150loPI   GL1 2389   2.456   0.622   9.626  0.0814  0.1736  0.0142
  150loPI   GL2 2390   2.273   0.382   9.533  0.2510  0.0142  0.0320
  150loPI   C1A 2391   2.577   0.633   9.157  0.1621 -0.0857  0.0397
  150loPI   C2A 2392   2.436   0.861   8.782 -0.1712  0.1387  0.0951
  150loPI   C3A 2393   2.188   0.882   8.426  0.1803  0.0023  0.1864
  150loPI   C4A 2394   1.776   0.964   8.289 -0.0562  0.2270 -0.1055
  150loPI   C5A 2395   1.378   1.032   8.081  0.2530 -0.3841  0.0623
  150loPI   C6A 2396   1.358   1.510   7.917  0.3737  0.2203  0.0328
  150loPI   C1B 2397   2.184   0.186   9.169  0.1060 -0.0947  0.1144
  150loPI   C2B 2398   2.346   0.321   8.748 -0.1206 -0.0756 -0.1039
  150loPI   C3B 2399   2.405   0.382   8.397 -0.1433  0.1809  0.1913
  150loPI   C4B 2400   2.404   0.285   7.881  0.0867 -0.1526  0.1929
  151loPI    C1 2401  17.277   5.421  10.357 -0.0763 -0.0755 -0.0577
  151loPI    C2 2402  17.495   5.086  10.330 -0.0630 -0.0874  0.1708
  151loPI    C3 2403  17.259   5.146  10.648 -0.0102  0.1532  0.1667
  151loPI   PO4 2404  17.169   5.432  10.084 -0.1070 -0.1421  0.1543
  151loPI   GL1 2405  17.197   5.346   9.640 -0.2020 -0.4290 -0.1687
  151loPI   GL2 2406  17.158   4.976   9.675 -0.2738 -0.1322 -0.0382
  151loPI   C1A 2407  16.914   5.278   9.295  0.0296  0.0680  0.1843
  151loPI   C2A 2408  16.854   4.934   9.085 -0.0311  0.0138  0.0799
  151loPI   C3A 2409  17.017   4.897   8.614  0.0439  0.0096  0.1660
  151loPI   C4A 2410  17.248   5.094   8.249  0.0838 -0.2775 -0.2089
  151loPI   C5A 2411  17.566   5.052   7.951  0.0240 -0.1020 -0.1364
  151loPI   C6A 2412  17.658   4.927   7.614 -0.3089  0.2020 -0.2021
  151loPI   C1B 2413  17.264   4.843   9.320  0.1579 -0.0006  0.0380
  151loPI   C2B 2414  17.334   5.007   9.007 -0.0669 -0.1411 -0.0418
  151loPI   C3B 2415  17.357   5.460   9.148  0.0989 -0.2792 -0.2993
  151loPI   C4B 2416  17.040   5.756   9.364  0.1193 -0.2286 -0.2585
  152loPI    C1 2417  11.097  11.320   9.840  0.1295 -0.0370 -0.0653
  152loPI    C2 2418  11.397  11.520  10.013 -0.0316  0.1923 -0.0475
  152loPI    C3 2419  11.386  11.479   9.615  0.0372  0.1613 -0.0462
  152loPI   PO4 2420  10.872  11.261   9.924 -0.0660  0.1214 -0.1432
  152loPI   GL1 2421  10.669  11.096   9.588  0.2015  0.1248  0.2626
  152loPI   GL2 2422  10.901  10.867   9.598 -0.0155  0.1041 -0.0090
  152loPI   C1A 2423  10.574  11.283   9.194  0.0586  0.0057 -0.0922
  152loPI   C2A 2424  10.816  11.329   8.937  0.2554 -0.2671 -0.0336
  152loPI   C3A 2425  10.782  11.198   8.533  0.0285 -0.0159 -0.2808
  152loPI   C4A 2426  10.857  10.988   8.126  0.2095  0.0982 -0.1546
  152loPI   C5A 2427  10.873  11.237   7.748 -0.0515  0.1949 -0.0777
  152loPI   C6A 2428  10.735  11.245   7.303 -0.1092 -0.1062  0.1577
  152loPI   C1B 2429  11.235  11.063   9.304  0.2222 -0.0351 -0.0155
  152loPI   C2B 2430  11.247  11.045   8.880 -0.2818  0.1598  0.1954
  152loPI   C3B 2431  11.293  11.161   8.343  0.3374 -0.3620 -0.0591
  152loPI   C4B 2432  11.357  11.293   7.967 -0.0498  0.0809 -0.1114
  153loPI    C1 2433   9.922  12.230   9.858  0.1142 -0.2906 -0.1537
  153loPI    C2 2434   9.559  12.066   9.898  0.0106 -0.0737 -0.1855
  153loPI    C3 2435   9.875  11.900  10.079 -0.1727 -0.0332  0.1816
  153loPI   PO4 2436   9.915  12.298   9.634  0.1232 -0.0545 -0.0866
  153loPI   GL1 2437  10.052  12.158   9.264  0.0774 -0.0715  0.1497
  153loPI   GL2 2438   9.897  12.383   9.128  0.1166 -0.2658  0.1490
  153loPI   C1A 2439  10.186  11.963   8.898 -0.0039 -0.2754 -0.1858
  153loPI   C2A 2440   9.974  11.879   8.551 -0.0775  0.1360  0.2133
  153loPI   C3A 2441   9.689  11.929   8.249 -0.2325  0.0568  0.1574
  153loPI   C4A 2442   9.539  12.223   7.957 -0.0280 -0.1430  0.1461
  153loPI   C5A 2443   9.375  12.666   7.673  0.0509 -0.0596 -0.3284
  153loPI   C6A 2444   9.520  12.929   7.312 -0.0696  0.3304  0.2034
  153loPI   C1B 2445   9.741  12.391   8.643 -0.0542 -0.2580 -0.0946
  153loPI   C2B 2446   9.367  12.511   8.436  0.0286  0.2265  0.0279
  153loPI   C3B 2447   9.407  12.809   8.148 -0.0151  0.0641  0.1215
  153loPI   C4B 2448   9.470  13.209   8.221 -0.1052 -0.2128  0.0942
  154loPI    C1 2449  16.461  17.708  10.311 -0.2762  0.1225 -0.2750
  154loPI    C2 2450  16.307  17.998  10.539 -0.0827 -0.0539  0.0881
  154loPI    C3 2451  16.678  17.866  10.607 -0.1833 -0.4174 -0.0437
  154loPI   PO4 2452  16.298  17.688  10.108 -0.2173  0.0960 -0.1049
  154loPI   GL1 2453  16.426  17.588   9.669  0.3029  0.0218 -0.0545
  154loPI   GL2 2454  16.348  17.238   9.748 -0.0979  0.2266  0.2853
  154loPI   C1A 2455  15.906  17.594   9.495 -0.1411  0.1029 -0.0270
  154loPI   C2A 2456  15.682  17.658   9.053  0.1192  0.2091 -0.0376
  154loPI   C3A 2457  15.755  17.595   8.602 -0.1324 -0.0900  0.2794
  154loPI   C4A 2458  15.927  17.561   8.191  0.0241  0.2233 -0.4092
  154loPI   C5A 2459  16.102  17.532   7.791 -0.2147  0.2590  0.0084
  154loPI   C6A 2460  16.340  17.836   7.621 -0.2266 -0.0502 -0.1361
  154loPI   C1B 2461  16.393  17.136   9.237  0.0534 -0.2776 -0.0564
  154loPI   C2B 2462  16.301  17.251   8.916  0.2348 -0.4133  0.1618
  154loPI   C3B 2463  16.393  17.197   8.586 -0.1426 -0.1912  0.1056
  154loPI   C4B 2464  16.343  17.189   8.149 -0.1092 -0.0171  0.1064
  155loPI    C1 2465  14.959  12.626   9.932  0.1869  0.1294 -0.0621
  155loPI    C2 2466  15.010  12.982  10.106  0.1934  0.1356 -0.0768
  155loPI    C3 2467  15.090  12.647  10.309  0.2982  0.1455 -0.1015
  155loPI   PO4 2468  15.080  12.572   9.810 -0.0618  0.1899  0.3428
  155loPI   GL1 2469  15.268  12.534   9.462 -0.1873  0.0267  0.0231
  155loPI   GL2 2470  15.488  12.330   9.585 -0.2399 -0.1752 -0.0692
  155loPI   C1A 2471  15.225  12.343   9.013 -0.0983 -0.0103  0.2429
  155loPI   C2A 2472  15.391  12.288   8.602  0.1928 -0.0233  0.2469
  155loPI   C3A 2473  15.264  12.384   8.218 -0.4148 -0.0873 -0.1793
  155loPI   C4A 2474  15.351  12.535   7.736  0.0274  0.1033  0.0987
  155loPI   C5A 2475  15.184  12.274   7.398  0.0123 -0.3226  0.1894
  155loPI   C6A 2476  14.781  12.103   7.386 -0.3421  0.0522  0.1482
  155loPI   C1B 2477  15.784  12.570   9.211  0.0773 -0.0481 -0.1466
  155loPI   C2B 2478  15.879  12.659   8.808  0.2010 -0.0342  0.0514
  155loPI   C3B 2479  16.036  12.474   8.604 -0.1602 -0.0547  0.2913
  155loPI   C4B 2480  16.005  12.561   8.173  0.2333  0.2246  0.2806
  156loPI    C1 2481   3.117  14.413  10.120 -0.2224 -0.0121  0.1698
  156loPI    C2 2482   3.514  14.371  10.150 -0.2063 -0.0349 -0.0606
  156loPI    C3 2483   3.273  14.177  10.403 -0.0660  0.1141  0.1908
  156loPI   PO4 2484   3.096  14.448   9.846 -0.1197  0.0163  0.0082
  156loPI   GL1 2485   2.855  14.468   9.625  0.2353  0.1325 -0.2276
  156loPI   GL2 2486   2.498  14.392   9.622 -0.0803  0.1258  0.2211
  156loPI   C1A 2487   2.812  14.456   9.165 -0.2896  0.1203  0.0877
  156loPI   C2A 2488   2.824  14.517   8.775  0.0357 -0.1351  0.0958
  156loPI   C3A 2489   2.844  14.599   8.275 -0.0869 -0.1205 -0.1221
  156loPI   C4A 2490   2.827  14.591   7.926  0.0286 -0.0923 -0.2352
  156loPI   C5A 2491   2.787  14.859   7.517 -0.1159 -0.3393  0.2645
  156loPI   C6A 2492   2.804  15.150   7.175  0.1202 -0.2432 -0.2266
  156loPI   C1B 2493   2.435  14.799   9.435  0.4165 -0.1476 -0.2445
  156loPI   C2B 2494   2.124  15.064   9.238 -0.2071  0.0124  0.2311
  156loPI   C3B 2495   2.034  15.019   8.818  0.2447  0.0778  0.1939
  156loPI   C4B 2496   1.762  15.267   8.667 -0.0841  0.2049  0.2385
  157loPI    C1 2497  12.242  18.773  10.376 -0.0891  0.2372 -0.0062
  157loPI    C2 2498  12.036  18.730  10.717 -0.0107  0.1384  0.0292
  157loPI    C3 2499  12.428  18.811  10.728  0.0268 -0.0285 -0.0358
  157loPI   PO4 2500  12.128  18.749  10.208 -0.1615  0.1917 -0.2363
  157loPI   GL1 2501  11.997  18.410   9.965 -0.0269 -0.0655 -0.1542
  157loPI   GL2 2502  12.283  18.411   9.803  0.0108 -0.1063  0.2569
  157loPI   C1A 2503  11.882  18.372   9.540  0.0699  0.0367 -0.1458
  157loPI   C2A 2504  11.768  18.426   9.166  0.1055 -0.1598  0.1540
  157loPI   C3A 2505  11.639  18.413   8.678  0.0226  0.2715 -0.2047
  157loPI   C4A 2506  11.628  18.230   8.346 -0.1935  0.1988  0.4718
  157loPI   C5A 2507  11.491  18.169   7.838  0.0874  0.3085  0.2489
  157loPI   C6A 2508  11.515  17.854   7.675  0.0620 -0.1681 -0.0748
  157loPI   C1B 2509  12.427  18.675   9.492  0.0454  0.1164  0.1075
  157loPI   C2B 2510  12.499  18.704   9.046 -0.0466  0.2344  0.0238
  157loPI   C3B 2511  12.556  18.573   8.564  0.2106  0.0462  0.1691
  157loPI   C4B 2512  12.643  18.327   8.239 -0.0838  0.0002  0.1882
  158loPI    C1 2513   1.307   1.638  10.062  0.1246  0.0202 -0.0059
  158loPI    C2 2514   1.509   1.326  10.211 -0.2196 -0.2546 -0.1043
  158loPI    C3 2515   1.188   1.467  10.404  0.0386  0.1594  0.0346
  158loPI   PO4 2516   1.176   1.634   9.825  0.0107  0.0787  0.0249
  158loPI   GL1 2517   1.270   1.515   9.415  0.0860  0.1296 -0.4432
  158loPI   GL2 2518   1.036   1.257   9.510 -0.0334  0.1501  0.0313
  158loPI   C1A 2519   1.098   1.662   9.014  0.0093  0.3178  0.2751
  158loPI   C2A 2520   1.302   1.800   8.659 -0.0948 -0.0420  0.2936
  158loPI   C3A 2521   1.469   1.826   8.253  0.3082 -0.1535  0.1585
  158loPI   C4A 2522   1.605   2.051   7.867 -0.0650  0.2166  0.4729
  158loPI   C5A 2523   1.636   2.139   7.393 -0.0271 -0.0013 -0.0675
  158loPI   C6A 2524   1.563   2.385   6.975  0.3764 -0.0290 -0.3389
  158loPI   C1B 2525   0.647   1.304   9.176  0.0398  0.1475 -0.0310
  158loPI   C2B 2526   0.611   0.997   8.850  0.0401 -0.2466 -0.0802
  158loPI   C3B 2527   0.606   0.848   8.435 -0.0677  0.4274  0.3405
  158loPI   C4B 2528   0.535   0.612   7.986  0.0399  0.1529 -0.2204
  159loPI    C1 2529  10.102   9.828   9.774 -0.1069 -0.3896 -0.1050
  159loPI    C2 2530   9.820   9.828  10.058 -0.1276 -0.2697 -0.1249
  159loPI    C3 2531   9.717   9.872   9.674 -0.0747 -0.1341 -0.1242
  159loPI   PO4 2532  10.302   9.566   9.818  0.0606  0.0029 -0.2176
  159loPI   GL1 2533  10.572   9.519   9.564 -0.0459 -0.0410  0.1405
  159loPI   GL2 2534  10.704   9.194   9.507  0.0873 -0.3060 -0.3028
  159loPI   C1A 2535  10.731   9.632   9.135 -0.3305 -0.0518  0.0007
  159loPI   C2A 2536  10.723   9.971   8.755  0.4574 -0.3683  0.2576
  159loPI   C3A 2537  10.745  10.171   8.390  0.2006 -0.1050 -0.1428
  159loPI   C4A 2538  10.956  10.376   8.010 -0.1074  0.0342  0.0643
  159loPI   C5A 2539  10.902  10.724   7.645 -0.0325 -0.1504  0.2919
  159loPI   C6A 2540  10.539  10.814   7.433  0.1346 -0.1365 -0.2585
  159loPI   C1B 2541  10.672   8.785   9.307 -0.2153 -0.1494  0.2032
  159loPI   C2B 2542  10.730   8.400   8.995  0.2166  0.1241  0.1874
  159loPI   C3B 2543  10.654   8.345   8.550  0.2453  0.1326  0.0114
  159loPI   C4B 2544  10.588   8.540   8.121 -0.3124  0.3385 -0.1581
  160loPI    C1 2545  12.220   0.201  10.530 -0.1397 -0.2511  0.3322
  160loPI    C2 2546  12.512   0.394  10.724 -0.0156 -0.1137  0.0145
  160loPI    C3 2547  12.599   0.163  10.409 -0.2443 -0.1122 -0.0517
  160loPI   PO4 2548  12.019   0.287  10.397 -0.1211 -0.2451 -0.1420
  160loPI   GL1 2549  12.077   0.156  10.039  0.0265 -0.0166  0.3122
  160loPI   GL2 2550  12.047   0.510   9.875  0.0814  0.0141 -0.2453
  160loPI   C1A 2551  11.892   0.110   9.648  0.1325  0.3214  0.0941
  160loPI   C2A 2552  11.776  -0.062   9.373 -0.0008  0.4672 -0.1110
  160loPI   C3A 2553  11.928  -0.116   8.879 -0.1579  0.1616  0.1013
  160loPI   C4A 2554  12.162  -0.161   8.584  0.2928 -0.0476 -0.2622
  160loPI   C5A 2555  12.303  -0.226   8.213 -0.0605  0.2283  0.0272
  160loPI   C6A 2556  12.550  -0.424   7.829 -0.3154 -0.1513 -0.1215
  160loPI   C1B 2557  12.158   0.515   9.433  0.0489  0.3535 -0.2238
  160loPI   C2B 2558  12.519   0.538   9.271  0.3693 -0.1190 -0.0252
  160loPI   C3B 2559  12.681   0.527   8.773 -0.0405 -0.1848 -0.4002
  160loPI   C4B 2560  12.624   0.770   8.345 -0.0628  0.2779 -0.0203
  161loPI    C1 2561  14.178   0.425  10.096  0.0406 -0.0610 -0.1492
  161loPI    C2 2562  14.183   0.470  10.493  0.0392  0.1406 -0.1708
  161loPI    C3 2563  14.337   0.141  10.327  0.1087  0.0899 -0.0082
  161loPI   PO4 2564  14.316   0.550   9.966 -0.2655 -0.1045 -0.3534
  161loPI   GL1 2565  14.533   0.461   9.632 -0.0339  0.2121 -0.0160
  161loPI   GL2 2566  14.778   0.664   9.743 -0.2278 -0.1702  0.1649
  161loPI   C1A 2567  14.582   0.289   9.113 -0.1985 -0.3236 -0.0720
  161loPI   C2A 2568  14.655  -0.032   8.774  0.1725 -0.0884 -0.1379
  161loPI   C3A 2569  14.882  -0.195   8.511  0.0014 -0.1084 -0.0969
  161loPI   C4A 2570  15.306  -0.137   8.185 -0.3058  0.1579 -0.3281
  161loPI   C5A 2571  15.748   0.028   8.098  0.1030 -0.1506 -0.0081
  161loPI   C6A 2572  16.223   0.114   8.135 -0.0967  0.0163  0.3394
  161loPI   C1B 2573  14.886   0.715   9.392 -0.1433  0.2227 -0.2305
  161loPI   C2B 2574  14.700   0.735   9.046 -0.2773  0.0090  0.4562
  161loPI   C3B 2575  14.478   0.554   8.693 -0.1238  0.0218 -0.1537
  161loPI   C4B 2576  14.103   0.598   8.450  0.0677 -0.0385  0.1470
  162loPI    C1 2577   0.724   7.386   9.828 -0.0935  0.1318  0.0034
  162loPI    C2 2578   0.601   7.680  10.070 -0.1459  0.0539  0.0718
  162loPI    C3 2579   0.405   7.331  10.062 -0.0917  0.0251 -0.0186
  162loPI   PO4 2580   0.748   7.465   9.599 -0.1484  0.0916  0.1721
  162loPI   GL1 2581   0.861   7.167   9.151 -0.1724 -0.1706  0.4041
  162loPI   GL2 2582   0.606   6.946   9.151 -0.0481  0.0616 -0.0760
  162loPI   C1A 2583   1.027   7.179   8.781  0.0292  0.1402  0.0387
  162loPI   C2A 2584   1.369   7.481   8.510  0.1553 -0.0521 -0.1243
  162loPI   C3A 2585   1.456   7.519   8.166  0.2798  0.1916  0.1726
  162loPI   C4A 2586   1.660   7.312   7.816  0.0729 -0.0555  0.0250
  162loPI   C5A 2587   2.084   7.333   7.876  0.0745 -0.0385  0.0449
  162loPI   C6A 2588   2.292   7.402   7.465 -0.2160 -0.0435  0.0087
  162loPI   C1B 2589   0.520   7.221   8.770  0.2657  0.2516  0.2084
  162loPI   C2B 2590   0.660   7.540   8.658 -0.4705  0.0736  0.0603
  162loPI   C3B 2591   0.732   7.669   8.371 -0.2745 -0.1325 -0.1577
  162loPI   C4B 2592   0.997   7.671   8.111 -0.3453 -0.0813 -0.0703
  163loPI    C1 2593   9.812   3.841  10.011 -0.1208  0.0649  0.0454
  163loPI    C2 2594   9.735   4.207   9.867  0.1593  0.0958 -0.0318
  163loPI    C3 2595  10.095   4.124  10.021  0.0569 -0.1128  0.0996
  163loPI   PO4 2596   9.662   3.641   9.733  0.3444  0.0333  0.0955
  163loPI   GL1 2597   9.724   3.412   9.341 -0.0664  0.1282  0.1560
  163loPI   GL2 2598  10.013   3.275   9.394  0.0199 -0.1373  0.1210
  163loPI   C1A 2599   9.433   3.301   8.967 -0.2244  0.2079  0.2901
  163loPI   C2A 2600   9.457   3.463   8.611  0.0036  0.0969 -0.0475
  163loPI   C3A 2601   9.683   3.503   8.286 -0.0266  0.0865 -0.1089
  163loPI   C4A 2602  10.148   3.353   8.181  0.2837  0.1629  0.3244
  163loPI   C5A 2603  10.578   3.367   8.080  0.1579 -0.0927 -0.0753
  163loPI   C6A 2604  10.844   3.091   7.905 -0.0761  0.0113 -0.0264
  163loPI   C1B 2605  10.072   3.400   9.006  0.1242  0.0365  0.0916
  163loPI   C2B 2606  10.035   3.341   8.637  0.1739  0.0747  0.1899
  163loPI   C3B 2607   9.876   3.038   8.434  0.0339 -0.2353 -0.0371
  163loPI   C4B 2608   9.862   2.561   8.610  0.0174  0.0848 -0.0785
  164loPI    C1 2609  12.817  17.672  10.054 -0.1190  0.0972  0.0276
  164loPI    C2 2610  13.046  17.586  10.371  0.0465 -0.0788 -0.1372
  164loPI    C3 2611  12.844  17.931  10.358 -0.0941 -0.1433  0.2334
  164loPI   PO4 2612  12.933  17.659   9.890  0.2303  0.0551  0.2137
  164loPI   GL1 2613  13.112  17.952   9.614 -0.2261  0.0429  0.1466
  164loPI   GL2 2614  13.243  18.201   9.720  0.4868  0.0451 -0.0009
  164loPI   C1A 2615  12.945  17.791   9.299  0.3549 -0.0814 -0.0480
  164loPI   C2A 2616  12.627  17.563   9.070  0.1192 -0.0335 -0.3329
  164loPI   C3A 2617  12.773  17.359   8.720  0.0496 -0.0517 -0.2406
  164loPI   C4A 2618  12.819  17.359   8.310 -0.0648  0.0102 -0.1132
  164loPI   C5A 2619  12.681  17.723   7.994  0.1615  0.0353  0.0652
  164loPI   C6A 2620  12.416  17.939   7.765 -0.3190 -0.1584  0.3180
  164loPI   C1B 2621  13.429  18.204   9.347 -0.1654 -0.1279 -0.0820
  164loPI   C2B 2622  13.171  18.116   8.946  0.2535  0.2697 -0.2876
  164loPI   C3B 2623  13.070  17.778   8.652  0.1011  0.3842 -0.0605
  164loPI   C4B 2624  13.176  17.740   8.218  0.4001  0.1037  0.0596
  165loPI    C1 2625   1.524  18.825  10.113 -0.0670  0.1242 -0.1303
  165loPI    C2 2626   1.253  18.965  10.372 -0.1219 -0.0904 -0.0698
  165loPI    C3 2627   1.143  18.708  10.086 -0.0606  0.1412 -0.3056
  165loPI   PO4 2628   1.592  18.976   9.979  0.0496 -0.1039  0.0191
  165loPI   GL1 2629   1.776  18.881   9.599  0.0531  0.0431 -0.1978
  165loPI   GL2 2630   1.988  18.747   9.300  0.1600  0.1341 -0.3893
  165loPI   C1A 2631   1.668  19.248   9.346 -0.2968 -0.2100  0.2421
  165loPI   C2A 2632   1.727  19.619   8.982 -0.0069  0.2214  0.0404
  165loPI   C3A 2633   1.878  19.410   8.580  0.0341 -0.0717 -0.0301
  165loPI   C4A 2634   1.893  19.518   8.152  0.1847 -0.1980  0.2641
  165loPI   C5A 2635   1.903  19.374   7.683  0.1595  0.1000  0.1164
  165loPI   C6A 2636   2.007  18.889   7.733 -0.0695  0.2048 -0.2126
  165loPI   C1B 2637   1.831  18.667   8.832 -0.0280 -0.0716 -0.6236
  165loPI   C2B 2638   1.943  18.485   8.515 -0.2957  0.0894 -0.0469
  165loPI   C3B 2639   2.067  18.580   8.126  0.2161  0.0814  0.0088
  165loPI   C4B 2640   2.350  18.514   7.766 -0.4138 -0.3192  0.1319
  166loPI    C1 2641  18.026   2.429  10.022  0.0132  0.1317 -0.0314
  166loPI    C2 2642  17.961   2.800   9.886 -0.2227  0.1128  0.0246
  166loPI    C3 2643  17.744   2.658  10.190 -0.2073 -0.1095 -0.0663
  166loPI   PO4 2644  18.177   2.289   9.746 -0.1388 -0.2161  0.0101
  166loPI   GL1 2645  17.994   2.459   9.455 -0.0831  0.0019  0.0189
  166loPI   GL2 2646  18.137   2.148   9.260 -0.1838 -0.1546 -0.2161
  166loPI   C1A 2647  18.214   2.763   9.170 -0.0940  0.0388 -0.0389
  166loPI   C2A 2648  18.116   2.887   8.744 -0.1557  0.3448 -0.1163
  166loPI   C3A 2649  18.096   3.166   8.412 -0.3679 -0.2093 -0.1432
  166loPI   C4A 2650  18.354   3.509   8.390 -0.1862 -0.0212  0.0818
  166loPI   C5A 2651  18.483   3.814   8.135  0.1289  0.2103  0.2792
  166loPI   C6A 2652  18.387   3.726   7.620  0.1692  0.1997  0.0941
  166loPI   C1B 2653  17.874   1.790   9.103 -0.2857  0.0376 -0.0300
  166loPI   C2B 2654  17.900   1.603   8.775  0.4793  0.0629  0.0512
  166loPI   C3B 2655  17.986   1.572   8.453 -0.2134 -0.0776 -0.2090
  166loPI   C4B 2656  18.124   1.756   8.177 -0.0426  0.1177  0.0749
  167loPI    C1 2657   8.535   7.188  10.010 -0.0243  0.2279 -0.0603
  167loPI    C2 2658   8.284   7.253  10.314 -0.0040  0.0505 -0.0046
  167loPI    C3 2659   8.350   6.880  10.186 -0.0042  0.1232 -0.2201
  167loPI   PO4 2660   8.532   7.404   9.790 -0.3643 -0.0085  0.1445
  167loPI   GL1 2661   8.522   7.296   9.381 -0.0614  0.0770  0.1947
  167loPI   GL2 2662   8.821   7.124   9.245 -0.1330 -0.3661 -0.1308
  167loPI   C1A 2663   8.405   7.287   8.987  0.1205 -0.0433  0.0462
  167loPI   C2A 2664   8.584   7.293   8.595  0.0181  0.0065 -0.0699
  167loPI   C3A 2665   8.965   7.360   8.338  0.0543  0.1192  0.0556
  167loPI   C4A 2666   9.055   7.349   7.913 -0.2813  0.0680  0.1342
  167loPI   C5A 2667   9.012   7.120   7.523  0.0035 -0.0871  0.5307
  167loPI   C6A 2668   8.960   7.422   7.089 -0.1359  0.0725  0.0012
  167loPI   C1B 2669   8.869   7.465   8.938 -0.0424  0.0428  0.1251
  167loPI   C2B 2670   8.729   7.774   8.673 -0.1536 -0.1490 -0.1260
  167loPI   C3B 2671   8.857   7.868   8.252  0.0740  0.0636  0.1244
  167loPI   C4B 2672   8.932   7.878   7.824 -0.0451  0.0563 -0.1350
  168loPI    C1 2673   9.474  10.834   9.380  0.0968  0.0607 -0.1025
  168loPI    C2 2674   9.562  10.768   9.764  0.0847 -0.2581 -0.1513
  168loPI    C3 2675   9.642  11.124   9.598 -0.0571 -0.0641  0.1862
  168loPI   PO4 2676   9.152  10.816   9.364  0.0011 -0.0092  0.0048
  168loPI   GL1 2677   8.858  10.739   9.073 -0.1169  0.1138 -0.1750
  168loPI   GL2 2678   8.782  11.101   9.134  0.0467 -0.2316 -0.1084
  168loPI   C1A 2679   8.656  10.565   8.664  0.0956 -0.3594 -0.1157
  168loPI   C2A 2680   8.571  10.746   8.264 -0.2211  0.4030  0.2456
  168loPI   C3A 2681   8.701  10.727   7.844 -0.2987 -0.0348  0.0261
  168loPI   C4A 2682   8.648  10.522   7.471 -0.1488 -0.1798 -0.1201
  168loPI   C5A 2683   8.730  10.601   7.107 -0.0691 -0.0822 -0.1332
  168loPI   C6A 2684   8.766  10.692   6.759  0.1611  0.1233 -0.1239
  168loPI   C1B 2685   8.777  11.072   8.743 -0.0458  0.3745  0.2933
  168loPI   C2B 2686   8.785  11.260   8.296  0.2476 -0.3140 -0.1810
  168loPI   C3B 2687   8.874  11.178   7.866 -0.1475 -0.0845  0.2037
  168loPI   C4B 2688   8.768  11.045   7.401 -0.0199  0.1145  0.1577
  169loPI    C1 2689   2.717   2.437  10.033 -0.1055  0.2167 -0.0771
  169loPI    C2 2690   2.632   2.079  10.189 -0.0563  0.1383 -0.2278
  169loPI    C3 2691   2.692   2.393  10.429  0.0068  0.0223 -0.0903
  169loPI   PO4 2692   2.616   2.400   9.780  0.1953 -0.1895  0.0172
  169loPI   GL1 2693   2.519   2.225   9.458 -0.0054 -0.0835 -0.5933
  169loPI   GL2 2694   2.781   2.180   9.279 -0.3782 -0.0106 -0.1657
  169loPI   C1A 2695   2.309   2.043   9.149 -0.1163 -0.0280  0.2160
  169loPI   C2A 2696   2.254   2.039   8.742 -0.2230 -0.0070 -0.3294
  169loPI   C3A 2697   2.351   2.102   8.315 -0.3718  0.2962  0.2110
  169loPI   C4A 2698   2.212   2.335   8.005 -0.2066 -0.1030  0.1544
  169loPI   C5A 2699   1.824   2.545   7.855  0.3030  0.2956  0.1973
  169loPI   C6A 2700   1.365   2.482   7.726 -0.1154 -0.2908 -0.3403
  169loPI   C1B 2701   2.679   2.283   8.867 -0.2098  0.3141  0.0587
  169loPI   C2B 2702   2.657   2.438   8.408  0.0140 -0.0716 -0.0977
  169loPI   C3B 2703   2.754   2.290   8.041 -0.3369 -0.1909  0.2689
  169loPI   C4B 2704   2.678   2.289   7.632 -0.0438 -0.0539 -0.4177
  170loPI    C1 2705  13.665   7.927   9.787 -0.0641 -0.1254 -0.0348
  170loPI    C2 2706  13.581   8.150  10.108  0.2225  0.1966 -0.1772
  170loPI    C3 2707  13.802   7.819  10.147  0.0291  0.0853 -0.0060
  170loPI   PO4 2708  13.617   8.024   9.655 -0.0197  0.1198  0.2904
  170loPI   GL1 2709  13.511   8.033   9.269 -0.1928 -0.0164  0.4394
  170loPI   GL2 2710  13.390   7.700   9.362  0.0149 -0.2236  0.3103
  170loPI   C1A 2711  13.342   7.926   8.872 -0.0424  0.1533  0.0464
  170loPI   C2A 2712  13.370   7.785   8.415  0.4902 -0.0168 -0.2591
  170loPI   C3A 2713  13.077   7.779   8.027 -0.0172  0.1558  0.2074
  170loPI   C4A 2714  12.923   7.862   7.709  0.1247  0.0048 -0.1193
  170loPI   C5A 2715  12.826   8.047   7.349 -0.2336  0.1186  0.3287
  170loPI   C6A 2716  12.937   7.884   6.986  0.1918 -0.0573 -0.0964
  170loPI   C1B 2717  13.367   7.459   9.122  0.3291 -0.1876  0.4398
  170loPI   C2B 2718  13.152   7.377   8.729 -0.1215 -0.1544  0.0190
  170loPI   C3B 2719  13.349   7.216   8.346 -0.0193  0.1059 -0.1500
  170loPI   C4B 2720  13.565   7.499   8.040 -0.1429  0.0444  0.2381
  171loPI    C1 2721   5.812   0.351   9.271  0.0964  0.2522 -0.1043
  171loPI    C2 2722   5.937   0.593   9.564  0.0052  0.2028 -0.0238
  171loPI    C3 2723   5.688   0.731   9.283 -0.0774  0.1927  0.0439
  171loPI   PO4 2724   5.819   0.130   9.373  0.0673 -0.1515 -0.2288
  171loPI   GL1 2725   5.689  -0.185   9.064  0.0457  0.0335 -0.0127
  171loPI   GL2 2726   5.401  -0.302   9.180 -0.1976 -0.0816  0.2923
  171loPI   C1A 2727   5.860  -0.351   8.701  0.0416 -0.1525  0.3221
  171loPI   C2A 2728   5.574  -0.495   8.388  0.0319 -0.6554  0.3925
  171loPI   C3A 2729   5.357  -0.427   7.951 -0.1463  0.1486 -0.0179
  171loPI   C4A 2730   5.409  -0.440   7.563 -0.0435  0.1046  0.1813
  171loPI   C5A 2731   5.612  -0.597   7.239 -0.0760 -0.3825 -0.1949
  171loPI   C6A 2732   5.918  -0.935   7.195  0.3749  0.1110 -0.2157
  171loPI   C1B 2733   5.240  -0.323   8.796  0.0293 -0.1399 -0.0592
  171loPI   C2B 2734   5.116  -0.266   8.327 -0.4825  0.2174 -0.1899
  171loPI   C3B 2735   5.044  -0.028   7.989 -0.1995 -0.2252  0.0838
  171loPI   C4B 2736   5.008  -0.183   7.650 -0.0126  0.1917  0.2197
  172loPI    C1 2737   4.253  14.116   9.689 -0.1041  0.0802 -0.0794
  172loPI    C2 2738   4.440  14.035  10.033  0.0057 -0.1186 -0.1838
  172loPI    C3 2739   4.306  13.736   9.804 -0.5081  0.0204 -0.0756
  172loPI   PO4 2740   4.389  14.272   9.543 -0.1421 -0.0365  0.0061
  172loPI   GL1 2741   4.759  14.254   9.198  0.1426 -0.1878  0.2076
  172loPI   GL2 2742   4.505  14.489   9.100  0.1480 -0.0763  0.0397
  172loPI   C1A 2743   4.642  14.131   8.766  0.0469  0.1489  0.1215
  172loPI   C2A 2744   4.618  14.162   8.299 -0.1815  0.4832 -0.2361
  172loPI   C3A 2745   4.614  14.162   7.849 -0.0213 -0.1668  0.1336
  172loPI   C4A 2746   4.779  14.283   7.391  0.0093 -0.0182 -0.3006
  172loPI   C5A 2747   4.581  14.620   7.181 -0.1933 -0.1015 -0.1708
  172loPI   C6A 2748   4.571  15.042   7.420  0.1170  0.0314 -0.3171
  172loPI   C1B 2749   4.326  14.590   8.710 -0.2004  0.0107 -0.0376
  172loPI   C2B 2750   4.163  14.525   8.312 -0.1247  0.0640  0.1893
  172loPI   C3B 2751   4.195  14.646   7.863 -0.0724 -0.0285  0.5869
  172loPI   C4B 2752   4.313  14.436   7.502 -0.0507 -0.2054  0.2761
  173loPI    C1 2753   0.166   3.917  10.318 -0.1308 -0.1625 -0.1456
  173loPI    C2 2754  -0.160   4.030  10.116 -0.2607 -0.1037  0.0933
  173loPI    C3 2755  -0.163   4.028  10.516  0.0422 -0.0756  0.0978
  173loPI   PO4 2756   0.335   3.788  10.095  0.1338 -0.0490 -0.0772
  173loPI   GL1 2757   0.394   3.699   9.744 -0.2814 -0.1595  0.2240
  173loPI   GL2 2758   0.731   3.717   9.526 -0.1222  0.2758 -0.1361
  173loPI   C1A 2759   0.049   3.463   9.388  0.1816  0.3698 -0.0116
  173loPI   C2A 2760  -0.327   3.028   9.243  0.2228 -0.0948  0.0797
  173loPI   C3A 2761  -0.431   2.909   8.873 -0.0528 -0.1900 -0.2756
  173loPI   C4A 2762  -0.295   3.108   8.464  0.1260 -0.1684 -0.0674
  173loPI   C5A 2763  -0.169   3.455   8.216  0.4480  0.0181  0.1776
  173loPI   C6A 2764  -0.069   3.826   8.094  0.0464 -0.0233  0.1833
  173loPI   C1B 2765   0.473   3.541   9.122 -0.1342  0.1506 -0.2300
  173loPI   C2B 2766   0.127   3.564   8.884 -0.2798 -0.0477  0.1376
  173loPI   C3B 2767  -0.224   3.394   8.881  0.1459  0.1676  0.1881
  173loPI   C4B 2768  -0.596   3.396   8.881  0.0825  0.2845 -0.3938
  174loPI    C1 2769   7.952  14.715   9.289 -0.0239 -0.1953  0.2679
  174loPI    C2 2770   8.083  15.087   9.351 -0.1557 -0.1043  0.0151
  174loPI    C3 2771   7.809  14.928   9.596 -0.3228  0.0761 -0.0521
  174loPI   PO4 2772   7.998  14.625   9.055  0.0232  0.1649 -0.2764
  174loPI   GL1 2773   7.779  14.695   8.775  0.2133 -0.2256 -0.0373
  174loPI   GL2 2774   7.688  14.905   8.802  0.0712 -0.2596 -0.1698
  174loPI   C1A 2775   7.941  14.306   8.408  0.0602  0.1357  0.0652
  174loPI   C2A 2776   8.032  14.121   8.040  0.0618 -0.2142  0.1574
  174loPI   C3A 2777   8.036  13.729   7.938  0.3737  0.0543  0.3363
  174loPI   C4A 2778   8.166  13.409   7.754  0.1393  0.0782 -0.0027
  174loPI   C5A 2779   8.184  12.900   7.489  0.0959  0.0140  0.0471
  174loPI   C6A 2780   8.566  12.726   7.412  0.0046 -0.0017 -0.2891
  174loPI   C1B 2781   7.805  14.772   8.322  0.0012  0.0209  0.0684
  174loPI   C2B 2782   7.962  14.614   8.069 -0.0039  0.2360 -0.0791
  174loPI   C3B 2783   8.240  14.493   7.707 -0.1009 -0.0872  0.0503
  174loPI   C4B 2784   8.261  14.326   7.305 -0.3865  0.1573 -0.1224
  175loPI    C1 2785  15.982  11.762  10.256 -0.4604  0.1165 -0.0519
  175loPI    C2 2786  15.712  11.513  10.099 -0.1661 -0.2215 -0.0344
  175loPI    C3 2787  15.768  11.522  10.495 -0.0310 -0.2800 -0.0516
  175loPI   PO4 2788  16.200  11.738  10.239  0.3276  0.1764 -0.1052
  175loPI   GL1 2789  16.300  11.566   9.922 -0.0545  0.0454  0.0800
  175loPI   GL2 2790  16.019  11.711   9.649 -0.1026  0.4219  0.0635
  175loPI   C1A 2791  16.500  11.311   9.625 -0.3953 -0.1059 -0.3984
  175loPI   C2A 2792  16.471  11.253   9.218  0.3533 -0.0439 -0.0638
  175loPI   C3A 2793  16.452  11.098   8.865 -0.1375 -0.0033  0.2931
  175loPI   C4A 2794  16.662  10.844   8.460  0.0782 -0.3607  0.0281
  175loPI   C5A 2795  16.922  10.816   8.054  0.0687  0.0524 -0.0145
  175loPI   C6A 2796  16.918  11.134   7.804  0.0392  0.1221  0.3245
  175loPI   C1B 2797  15.991  11.352   9.481  0.1534 -0.1100 -0.0734
  175loPI   C2B 2798  16.033  11.151   9.056 -0.0669  0.2624 -0.3236
  175loPI   C3B 2799  15.935  11.031   8.563 -0.3630  0.1399 -0.0379
  175loPI   C4B 2800  15.993  10.847   8.100  0.1162  0.2216  0.3691
  176loPI    C1 2801  14.466  12.907  10.084 -0.2050 -0.1557  0.0197
  176loPI    C2 2802  14.560  13.208  10.330 -0.0041 -0.0648 -0.1642
  176loPI    C3 2803  14.177  13.109  10.271 -0.0575 -0.0341  0.1187
  176loPI   PO4 2804  14.593  12.916   9.835 -0.0116  0.2469  0.1220
  176loPI   GL1 2805  14.585  12.742   9.436 -0.2822  0.2613  0.0761
  176loPI   GL2 2806  14.644  12.361   9.492  0.1323 -0.3575 -0.2944
  176loPI   C1A 2807  14.568  12.582   9.033  0.1477 -0.0507  0.4427
  176loPI   C2A 2808  14.770  12.192   8.745 -0.0904  0.2855 -0.3916
  176loPI   C3A 2809  14.973  12.047   8.345  0.2182 -0.2172  0.1494
  176loPI   C4A 2810  15.077  12.088   7.861  0.3121 -0.1721  0.1086
  176loPI   C5A 2811  14.835  12.449   7.830  0.2033  0.3719 -0.1189
  176loPI   C6A 2812  14.510  12.691   7.532 -0.0131 -0.3367  0.0702
  176loPI   C1B 2813  14.816  11.963   9.205 -0.1915 -0.1834  0.0232
  176loPI   C2B 2814  15.144  11.882   8.837  0.1931  0.2758  0.4700
  176loPI   C3B 2815  15.388  11.784   8.611 -0.2642 -0.1603  0.0296
  176loPI   C4B 2816  15.632  12.012   8.248 -0.3417  0.1488  0.0085
  177loPI    C1 2817  13.252  10.562  10.309  0.0656 -0.0410 -0.0202
  177loPI    C2 2818  13.509  10.433  10.586 -0.0699 -0.0026  0.1246
  177loPI    C3 2819  13.189  10.647  10.694 -0.0492  0.1324 -0.0762
  177loPI   PO4 2820  13.356  10.627  10.094 -0.0150  0.3315 -0.2993
  177loPI   GL1 2821  13.191  10.556   9.631  0.0725  0.0265  0.0482
  177loPI   GL2 2822  13.494  10.609   9.606 -0.1557  0.4095  0.0325
  177loPI   C1A 2823  13.179  10.636   9.218 -0.1865  0.1278  0.1426
  177loPI   C2A 2824  13.498  10.892   8.962  0.1676  0.0417 -0.1140
  177loPI   C3A 2825  13.394  11.240   8.771  0.1087  0.1344 -0.1559
  177loPI   C4A 2826  13.473  11.608   8.554  0.0556  0.1352  0.1543
  177loPI   C5A 2827  13.366  11.445   8.201  0.4035  0.0153  0.1642
  177loPI   C6A 2828  13.268  11.256   7.779 -0.1121 -0.0192 -0.1783
  177loPI   C1B 2829  13.771  10.534   9.253  0.0458 -0.3924 -0.2044
  177loPI   C2B 2830  13.750  10.351   8.929 -0.1448 -0.0915  0.0204
  177loPI   C3B 2831  13.607  10.494   8.508  0.0931  0.3019 -0.1727
  177loPI   C4B 2832  13.823  10.457   8.062 -0.0888 -0.0015 -0.1322
  178loPI    C1 2833   7.225  15.283   9.590 -0.1257 -0.1605 -0.0714
  178loPI    C2 2834   6.966  15.073   9.811  0.0077  0.0074  0.2515
  178loPI    C3 2835   7.333  14.929   9.743 -0.0924 -0.1274 -0.0180
  178loPI   PO4 2836   7.071  15.369   9.387 -0.2469  0.3231  0.3817
  178loPI   GL1 2837   6.929  15.301   9.043 -0.1936  0.0564 -0.2092
  178loPI   GL2 2838   6.765  15.075   8.840 -0.1227 -0.1960  0.0983
  178loPI   C1A 2839   7.287  15.327   8.751  0.1767 -0.0842  0.3372
  178loPI   C2A 2840   7.238  15.419   8.384 -0.1033  0.0441  0.1952
  178loPI   C3A 2841   7.388  15.658   8.033 -0.1075  0.1759 -0.2637
  178loPI   C4A 2842   7.420  15.674   7.556 -0.0545  0.2775 -0.1128
  178loPI   C5A 2843   7.659  15.416   7.189  0.1542  0.1858 -0.2921
  178loPI   C6A 2844   7.386  15.198   6.950 -0.3415  0.0290  0.1133
  178loPI   C1B 2845   6.913  15.026   8.410 -0.1188  0.1533  0.1075
  178loPI   C2B 2846   6.829  14.969   8.035 -0.1138 -0.2567 -0.3550
  178loPI   C3B 2847   6.459  15.029   7.676 -0.3516 -0.0339 -0.0331
  178loPI   C4B 2848   6.523  14.926   7.216 -0.1375  0.3256  0.0705
  179loPI    C1 2849  14.181   8.186  10.101 -0.1181 -0.0673  0.2201
  179loPI    C2 2850  14.534   8.088  10.262 -0.0213  0.1243  0.1273
  179loPI    C3 2851  14.231   8.200  10.498  0.0085  0.0519  0.2006
  179loPI   PO4 2852  14.207   8.007   9.908 -0.3940 -0.0540 -0.0118
  179loPI   GL1 2853  14.124   7.908   9.450 -0.2220 -0.0114  0.2599
  179loPI   GL2 2854  13.884   7.733   9.307  0.1997 -0.1686  0.1252
  179loPI   C1A 2855  14.246   8.028   9.035 -0.1343 -0.2916  0.1996
  179loPI   C2A 2856  14.246   8.062   8.571 -0.0096 -0.3832  0.3366
  179loPI   C3A 2857  14.361   7.959   8.135 -0.1301  0.4646  0.0348
  179loPI   C4A 2858  14.030   7.943   7.758  0.1519 -0.2872  0.1575
  179loPI   C5A 2859  13.698   7.717   7.497  0.0659  0.0040 -0.0111
  179loPI   C6A 2860  13.337   7.537   7.483  0.2150 -0.1137 -0.1129
  179loPI   C1B 2861  13.783   7.746   8.852  0.1653 -0.0981  0.1180
  179loPI   C2B 2862  13.878   7.760   8.344 -0.1805 -0.1641  0.0461
  179loPI   C3B 2863  14.041   7.461   7.954  0.0895 -0.3405 -0.1917
  179loPI   C4B 2864  14.199   7.141   7.755  0.0291  0.3661  0.2057
  180loPI    C1 2865   7.466  17.740   9.781  0.0747 -0.1936 -0.0050
  180loPI    C2 2866   7.851  17.775   9.882 -0.0417  0.2503  0.3162
  180loPI    C3 2867   7.590  17.618  10.141 -0.0641 -0.1558  0.0563
  180loPI   PO4 2868   7.424  17.650   9.630 -0.1116  0.1793 -0.1026
  180loPI   GL1 2869   7.464  17.417   9.231 -0.0380 -0.2754 -0.1662
  180loPI   GL2 2870   7.440  17.741   9.143  0.2627 -0.2316 -0.0896
  180loPI   C1A 2871   7.433  17.197   8.812 -0.4617  0.0344 -0.1486
  180loPI   C2A 2872   7.341  17.375   8.498 -0.1444 -0.0383  0.4556
  180loPI   C3A 2873   7.283  17.120   8.155  0.2553 -0.1007 -0.3517
  180loPI   C4A 2874   7.466  16.952   7.819  0.2239  0.2795  0.0723
  180loPI   C5A 2875   7.440  16.560   7.576  0.2403  0.2563  0.1221
  180loPI   C6A 2876   7.745  16.135   7.432 -0.1097 -0.0673 -0.2851
  180loPI   C1B 2877   7.492  17.856   8.813  0.0125  0.5193 -0.4054
  180loPI   C2B 2878   7.590  17.826   8.419 -0.1566  0.2045 -0.2897
  180loPI   C3B 2879   7.469  17.666   8.077  0.2545 -0.2514 -0.1102
  180loPI   C4B 2880   7.106  17.554   7.978 -0.0183  0.2646  0.3247
  181loPI    C1 2881   3.854  16.884   9.920  0.0578  0.0375  0.2261
  181loPI    C2 2882   3.687  17.224  10.048 -0.2042 -0.0365  0.0867
  181loPI    C3 2883   3.942  17.025  10.284 -0.0920  0.2262  0.1905
  181loPI   PO4 2884   3.716  16.829   9.684  0.0903  0.3790 -0.3434
  181loPI   GL1 2885   3.599  16.927   9.269  0.0450  0.0360 -0.0316
  181loPI   GL2 2886   3.870  16.774   9.114 -0.0992 -0.0719 -0.3088
  181loPI   C1A 2887   3.462  17.327   9.122  0.1214 -0.3838 -0.0199
  181loPI   C2A 2888   3.465  17.577   8.838 -0.4009 -0.1459 -0.0433
  181loPI   C3A 2889   3.176  17.650   8.653  0.2928  0.0167 -0.0228
  181loPI   C4A 2890   3.002  17.614   8.269 -0.1170  0.0204 -0.0107
  181loPI   C5A 2891   2.654  17.752   8.055 -0.1627 -0.0693 -0.1279
  181loPI   C6A 2892   2.584  18.030   7.747  0.0259 -0.1144  0.2278
  181loPI   C1B 2893   3.840  16.905   8.634 -0.1920  0.0071  0.0523
  181loPI   C2B 2894   3.681  16.811   8.235 -0.0158  0.0952 -0.0576
  181loPI   C3B 2895   3.514  16.755   7.796  0.1721 -0.2408  0.1159
  181loPI   C4B 2896   3.169  16.780   7.459  0.2557  0.0007  0.1441
  182loPI    C1 2897  15.284   5.863  10.089 -0.1254 -0.2186 -0.0078
  182loPI    C2 2898  15.460   6.134   9.853 -0.2598 -0.0036  0.1349
  182loPI    C3 2899  15.586   6.084  10.229 -0.3760  0.0140  0.1766
  182loPI   PO4 2900  15.242   5.624   9.928 -0.3072  0.2167  0.1805
  182loPI   GL1 2901  15.263   5.643   9.530  0.0530  0.1618  0.1197
  182loPI   GL2 2902  15.491   5.850   9.389  0.2630 -0.2347 -0.1716
  182loPI   C1A 2903  14.966   5.302   9.477 -0.2215  0.1113  0.0125
  182loPI   C2A 2904  14.949   5.331   8.991  0.1421 -0.0749 -0.1504
  182loPI   C3A 2905  14.974   5.231   8.608 -0.0381 -0.1819 -0.1995
  182loPI   C4A 2906  15.156   5.313   8.252  0.0365 -0.0163  0.1033
  182loPI   C5A 2907  15.296   5.232   7.802  0.0467 -0.0426 -0.1561
  182loPI   C6A 2908  15.460   4.794   7.633 -0.1492  0.0021  0.1308
  182loPI   C1B 2909  15.324   5.653   9.009 -0.1566  0.0315  0.2313
  182loPI   C2B 2910  15.069   5.679   8.615 -0.1826 -0.1650  0.0103
  182loPI   C3B 2911  15.220   5.801   8.163 -0.0422 -0.0648 -0.0472
  182loPI   C4B 2912  15.391   5.734   7.829  0.0282  0.5674 -0.1124
  183loPI    C1 2913  14.381  14.741  10.114 -0.0841 -0.0478  0.0208
  183loPI    C2 2914  14.183  14.988  10.359 -0.0882 -0.0165 -0.0138
  183loPI    C3 2915  14.147  14.592  10.402 -0.0734 -0.0113  0.0485
  183loPI   PO4 2916  14.389  14.874   9.834  0.1346  0.1660  0.0866
  183loPI   GL1 2917  14.112  14.915   9.473  0.1808 -0.0610  0.1167
  183loPI   GL2 2918  14.152  15.194   9.473 -0.1419  0.0797  0.0666
  183loPI   C1A 2919  14.452  14.824   9.159  0.0576 -0.0343 -0.2146
  183loPI   C2A 2920  14.432  14.818   8.695 -0.0883 -0.1804 -0.3691
  183loPI   C3A 2921  14.528  14.741   8.315 -0.0497 -0.2334 -0.0829
  183loPI   C4A 2922  14.612  15.070   7.912  0.0469  0.1719  0.1956
  183loPI   C5A 2923  14.975  15.289   7.666 -0.0001  0.3512 -0.0891
  183loPI   C6A 2924  15.479  15.290   7.599  0.2476  0.0800  0.0157
  183loPI   C1B 2925  14.253  15.254   9.084  0.2219 -0.2469  0.0506
  183loPI   C2B 2926  14.288  15.276   8.580  0.1025  0.0628 -0.1062
  183loPI   C3B 2927  14.200  15.289   8.173  0.1935 -0.0099  0.0212
  183loPI   C4B 2928  14.177  15.193   7.690 -0.2350  0.0636  0.1823
  184loPI    C1 2929   3.959  15.921   9.601  0.0159 -0.0073 -0.1440
  184loPI    C2 2930   3.941  15.547   9.461 -0.1414 -0.0614  0.0169
  184loPI    C3 2931   3.867  15.619   9.848  0.2186  0.0950  0.0599
  184loPI   PO4 2932   4.176  16.037   9.503 -0.0744  0.0825  0.2549
  184loPI   GL1 2933   4.277  15.993   9.047  0.0987  0.0261 -0.0577
  184loPI   GL2 2934   4.015  15.761   9.068  0.0162  0.0078  0.1046
  184loPI   C1A 2935   4.196  16.044   8.565  0.3238  0.1704 -0.0039
  184loPI   C2A 2936   4.019  16.032   8.108 -0.2159  0.0653  0.2929
  184loPI   C3A 2937   3.912  16.092   7.703 -0.0401 -0.2592 -0.2580
  184loPI   C4A 2938   4.061  16.009   7.376  0.1550  0.1564 -0.0736
  184loPI   C5A 2939   4.288  15.672   7.045  0.2962 -0.2992  0.1785
  184loPI   C6A 2940   4.508  15.372   7.084  0.1180  0.0248 -0.0734
  184loPI   C1B 2941   3.742  15.756   8.702 -0.2216  0.0024 -0.0898
  184loPI   C2B 2942   3.636  15.711   8.269 -0.1113  0.0013 -0.2590
  184loPI   C3B 2943   3.561  15.822   7.871  0.1396 -0.4209 -0.0452
  184loPI   C4B 2944   3.577  15.806   7.464 -0.1623 -0.0436  0.0235
  185loPI    C1 2945  13.917   9.915  10.358 -0.1352  0.0608  0.1901
  185loPI    C2 2946  13.664   9.680  10.156 -0.3237  0.3398  0.0958
  185loPI    C3 2947  13.730   9.614  10.545 -0.2229  0.0122  0.0264
  185loPI   PO4 2948  14.046  10.081  10.072  0.1545  0.1828 -0.1777
  185loPI   GL1 2949  14.280  10.173   9.620 -0.0388  0.0303  0.0183
  185loPI   GL2 2950  14.336  10.454   9.872 -0.1620  0.0058  0.2326
  185loPI   C1A 2951  14.496  10.248   9.165 -0.2350 -0.0061 -0.0645
  185loPI   C2A 2952  14.643  10.372   8.695  0.0778 -0.1561 -0.0075
  185loPI   C3A 2953  14.566  10.564   8.276  0.0394  0.1006  0.0211
  185loPI   C4A 2954  14.798  10.628   7.873  0.2896  0.0599  0.0716
  185loPI   C5A 2955  15.203  10.815   7.713 -0.0387  0.1569  0.0757
  185loPI   C6A 2956  15.492  11.062   7.516  0.3223  0.1215 -0.1004
  185loPI   C1B 2957  14.191  10.638   9.413 -0.0378  0.1953 -0.0001
  185loPI   C2B 2958  13.809  11.032   9.345  0.1236  0.0802 -0.0435
  185loPI   C3B 2959  13.377  11.302   9.294 -0.1567  0.0430 -0.2670
  185loPI   C4B 2960  13.363  11.687   9.099 -0.1180  0.0987  0.0969
  186loPI    C1 2961  11.219   0.160  10.248 -0.2993 -0.4200  0.0381
  186loPI    C2 2962  11.130   0.503  10.063  0.1139 -0.3047  0.0420
  186loPI    C3 2963  10.989   0.431  10.430  0.3839  0.0622  0.2235
  186loPI   PO4 2964  11.231   0.013  10.007  0.1061 -0.1365 -0.1470
  186loPI   GL1 2965  10.987  -0.081   9.613  0.0652  0.2062  0.2301
  186loPI   GL2 2966  10.719  -0.133   9.711  0.0201  0.1599 -0.0833
  186loPI   C1A 2967  11.311   0.172   9.313 -0.0343  0.1703 -0.2238
  186loPI   C2A 2968  11.285   0.378   8.932 -0.2829  0.0341 -0.4352
  186loPI   C3A 2969  11.279   0.403   8.467  0.0488 -0.2566 -0.1460
  186loPI   C4A 2970  11.175   0.605   8.062 -0.0815  0.0753 -0.3412
  186loPI   C5A 2971  11.016   0.861   7.757  0.4949 -0.3683  0.3021
  186loPI   C6A 2972  10.788   1.138   7.467 -0.3776 -0.0642  0.0364
  186loPI   C1B 2973  10.569   0.109   9.310 -0.0022 -0.1587 -0.0031
  186loPI   C2B 2974  10.676   0.283   8.949 -0.0636 -0.1243  0.1815
  186loPI   C3B 2975  10.619   0.367   8.556  0.0702  0.0435 -0.0600
  186loPI   C4B 2976  10.759   0.318   8.081  0.0408  0.0497 -0.2680
  187loPI    C1 2977   1.949  14.138  10.008  0.0414 -0.1198  0.0352
  187loPI    C2 2978   2.301  14.155  10.197  0.0190  0.1619  0.0565
  187loPI    C3 2979   2.076  13.825  10.223  0.1433  0.0927  0.2905
  187loPI   PO4 2980   2.031  14.419   9.864 -0.1453  0.1443 -0.3474
  187loPI   GL1 2981   1.857  14.448   9.582  0.2091 -0.2873  0.0716
  187loPI   GL2 2982   1.710  14.214   9.436  0.0720 -0.4952  0.2300
  187loPI   C1A 2983   2.145  14.318   9.239 -0.2045  0.3038 -0.3667
  187loPI   C2A 2984   2.372  14.599   8.958 -0.0229 -0.0350 -0.1454
  187loPI   C3A 2985   2.386  14.731   8.577  0.0091 -0.0553 -0.3487
  187loPI   C4A 2986   2.393  14.656   8.180  0.3065 -0.2600 -0.1066
  187loPI   C5A 2987   2.291  14.454   7.789 -0.0906  0.0302 -0.3915
  187loPI   C6A 2988   2.494  14.156   7.649  0.0013 -0.1463  0.0927
  187loPI   C1B 2989   1.809  14.202   8.887  0.0145 -0.0064 -0.1135
  187loPI   C2B 2990   1.960  14.340   8.422 -0.0837  0.1159 -0.2237
  187loPI   C3B 2991   1.769  14.484   8.024 -0.0171  0.1563 -0.2741
  187loPI   C4B 2992   1.713  14.860   7.813  0.1377  0.0166  0.2247
  188loPI    C1 2993  17.730   8.285  10.118  0.2617 -0.3871 -0.0325
  188loPI    C2 2994  17.569   8.025   9.860 -0.2977  0.1359 -0.2330
  188loPI    C3 2995  17.410   8.069  10.224 -0.1230  0.1065 -0.1521
  188loPI   PO4 2996  17.785   8.580   9.884  0.0153  0.2625  0.0559
  188loPI   GL1 2997  17.723   8.589   9.549 -0.0581 -0.0676 -0.0108
  188loPI   GL2 2998  17.682   8.393   9.312 -0.1008 -0.0815 -0.2094
  188loPI   C1A 2999  17.761   8.942   9.323 -0.0760 -0.4151 -0.0220
  188loPI   C2A 3000  17.832   9.020   8.920  0.1841 -0.2409 -0.0416
  188loPI   C3A 3001  17.906   9.054   8.468  0.4233 -0.3789 -0.1679
  188loPI   C4A 3002  17.821   9.310   8.145 -0.1125  0.6486  0.0677
  188loPI   C5A 3003  17.544   9.435   7.858  0.2241 -0.0263  0.2010
  188loPI   C6A 3004  17.487   9.398   7.355  0.2130 -0.1878  0.0216
  188loPI   C1B 3005  17.711   8.215   8.863  0.1590  0.1403 -0.3729
  188loPI   C2B 3006  17.745   7.800   8.664  0.0547 -0.1336  0.2161
  188loPI   C3B 3007  17.615   7.666   8.290  0.0140 -0.3042 -0.1375
  188loPI   C4B 3008  17.711   7.624   7.855  0.1808 -0.1206 -0.3107
  189loPI    C1 3009  11.487   7.760   9.831 -0.1538  0.0830  0.1830
  189loPI    C2 3010  11.758   7.493   9.954 -0.2558 -0.0352  0.1533
  189loPI    C3 3011  11.796   7.665   9.595 -0.0653  0.1631  0.2659
  189loPI   PO4 3012  11.262   7.798   9.884  0.0441 -0.1504  0.0271
  189loPI   GL1 3013  10.965   7.799   9.521 -0.2169 -0.1483 -0.0364
  189loPI   GL2 3014  10.824   7.556   9.403  0.1426 -0.1433  0.0259
  189loPI   C1A 3015  11.098   7.994   9.106 -0.1557 -0.1246  0.2416
  189loPI   C2A 3016  11.284   8.255   8.728 -0.0328 -0.1859 -0.3677
  189loPI   C3A 3017  11.200   8.523   8.404 -0.6924 -0.1537  0.3878
  189loPI   C4A 3018  11.150   8.562   7.957  0.0567 -0.0854  0.1887
  189loPI   C5A 3019  11.019   8.930   7.843 -0.3086  0.0540 -0.0233
  189loPI   C6A 3020  11.244   9.315   7.840  0.0404  0.2685  0.0393
  189loPI   C1B 3021  10.981   7.479   9.030 -0.0361  0.1075  0.1043
  189loPI   C2B 3022  10.826   7.238   8.717  0.2656  0.0140  0.0124
  189loPI   C3B 3023  10.663   6.934   8.414  0.0931 -0.0418 -0.0952
  189loPI   C4B 3024  10.564   6.711   7.994  0.1123 -0.0397  0.0878
  190loPI    C1 3025  16.528   7.050  10.304  0.0140 -0.1443  0.0881
  190loPI    C2 3026  16.858   7.272  10.339 -0.2089  0.2029  0.0280
  190loPI    C3 3027  16.702   7.096  10.662 -0.0904  0.2199  0.0954
  190loPI   PO4 3028  16.590   6.843  10.054 -0.1399 -0.1734  0.0481
  190loPI   GL1 3029  16.679   6.822   9.658  0.1095 -0.1118  0.1514
  190loPI   GL2 3030  16.912   7.004   9.413 -0.3255 -0.0900 -0.0743
  190loPI   C1A 3031  16.409   6.966   9.356 -0.1325 -0.3493  0.1990
  190loPI   C2A 3032  16.157   6.862   8.989 -0.0110 -0.1715  0.0071
  190loPI   C3A 3033  15.938   6.855   8.624  0.0188  0.2596  0.0448
  190loPI   C4A 3034  15.889   6.912   8.194 -0.0005 -0.1060 -0.1311
  190loPI   C5A 3035  15.983   7.133   7.783  0.2093 -0.0519 -0.0537
  190loPI   C6A 3036  15.922   6.884   7.431  0.4114 -0.0140  0.4877
  190loPI   C1B 3037  17.086   6.756   9.132 -0.3342  0.0225  0.1029
  190loPI   C2B 3038  16.891   6.554   8.852  0.0605 -0.0200 -0.2238
  190loPI   C3B 3039  16.720   6.138   8.970  0.2730  0.2085  0.1103
  190loPI   C4B 3040  16.629   5.681   9.040  0.0781 -0.0994  0.3710
  191loPI    C1 3041   1.359  16.295   9.893  0.0547  0.0192 -0.0440
  191loPI    C2 3042   1.264  16.504   9.566  0.0800 -0.0831 -0.1173
  191loPI    C3 3043   1.505  16.186   9.537  0.0679 -0.1030 -0.0016
  191loPI   PO4 3044   1.167  16.251  10.062  0.0042 -0.0250 -0.2453
  191loPI   GL1 3045   0.748  16.249   9.871 -0.0031  0.1866 -0.5220
  191loPI   GL2 3046   0.745  16.449   9.637  0.0666 -0.2952  0.3840
  191loPI   C1A 3047   0.615  15.902   9.500  0.1766 -0.3152  0.1619
  191loPI   C2A 3048   0.569  15.857   9.080  0.1737  0.0228 -0.2249
  191loPI   C3A 3049   0.868  16.035   8.763 -0.1754  0.2300 -0.1573
  191loPI   C4A 3050   0.949  15.917   8.352  0.0142  0.0684 -0.1110
  191loPI   C5A 3051   1.065  15.903   8.051  0.1303 -0.3234 -0.2481
  191loPI   C6A 3052   1.092  15.757   7.594 -0.2335  0.1588  0.1402
  191loPI   C1B 3053   0.568  16.810   9.425 -0.0973  0.0705  0.0262
  191loPI   C2B 3054   0.451  16.881   9.028  0.1805 -0.0611 -0.1351
  191loPI   C3B 3055   0.383  16.678   8.605 -0.1565  0.0695  0.2482
  191loPI   C4B 3056   0.608  16.743   8.201 -0.1922  0.0191 -0.2284
  192loPI    C1 3057   1.712   5.427   9.746 -0.1096  0.0466  0.1191
  192loPI    C2 3058   1.459   5.316   9.457 -0.2319  0.0088  0.2400
  192loPI    C3 3059   1.390   5.208   9.836 -0.2194  0.2868  0.3232
  192loPI   PO4 3060   1.936   5.467   9.564  0.2351  0.2663  0.0374
  192loPI   GL1 3061   1.915   5.552   9.128 -0.0199  0.2708  0.0002
  192loPI   GL2 3062   1.656   5.480   8.982 -0.0630  0.3119  0.1402
  192loPI   C1A 3063   2.111   5.720   8.914  0.0808 -0.1631  0.0379
  192loPI   C2A 3064   2.213   5.685   8.467 -0.1014  0.1749  0.2005
  192loPI   C3A 3065   2.299   5.452   8.251 -0.3130 -0.0832  0.1145
  192loPI   C4A 3066   2.012   5.462   7.915  0.3188  0.1412 -0.0688
  192loPI   C5A 3067   1.668   5.262   7.808 -0.2273 -0.1548 -0.1506
  192loPI   C6A 3068   1.287   5.042   7.708  0.3702  0.2729  0.1624
  192loPI   C1B 3069   1.753   5.492   8.582 -0.0662 -0.0516  0.2264
  192loPI   C2B 3070   1.817   5.201   8.342 -0.1500  0.3358  0.0604
  192loPI   C3B 3071   2.087   4.998   8.078 -0.0523 -0.0447 -0.0599
  192loPI   C4B 3072   2.474   5.102   7.851 -0.1072 -0.0877  0.2223
  193loPI    C1 3073   7.717   4.070   9.446 -0.2237 -0.0061  0.0345
  193loPI    C2 3074   7.424   3.836   9.306 -0.1093  0.0497 -0.3077
  193loPI    C3 3075   7.803   3.709   9.297 -0.1317 -0.0864  0.2774
  193loPI   PO4 3076   7.805   4.301   9.427  0.5529 -0.0100 -0.0556
  193loPI   GL1 3077   8.001   4.378   9.090  0.2979 -0.0367 -0.1547
  193loPI   GL2 3078   8.095   4.689   9.266 -0.0625  0.0014 -0.0777
  193loPI   C1A 3079   7.909   4.320   8.717 -0.1147  0.0170  0.1394
  193loPI   C2A 3080   7.851   4.415   8.291 -0.0116 -0.1437 -0.2276
  193loPI   C3A 3081   7.710   4.362   7.851 -0.0356 -0.3415 -0.0163
  193loPI   C4A 3082   7.757   4.632   7.467  0.1143 -0.0676 -0.2207
  193loPI   C5A 3083   7.727   5.108   7.408 -0.0266 -0.0240 -0.0520
  193loPI   C6A 3084   8.067   5.297   7.102 -0.2117  0.1289 -0.3292
  193loPI   C1B 3085   8.136   4.759   8.872  0.1707  0.2470  0.0166
  193loPI   C2B 3086   8.174   4.759   8.469 -0.2123  0.2646  0.1794
  193loPI   C3B 3087   8.073   4.751   7.970 -0.1644 -0.1880 -0.2057
  193loPI   C4B 3088   8.226   4.729   7.561  0.3354  0.0159 -0.2266
  194loPI    C1 3089  15.069  11.507  10.362 -0.0139  0.3247  0.0998
  194loPI    C2 3090  15.277  11.661  10.668 -0.0192 -0.0056  0.2752
  194loPI    C3 3091  14.898  11.544  10.722 -0.0623  0.0525  0.1070
  194loPI   PO4 3092  15.226  11.621  10.134 -0.0710  0.3696 -0.2736
  194loPI   GL1 3093  15.078  11.545   9.774 -0.2630 -0.1172  0.1517
  194loPI   GL2 3094  15.387  11.377   9.736 -0.0444  0.6261 -0.0790
  194loPI   C1A 3095  15.142  11.649   9.392  0.1825 -0.0489 -0.3528
  194loPI   C2A 3096  15.383  11.779   9.299  0.0762  0.0869 -0.0975
  194loPI   C3A 3097  15.682  11.675   8.995  0.1015  0.2587 -0.1349
  194loPI   C4A 3098  15.779  11.463   8.714  0.0738  0.2259  0.1351
  194loPI   C5A 3099  15.801  11.513   8.349 -0.3054 -0.0855  0.0252
  194loPI   C6A 3100  15.717  11.649   7.929 -0.0465 -0.2037 -0.1448
  194loPI   C1B 3101  15.385  11.251   9.377 -0.1624 -0.4219  0.2133
  194loPI   C2B 3102  15.296  11.377   8.999 -0.1650 -0.1985  0.2739
  194loPI   C3B 3103  15.231  11.369   8.446 -0.0052 -0.0593  0.0123
  194loPI   C4B 3104  15.281  11.624   8.143 -0.3305 -0.1416 -0.4552
  195loPI    C1 3105   3.063   9.927  10.157  0.0048  0.0789  0.2527
  195loPI    C2 3106   2.930  10.256   9.973  0.0308  0.0094  0.1085
  195loPI    C3 3107   2.717  10.094  10.269 -0.1199 -0.0007 -0.0041
  195loPI   PO4 3108   3.324   9.771   9.889  0.0920 -0.2029 -0.0517
  195loPI   GL1 3109   3.235   9.705   9.536 -0.2987  0.0016 -0.2974
  195loPI   GL2 3110   2.916   9.573   9.370 -0.4592  0.2578  0.0693
  195loPI   C1A 3111   3.223  10.022   9.184  0.2895 -0.1171  0.0992
  195loPI   C2A 3112   3.147  10.157   8.697 -0.1189 -0.2912 -0.2283
  195loPI   C3A 3113   2.803  10.274   8.474 -0.3491 -0.1561  0.1162
  195loPI   C4A 3114   2.607  10.381   8.048  0.1690  0.2513  0.0650
  195loPI   C5A 3115   2.610  10.522   7.613  0.0822 -0.3442  0.0172
  195loPI   C6A 3116   2.709  10.767   7.273  0.0696  0.1433  0.3063
  195loPI   C1B 3117   2.663   9.468   9.080 -0.1774 -0.1513  0.0782
  195loPI   C2B 3118   2.461   9.357   8.643  0.5174 -0.1497 -0.2003
  195loPI   C3B 3119   2.611   9.376   8.202 -0.0009  0.0508  0.1819
  195loPI   C4B 3120   2.874   9.360   7.798 -0.0400  0.0326  0.4124
  196loPI    C1 3121   0.718   8.156   9.870  0.0463  0.1083 -0.3746
  196loPI    C2 3122   0.977   7.867   9.774  0.1197  0.1237 -0.2249
  196loPI    C3 3123   1.096   8.177   9.997 -0.0380  0.1097 -0.1198
  196loPI   PO4 3124   0.484   8.073   9.748 -0.2422 -0.0237  0.4206
  196loPI   GL1 3125   0.381   7.959   9.308 -0.1335 -0.0776 -0.1862
  196loPI   GL2 3126   0.152   8.221   9.366 -0.0800  0.3326  0.4287
  196loPI   C1A 3127  -0.108   7.880   9.197 -0.1514  0.1470  0.1223
  196loPI   C2A 3128  -0.273   7.939   8.849  0.0625 -0.1692  0.2573
  196loPI   C3A 3129  -0.423   7.961   8.400  0.1999  0.0293  0.5801
  196loPI   C4A 3130  -0.357   7.749   8.061 -0.0304 -0.2364  0.0713
  196loPI   C5A 3131  -0.588   7.526   7.747  0.0923  0.3098 -0.1652
  196loPI   C6A 3132  -0.963   7.280   7.722  0.2260 -0.2382  0.0437
  196loPI   C1B 3133   0.085   8.400   8.986  0.2269 -0.0817  0.0162
  196loPI   C2B 3134  -0.062   8.256   8.503 -0.1853  0.1278 -0.1210
  196loPI   C3B 3135  -0.096   8.185   8.038  0.1616  0.0972 -0.0524
  196loPI   C4B 3136   0.153   8.032   7.658 -0.3705  0.0601 -0.2155
  197loPI    C1 3137  14.538  10.047  10.060  0.1165 -0.1492  0.1225
  197loPI    C2 3138  14.433  10.233  10.398  0.1505 -0.0369  0.0717
  197loPI    C3 3139  14.445   9.834  10.385 -0.1196 -0.0487  0.1233
  197loPI   PO4 3140  14.711  10.180   9.997  0.1059  0.1775 -0.0572
  197loPI   GL1 3141  14.881  10.117   9.534 -0.2672  0.0231 -0.0282
  197loPI   GL2 3142  14.720   9.810   9.657  0.0914  0.0605  0.3419
  197loPI   C1A 3143  14.985  10.342   9.125  0.2351  0.1027 -0.0388
  197loPI   C2A 3144  15.199  10.461   8.775  0.0597  0.1929 -0.2328
  197loPI   C3A 3145  15.234  10.368   8.372  0.0326  0.1027 -0.0943
  197loPI   C4A 3146  15.054  10.188   7.982 -0.0415 -0.0477 -0.1098
  197loPI   C5A 3147  14.664  10.183   7.708 -0.0602  0.0112 -0.2565
  197loPI   C6A 3148  14.314  10.392   7.586 -0.0029 -0.2488  0.1267
  197loPI   C1B 3149  14.506   9.689   9.189 -0.2015  0.1313 -0.2457
  197loPI   C2B 3150  14.613   9.545   8.826  0.1999  0.4017 -0.1412
  197loPI   C3B 3151  14.746   9.321   8.504 -0.1787  0.1692  0.0495
  197loPI   C4B 3152  14.638   8.941   8.340 -0.2647  0.0435  0.2120
  198loPI    C1 3153  12.253   7.570   9.964 -0.1286 -0.0413 -0.1218
  198loPI    C2 3154  12.546   7.307   9.894 -0.2322 -0.1971  0.0209
  198loPI    C3 3155  12.478   7.436  10.267 -0.2499 -0.0473 -0.0335
  198loPI   PO4 3156  12.324   7.752   9.729  0.0670 -0.0477  0.2203
  198loPI   GL1 3157  12.370   7.799   9.254  0.1048  0.1478 -0.1322
  198loPI   GL2 3158  12.125   7.543   9.241 -0.1479  0.3022 -0.3689
  198loPI   C1A 3159  12.074   8.028   9.084  0.2259  0.0624 -0.3259
  198loPI   C2A 3160  11.915   7.986   8.624  0.0565  0.0612 -0.0842
  198loPI   C3A 3161  11.493   8.099   8.345 -0.3456 -0.0070 -0.0664
  198loPI   C4A 3162  11.316   8.057   8.040 -0.2746 -0.1339 -0.0008
  198loPI   C5A 3163  11.266   8.172   7.626  0.3026  0.1756  0.3476
  198loPI   C6A 3164  11.123   8.494   7.483 -0.1121  0.0986  0.0377
  198loPI   C1B 3165  11.968   7.451   8.894 -0.2054 -0.0802 -0.0513
  198loPI   C2B 3166  11.782   7.394   8.523 -0.0888  0.2691  0.0225
  198loPI   C3B 3167  11.754   7.650   8.191  0.1027 -0.1895  0.0641
  198loPI   C4B 3168  11.877   8.001   7.997  0.0024  0.0359  0.0101
  199loPI    C1 3169  11.953  12.668   9.597 -0.0923 -0.1179 -0.0493
  199loPI    C2 3170  11.639  12.871   9.454  0.1160  0.3153  0.0885
  199loPI    C3 3171  11.651  12.766   9.840  0.1473  0.3117  0.0866
  199loPI   PO4 3172  12.144  12.694   9.415 -0.1071  0.1375  0.3749
  199loPI   GL1 3173  12.177  12.836   8.989  0.0435 -0.0498  0.1587
  199loPI   GL2 3174  11.882  12.985   9.052 -0.1843  0.0313 -0.0647
  199loPI   C1A 3175  12.289  12.467   8.710 -0.0961  0.1287  0.3027
  199loPI   C2A 3176  12.602  12.250   8.503  0.0982 -0.1760 -0.1023
  199loPI   C3A 3177  12.744  12.219   8.047 -0.0015 -0.3470  0.1178
  199loPI   C4A 3178  13.081  12.336   7.881  0.1405  0.0878  0.0339
  199loPI   C5A 3179  13.373  12.282   7.551 -0.1364  0.1233  0.2178
  199loPI   C6A 3180  13.496  12.414   7.088 -0.3875 -0.2833  0.1260
  199loPI   C1B 3181  11.939  13.195   8.587  0.0734 -0.0052  0.3750
  199loPI   C2B 3182  12.178  13.224   8.224 -0.1635 -0.1584  0.1952
  199loPI   C3B 3183  12.537  13.335   8.315 -0.2249 -0.1495  0.0475
  199loPI   C4B 3184  12.840  13.403   8.573  0.0584  0.0851 -0.2097
  200loPI    C1 3185  10.049  10.804   9.638 -0.0124  0.0909 -0.1777
  200loPI    C2 3186  10.176  11.155   9.496  0.1394  0.1421  0.0768
  200loPI    C3 3187  10.277  11.041   9.866 -0.2222 -0.0013  0.1355
  200loPI   PO4 3188   9.968  10.686   9.413 -0.1543  0.1866  0.1750
  200loPI   GL1 3189   9.902  10.512   8.928  0.0397 -0.1767  0.0185
  200loPI   GL2 3190   9.594  10.580   8.978 -0.0312 -0.1780  0.4027
  200loPI   C1A 3191   9.720  10.567   8.509 -0.1784  0.1353  0.0147
  200loPI   C2A 3192   9.514  10.368   8.189  0.2534  0.1148  0.3953
  200loPI   C3A 3193   9.561   9.999   7.825  0.3678  0.2108 -0.2205
  200loPI   C4A 3194   9.492   9.915   7.390 -0.0916 -0.2687  0.1925
  200loPI   C5A 3195   9.670  10.090   6.997 -0.2883  0.0197  0.4640
  200loPI   C6A 3196  10.118  10.243   6.837 -0.0134  0.1558 -0.0585
  200loPI   C1B 3197   9.235  10.548   8.640 -0.2056 -0.0715  0.1969
  200loPI   C2B 3198   9.012  10.492   8.227 -0.1066 -0.0526 -0.1322
  200loPI   C3B 3199   9.217  10.594   7.888  0.4661 -0.1632  0.0670
  200loPI   C4B 3200   9.222  10.882   7.551  0.1195  0.0766 -0.1727
  201loPI    C1 3201   6.086  13.536   9.280 -0.0028 -0.0733 -0.3194
  201loPI    C2 3202   6.347  13.838   9.302 -0.0622 -0.0313 -0.1840
  201loPI    C3 3203   6.459  13.469   9.408 -0.1212  0.0280  0.0921
  201loPI   PO4 3204   5.857  13.907   9.263  0.0309 -0.1983  0.3946
  201loPI   GL1 3205   5.737  14.240   8.988 -0.3753 -0.1217 -0.0896
  201loPI   GL2 3206   5.877  14.505   9.127 -0.0771 -0.0367 -0.0915
  201loPI   C1A 3207   5.598  14.100   8.609  0.1349  0.0145 -0.1343
  201loPI   C2A 3208   5.647  14.038   8.234  0.3360  0.4616 -0.0999
  201loPI   C3A 3209   5.568  14.130   7.866  0.0039 -0.0069  0.2598
  201loPI   C4A 3210   5.797  14.128   7.506 -0.1071 -0.0865  0.3893
  201loPI   C5A 3211   6.182  14.474   7.319 -0.0288  0.0725 -0.0848
  201loPI   C6A 3212   6.068  14.879   7.254  0.0511 -0.5931  0.1813
  201loPI   C1B 3213   6.091  14.472   8.727 -0.1750 -0.5857 -0.0463
  201loPI   C2B 3214   6.084  14.282   8.433 -0.1170 -0.1357  0.2306
  201loPI   C3B 3215   6.027  14.429   8.007  0.0581  0.0291 -0.0443
  201loPI   C4B 3216   6.059  14.781   7.823  0.3959  0.3143 -0.2165
  202loPI    C1 3217  18.357   5.225  10.293 -0.2081  0.0572 -0.2281
  202loPI    C2 3218  18.009   5.032  10.332 -0.2742  0.2065 -0.0627
  202loPI    C3 3219  18.354   4.838  10.392 -0.3375  0.1233  0.0357
  202loPI   PO4 3220  18.230   5.502  10.196 -0.2334 -0.0427 -0.0349
  202loPI   GL1 3221  18.059   5.395   9.770 -0.1268 -0.1551 -0.1287
  202loPI   GL2 3222  18.032   5.516   9.566 -0.1416  0.1294  0.0124
  202loPI   C1A 3223  18.184   5.033   9.467  0.3524  0.0398  0.0819
  202loPI   C2A 3224  18.159   4.972   9.102  0.1355 -0.0525  0.0969
  202loPI   C3A 3225  18.135   4.994   8.671  0.3274 -0.1144 -0.0973
  202loPI   C4A 3226  18.200   5.164   8.234  0.0949 -0.1050  0.0043
  202loPI   C5A 3227  18.468   5.105   7.972 -0.1679 -0.1754 -0.0364
  202loPI   C6A 3228  18.685   5.020   7.551 -0.3431  0.1241  0.3212
  202loPI   C1B 3229  17.826   5.649   9.242 -0.1263 -0.2532  0.3567
  202loPI   C2B 3230  17.733   5.869   8.905  0.1601  0.0943 -0.2380
  202loPI   C3B 3231  17.472   5.887   8.487  0.1164  0.0154 -0.1459
  202loPI   C4B 3232  17.283   6.033   8.145 -0.0409 -0.2664 -0.0259
  203loPI    C1 3233   6.578  16.592   9.826 -0.1500 -0.2011 -0.0127
  203loPI    C2 3234   6.829  16.863   9.673 -0.2111  0.0965  0.3988
  203loPI    C3 3235   6.873  16.476   9.581  0.1347  0.1938  0.1340
  203loPI   PO4 3236   6.328  16.704   9.765 -0.2321  0.0811  0.3419
  203loPI   GL1 3237   6.355  16.896   9.355  0.1773  0.3703 -0.0518
  203loPI   GL2 3238   6.146  17.013   9.163 -0.0012  0.1695  0.1346
  203loPI   C1A 3239   6.736  16.655   9.152  0.1353 -0.2181 -0.1587
  203loPI   C2A 3240   6.836  16.358   8.783  0.1406 -0.1282 -0.1635
  203loPI   C3A 3241   7.051  16.577   8.406  0.5120  0.0270 -0.0201
  203loPI   C4A 3242   7.160  16.662   7.996 -0.0078  0.0934  0.0336
  203loPI   C5A 3243   6.931  16.625   7.651  0.2411  0.0988 -0.2556
  203loPI   C6A 3244   6.638  16.940   7.519  0.0154 -0.0367 -0.2006
  203loPI   C1B 3245   6.210  17.207   8.743  0.0806  0.0516  0.3128
  203loPI   C2B 3246   6.211  17.306   8.386  0.1878 -0.3082 -0.1446
  203loPI   C3B 3247   6.132  17.518   7.950 -0.0861 -0.0934 -0.1055
  203loPI   C4B 3248   6.139  17.658   7.564  0.2330  0.2510 -0.1231
  204loPI    C1 3249   4.665  16.376   9.981 -0.0764  0.1342  0.0879
  204loPI    C2 3250   4.566  15.997  10.059  0.0018  0.0674 -0.1307
  204loPI    C3 3251   4.948  16.094   9.995 -0.0016  0.2070  0.0522
  204loPI   PO4 3252   4.491  16.411   9.740 -0.0455  0.1116  0.4071
  204loPI   GL1 3253   4.518  16.403   9.269 -0.1231  0.1546 -0.0352
  204loPI   GL2 3254   4.337  16.549   9.153  0.1327  0.1137 -0.1367
  204loPI   C1A 3255   4.601  16.242   8.800 -0.2411  0.2019 -0.1256
  204loPI   C2A 3256   4.610  16.229   8.313 -0.0507 -0.3186 -0.2703
  204loPI   C3A 3257   4.399  16.252   7.852  0.0149 -0.0748  0.0334
  204loPI   C4A 3258   4.294  16.463   7.472  0.0050 -0.0100  0.0003
  204loPI   C5A 3259   4.554  16.599   7.099 -0.0765  0.0575 -0.1107
  204loPI   C6A 3260   4.455  16.575   6.702 -0.3616  0.2046  0.5465
  204loPI   C1B 3261   4.165  16.552   8.782 -0.1358 -0.2068  0.1183
  204loPI   C2B 3262   4.137  16.559   8.258 -0.3110  0.0524 -0.1931
  204loPI   C3B 3263   3.961  16.588   7.862  0.1299 -0.4785  0.3151
  204loPI   C4B 3264   3.778  16.690   7.398 -0.4161 -0.1673  0.3265
  205loPI    C1 3265  13.098   1.477  10.114 -0.1263 -0.0053  0.2476
  205loPI    C2 3266  13.351   1.545  10.416 -0.0179  0.0060  0.1548
  205loPI    C3 3267  13.077   1.255  10.447  0.0515 -0.0523  0.2284
  205loPI   PO4 3268  13.274   1.483   9.852  0.0292 -0.0236 -0.2386
  205loPI   GL1 3269  13.219   1.293   9.455 -0.3814  0.0417  0.1390
  205loPI   GL2 3270  13.016   1.519   9.293 -0.2740  0.3188  0.2106
  205loPI   C1A 3271  13.455   1.338   9.049 -0.0045  0.2964 -0.2315
  205loPI   C2A 3272  13.531   1.335   8.581 -0.1092  0.0538 -0.1612
  205loPI   C3A 3273  13.857   1.172   8.263 -0.2333 -0.2233 -0.3097
  205loPI   C4A 3274  13.854   1.084   7.806 -0.3023 -0.2096  0.1105
  205loPI   C5A 3275  13.567   1.183   7.420 -0.0293 -0.3282  0.1756
  205loPI   C6A 3276  13.135   1.293   7.445 -0.1169  0.0737 -0.1075
  205loPI   C1B 3277  12.982   1.280   8.883  0.1495 -0.0406  0.0641
  205loPI   C2B 3278  13.060   1.125   8.633 -0.1107 -0.2718  0.0576
  205loPI   C3B 3279  13.245   1.038   8.338 -0.0058  0.0483 -0.2423
  205loPI   C4B 3280  13.121   0.777   8.081 -0.0362 -0.0982  0.0576
  206loPI    C1 3281  15.477   7.442  10.071  0.1102 -0.0088 -0.1186
  206loPI    C2 3282  15.474   7.829  10.176  0.0651 -0.0075 -0.1243
  206loPI    C3 3283  15.309   7.555  10.417  0.1518 -0.0309 -0.0911
  206loPI   PO4 3284  15.497   7.474   9.763  0.0784 -0.0416  0.1826
  206loPI   GL1 3285  15.416   7.413   9.431  0.1178 -0.2481 -0.2952
  206loPI   GL2 3286  15.278   7.235   9.282 -0.0402 -0.1681 -0.2202
  206loPI   C1A 3287  15.728   7.691   9.096 -0.0626  0.1732 -0.1014
  206loPI   C2A 3288  15.741   8.172   9.109 -0.4886 -0.3930  0.1710
  206loPI   C3A 3289  15.913   8.419   8.632  0.6117  0.1847 -0.2491
  206loPI   C4A 3290  15.890   8.533   8.133 -0.1132 -0.1784  0.3435
  206loPI   C5A 3291  15.954   8.919   7.723 -0.0392  0.0767 -0.1406
  206loPI   C6A 3292  16.239   9.291   7.780  0.1821  0.3940  0.2276
  206loPI   C1B 3293  15.279   7.553   8.994  0.2408  0.4493  0.2494
  206loPI   C2B 3294  15.148   7.751   8.636  0.3195 -0.0734  0.3613
  206loPI   C3B 3295  15.383   7.734   8.181  0.0152  0.2213 -0.2429
  206loPI   C4B 3296  15.457   7.405   7.953 -0.4231  0.0591 -0.2492
  207loPI    C1 3297  12.315   6.804  10.016  0.1163  0.0630 -0.3060
  207loPI    C2 3298  12.458   6.976  10.348 -0.2457 -0.0994 -0.0592
  207loPI    C3 3299  12.122   7.115  10.179  0.1079  0.1900 -0.5528
  207loPI   PO4 3300  12.544   6.753   9.906 -0.1027 -0.0376  0.0157
  207loPI   GL1 3301  12.634   6.904   9.502 -0.1268 -0.0415 -0.1772
  207loPI   GL2 3302  12.505   7.191   9.457  0.2922  0.2141 -0.3768
  207loPI   C1A 3303  12.741   6.672   9.159  0.0263  0.1028 -0.0548
  207loPI   C2A 3304  12.848   6.420   8.769 -0.1507 -0.1536 -0.0234
  207loPI   C3A 3305  13.074   6.282   8.517 -0.0395 -0.2133 -0.2030
  207loPI   C4A 3306  13.211   6.137   8.189  0.1045 -0.0510 -0.0685
  207loPI   C5A 3307  13.535   5.895   7.997  0.0880 -0.0823 -0.0495
  207loPI   C6A 3308  13.595   5.508   7.808 -0.1492 -0.1503  0.0029
  207loPI   C1B 3309  12.448   7.042   9.055 -0.1066  0.2758  0.0099
  207loPI   C2B 3310  12.351   7.133   8.572  0.3017  0.2204  0.0680
  207loPI   C3B 3311  12.053   7.188   8.167 -0.1871 -0.0674  0.1033
  207loPI   C4B 3312  12.020   6.866   7.929 -0.4555 -0.0255 -0.2772
  208loPI    C1 3313  13.335  11.782  10.062  0.2124 -0.1206  0.0696
  208loPI    C2 3314  13.275  11.586   9.718  0.0134  0.0834 -0.0147
  208loPI    C3 3315  13.088  11.468  10.052  0.0195  0.0321 -0.0293
  208loPI   PO4 3316  13.492  11.969   9.988 -0.0124 -0.2188  0.2821
  208loPI   GL1 3317  13.472  12.194   9.539  0.3195 -0.0835  0.1067
  208loPI   GL2 3318  13.677  11.934   9.504  0.0915  0.0604  0.1593
  208loPI   C1A 3319  13.284  12.215   9.216 -0.2416 -0.0437  0.0226
  208loPI   C2A 3320  13.434  12.109   8.809 -0.0438 -0.2582 -0.2643
  208loPI   C3A 3321  13.714  12.447   8.597  0.2273 -0.1420 -0.1473
  208loPI   C4A 3322  13.899  12.583   8.207 -0.3442  0.1154  0.1296
  208loPI   C5A 3323  14.021  12.501   7.860 -0.0238  0.2683  0.1072
  208loPI   C6A 3324  14.348  12.203   7.613  0.0581  0.2944  0.1447
  208loPI   C1B 3325  13.821  11.984   9.073 -0.1627 -0.1356  0.1829
  208loPI   C2B 3326  13.854  11.936   8.681  0.1159  0.2718 -0.3465
  208loPI   C3B 3327  13.659  11.974   8.259  0.3454 -0.2551  0.0477
  208loPI   C4B 3328  13.513  12.318   7.988 -0.2761  0.1653  0.1942
  209loPI    C1 3329  11.533  16.847  10.170 -0.0033  0.2000 -0.2819
  209loPI    C2 3330  11.222  17.099  10.162 -0.0919  0.1084  0.0771
  209loPI    C3 3331  11.401  17.012  10.509  0.1286 -0.0938 -0.0830
  209loPI   PO4 3332  11.623  16.866   9.976  0.0208 -0.0575 -0.0361
  209loPI   GL1 3333  11.630  16.822   9.579  0.1886  0.2126  0.0918
  209loPI   GL2 3334  11.819  16.615   9.549 -0.2172  0.3728 -0.0333
  209loPI   C1A 3335  11.868  17.048   9.242  0.1456 -0.0114 -0.0301
  209loPI   C2A 3336  11.872  17.009   8.833 -0.1085  0.0735 -0.1596
  209loPI   C3A 3337  11.795  16.710   8.616 -0.2917 -0.3766 -0.0728
  209loPI   C4A 3338  11.637  16.502   8.267 -0.2008  0.2053  0.1164
  209loPI   C5A 3339  11.272  16.459   7.960 -0.1374  0.2242 -0.0498
  209loPI   C6A 3340  11.202  16.135   7.618  0.2105 -0.3314  0.0083
  209loPI   C1B 3341  11.759  16.641   9.118  0.0253  0.0257  0.0554
  209loPI   C2B 3342  11.397  16.575   8.907  0.0302  0.0298 -0.1039
  209loPI   C3B 3343  11.198  16.266   8.594 -0.1212  0.1085 -0.0509
  209loPI   C4B 3344  10.891  16.305   8.269 -0.1986  0.2448 -0.2992
  210loPI    C1 3345   7.232   5.250  10.006  0.0033  0.2172  0.0992
  210loPI    C2 3346   7.550   5.195  10.242 -0.0072  0.1342  0.0943
  210loPI    C3 3347   7.204   5.012  10.326  0.0551 -0.0870 -0.1181
  210loPI   PO4 3348   7.388   5.208   9.778  0.0199 -0.5051  0.0747
  210loPI   GL1 3349   7.415   5.372   9.349 -0.0614 -0.1576  0.0112
  210loPI   GL2 3350   7.690   5.436   9.406 -0.2300  0.1255  0.1375
  210loPI   C1A 3351   7.253   5.315   8.923 -0.0753 -0.2904  0.0546
  210loPI   C2A 3352   7.357   5.257   8.429 -0.2998  0.1784 -0.1269
  210loPI   C3A 3353   7.600   4.954   8.186 -0.0304  0.2025  0.0278
  210loPI   C4A 3354   7.433   4.861   7.775 -0.1039 -0.2870  0.1307
  210loPI   C5A 3355   7.158   4.630   7.448  0.0045  0.0611 -0.1388
  210loPI   C6A 3356   6.982   4.392   7.237 -0.4037  0.0209 -0.3920
  210loPI   C1B 3357   7.711   5.609   8.931  0.1327 -0.1526 -0.1776
  210loPI   C2B 3358   7.693   5.639   8.476  0.2466  0.1204  0.2903
  210loPI   C3B 3359   7.403   5.614   8.149  0.2742 -0.2703 -0.0225
  210loPI   C4B 3360   7.483   5.358   7.905 -0.0470  0.1775  0.1126
  211loPI    C1 3361  10.051  14.401   9.878  0.1795 -0.1147  0.2695
  211loPI    C2 3362  10.305  14.680   9.748 -0.1816  0.0928 -0.0099
  211loPI    C3 3363  10.398  14.460  10.068  0.4893 -0.0598 -0.2904
  211loPI   PO4 3364   9.840  14.498   9.715 -0.1331 -0.1630 -0.1586
  211loPI   GL1 3365   9.783  14.620   9.281  0.0249  0.2683 -0.2076
  211loPI   GL2 3366  10.079  14.797   9.323 -0.0565  0.1339  0.3432
  211loPI   C1A 3367   9.944  14.413   8.849  0.0032  0.0247  0.1312
  211loPI   C2A 3368  10.005  14.474   8.386 -0.3232  0.0154 -0.2315
  211loPI   C3A 3369  10.037  14.690   7.974 -0.2155 -0.0717  0.0337
  211loPI   C4A 3370   9.857  14.808   7.568  0.2135  0.1785  0.1262
  211loPI   C5A 3371   9.515  15.096   7.422 -0.1262  0.1383 -0.1365
  211loPI   C6A 3372   9.140  15.363   7.114  0.0966 -0.1898  0.1387
  211loPI   C1B 3373  10.012  14.890   8.934 -0.1102  0.1444  0.0013
  211loPI   C2B 3374   9.996  14.969   8.453 -0.0645  0.4034 -0.1052
  211loPI   C3B 3375   9.799  15.067   8.146  0.4581 -0.0206 -0.0620
  211loPI   C4B 3376   9.471  15.012   7.909 -0.4491 -0.2895  0.0029
  212loPI    C1 3377   3.831   1.734   9.550 -0.0547  0.0628  0.1056
  212loPI    C2 3378   3.798   1.382   9.736 -0.0828  0.1107  0.1920
  212loPI    C3 3379   3.479   1.619   9.700 -0.1013  0.0568 -0.0079
  212loPI   PO4 3380   4.076   1.730   9.466  0.0299 -0.1419 -0.0612
  212loPI   GL1 3381   4.125   1.346   9.212  0.2211  0.0381  0.3670
  212loPI   GL2 3382   3.790   1.431   9.165  0.0823 -0.0451 -0.2038
  212loPI   C1A 3383   4.398   1.074   8.986 -0.0991  0.0216  0.5139
  212loPI   C2A 3384   4.337   1.051   8.465 -0.1247  0.1746  0.1219
  212loPI   C3A 3385   4.084   0.777   8.316  0.3770  0.2448  0.2615
  212loPI   C4A 3386   3.787   0.754   8.005  0.3119 -0.1437  0.0250
  212loPI   C5A 3387   3.462   0.843   7.734  0.0498 -0.0782 -0.2486
  212loPI   C6A 3388   3.286   1.111   7.507 -0.0201  0.2120  0.2245
  212loPI   C1B 3389   3.637   1.561   8.814 -0.0706 -0.3161  0.1226
  212loPI   C2B 3390   3.598   1.902   8.554  0.0197  0.0485 -0.0804
  212loPI   C3B 3391   3.728   2.276   8.296  0.1158 -0.0003 -0.2791
  212loPI   C4B 3392   3.733   2.450   7.914 -0.2114  0.1650  0.1333
  213loPI    C1 3393  11.887  13.261   9.801 -0.0281 -0.0712 -0.2022
  213loPI    C2 3394  12.239  13.073   9.777 -0.1155 -0.2410 -0.1679
  213loPI    C3 3395  12.013  13.032  10.104 -0.0374  0.1004 -0.0676
  213loPI   PO4 3396  11.976  13.469   9.655  0.0696  0.2292  0.0846
  213loPI   GL1 3397  12.186  13.650   9.390  0.0595  0.0239 -0.0931
  213loPI   GL2 3398  12.200  13.243   9.281 -0.1112 -0.0796 -0.1026
  213loPI   C1A 3399  12.398  13.884   9.071 -0.1329 -0.0848  0.1387
  213loPI   C2A 3400  12.762  13.911   9.021  0.2608 -0.1597 -0.1701
  213loPI   C3A 3401  13.038  13.945   8.669 -0.2950 -0.1406  0.2047
  213loPI   C4A 3402  13.227  13.683   8.434  0.2380  0.6875  0.0648
  213loPI   C5A 3403  13.552  13.598   8.381  0.0288  0.1563  0.2218
  213loPI   C6A 3404  13.898  13.477   8.377  0.1494  0.2220  0.1099
  213loPI   C1B 3405  12.316  13.426   8.835  0.1970  0.4065 -0.4456
  213loPI   C2B 3406  12.448  13.784   8.567 -0.1147 -0.1570  0.1554
  213loPI   C3B 3407  12.674  13.880   8.304  0.0266  0.1753  0.0352
  213loPI   C4B 3408  12.887  13.611   7.898  0.3623  0.2499  0.1494
  214loPI    C1 3409   4.837   4.412   9.984 -0.1319 -0.0430  0.0768
  214loPI    C2 3410   4.808   4.133  10.269  0.0581 -0.0705  0.0708
  214loPI    C3 3411   4.477   4.296  10.114 -0.0478 -0.0996  0.2628
  214loPI   PO4 3412   4.974   4.325   9.801  0.3043  0.3585 -0.1503
  214loPI   GL1 3413   5.322   4.467   9.459 -0.1724  0.2848  0.0664
  214loPI   GL2 3414   5.145   4.681   9.316 -0.5787 -0.2717 -0.2755
  214loPI   C1A 3415   5.568   4.498   9.213 -0.2541  0.2030  0.1067
  214loPI   C2A 3416   5.813   4.381   8.851 -0.1656 -0.0112 -0.0894
  214loPI   C3A 3417   5.841   4.228   8.441 -0.1965  0.0710 -0.0108
  214loPI   C4A 3418   5.983   4.338   8.060 -0.3668 -0.1908 -0.0103
  214loPI   C5A 3419   5.964   4.324   7.562  0.2333 -0.1400  0.0993
  214loPI   C6A 3420   5.839   4.131   7.126  0.2169 -0.1782 -0.1334
  214loPI   C1B 3421   5.157   4.627   8.852 -0.1971  0.0198 -0.1808
  214loPI   C2B 3422   5.057   4.630   8.455 -0.0180  0.0870  0.0223
  214loPI   C3B 3423   5.215   4.958   8.253 -0.1404  0.0385  0.2613
  214loPI   C4B 3424   5.305   5.288   8.592 -0.2445  0.2103  0.0712
  215loPI    C1 3425  17.231  18.066  10.273 -0.0320 -0.3072  0.1630
  215loPI    C2 3426  17.448  17.885  10.556 -0.0543 -0.2527  0.2149
  215loPI    C3 3427  17.630  18.082  10.259 -0.0329 -0.0911  0.3336
  215loPI   PO4 3428  17.058  17.906  10.075  0.2327  0.1091  0.0831
  215loPI   GL1 3429  17.032  18.139   9.681 -0.0978 -0.0582 -0.3924
  215loPI   GL2 3430  16.795  17.851   9.606 -0.0226 -0.0572 -0.0484
  215loPI   C1A 3431  16.818  18.142   9.216 -0.1418  0.0995 -0.2789
  215loPI   C2A 3432  16.622  18.072   8.848 -0.2740 -0.1890  0.1427
  215loPI   C3A 3433  16.442  18.184   8.512 -0.0214  0.1368 -0.3430
  215loPI   C4A 3434  16.438  18.239   8.081  0.1544  0.3033  0.0927
  215loPI   C5A 3435  16.692  18.221   7.802  0.1272 -0.0476 -0.1323
  215loPI   C6A 3436  17.024  18.390   7.619 -0.1164  0.1540 -0.1582
  215loPI   C1B 3437  16.635  17.651   9.241 -0.4689 -0.1448 -0.1397
  215loPI   C2B 3438  16.738  17.577   8.755 -0.0035  0.1623  0.1657
  215loPI   C3B 3439  16.769  17.393   8.348  0.0660 -0.1585 -0.0156
  215loPI   C4B 3440  16.926  17.209   7.903  0.2182 -0.1564 -0.3200
  216loPI    C1 3441   8.087  16.880   9.977  0.0164  0.1495 -0.3130
  216loPI    C2 3442   7.777  16.817   9.732 -0.1603 -0.2635  0.0039
  216loPI    C3 3443   7.747  16.725  10.120  0.2692 -0.0458  0.0949
  216loPI   PO4 3444   8.191  17.154   9.914  0.0819  0.3772  0.0876
  216loPI   GL1 3445   8.128  17.291   9.516 -0.0046 -0.0725  0.1472
  216loPI   GL2 3446   7.875  17.366   9.588 -0.1502  0.1487  0.2159
  216loPI   C1A 3447   8.430  17.537   9.234  0.2098  0.2363 -0.4360
  216loPI   C2A 3448   8.407  17.638   8.781  0.1153 -0.4608 -0.0566
  216loPI   C3A 3449   8.532  17.737   8.392 -0.0666  0.0395  0.1322
  216loPI   C4A 3450   8.497  17.622   7.903 -0.0938  0.0461 -0.0124
  216loPI   C5A 3451   8.635  17.733   7.430 -0.1400  0.1262  0.2523
  216loPI   C6A 3452   8.458  17.976   7.105  0.3000  0.3461 -0.0383
  216loPI   C1B 3453   7.871  17.004   9.205  0.1762  0.0931  0.1659
  216loPI   C2B 3454   8.019  16.783   8.865 -0.0298  0.0469  0.2527
  216loPI   C3B 3455   8.086  16.886   8.363  0.0183  0.1653  0.1465
  216loPI   C4B 3456   8.095  16.850   7.897 -0.2474  0.4255  0.1159
  217loPI    C1 3457   2.320   4.924   9.688  0.1410 -0.1518 -0.2169
  217loPI    C2 3458   2.688   4.870   9.835  0.0736  0.3049  0.1460
  217loPI    C3 3459   2.369   4.805  10.067 -0.0869 -0.1535 -0.1864
  217loPI   PO4 3460   2.367   4.794   9.430 -0.0106  0.1229 -0.3119
  217loPI   GL1 3461   2.291   4.489   9.165  0.0295 -0.1850  0.0726
  217loPI   GL2 3462   2.220   4.151   9.299 -0.0753 -0.1329  0.0259
  217loPI   C1A 3463   2.320   4.382   8.852 -0.1061 -0.4085  0.1417
  217loPI   C2A 3464   2.363   4.106   8.555  0.0650 -0.2224  0.0952
  217loPI   C3A 3465   2.218   4.262   8.188  0.0754 -0.2225  0.2238
  217loPI   C4A 3466   2.057   4.411   7.798 -0.0098 -0.3770  0.0178
  217loPI   C5A 3467   2.201   4.844   7.562  0.0836 -0.0218 -0.0079
  217loPI   C6A 3468   2.090   5.226   7.498  0.0417 -0.3105 -0.1770
  217loPI   C1B 3469   1.997   3.974   8.988  0.0002  0.2303 -0.1421
  217loPI   C2B 3470   1.871   4.000   8.484  0.2293 -0.1453 -0.2932
  217loPI   C3B 3471   1.876   3.923   8.057  0.3149  0.1690 -0.2994
  217loPI   C4B 3472   2.079   3.482   8.021 -0.0936  0.4368 -0.2998
  218loPI    C1 3473   0.344  13.813  10.047  0.0879  0.2507 -0.2070
  218loPI    C2 3474   0.584  13.772  10.364 -0.0745 -0.3246 -0.1482
  218loPI    C3 3475   0.196  13.852  10.417  0.0148  0.1975 -0.2306
  218loPI   PO4 3476   0.416  13.649   9.840 -0.1967 -0.0579 -0.1616
  218loPI   GL1 3477   0.654  13.541   9.407 -0.0334 -0.0508  0.0571
  218loPI   GL2 3478   0.318  13.655   9.329  0.1047  0.3333 -0.2027
  218loPI   C1A 3479   0.729  13.389   8.996  0.2650 -0.2668 -0.3942
  218loPI   C2A 3480   0.785  13.423   8.568  0.2780 -0.3983 -0.2025
  218loPI   C3A 3481   0.823  13.550   8.198 -0.1025 -0.0400  0.1190
  218loPI   C4A 3482   0.687  13.444   7.792  0.1280  0.2882 -0.1720
  218loPI   C5A 3483   0.489  13.714   7.498  0.2535  0.0235  0.2719
  218loPI   C6A 3484   0.136  13.860   7.404 -0.0602  0.0377  0.0627
  218loPI   C1B 3485   0.102  13.830   9.038  0.1600  0.3554 -0.5105
  218loPI   C2B 3486   0.269  14.152   8.725 -0.5035 -0.0319  0.1197
  218loPI   C3B 3487   0.212  14.404   8.288  0.0721 -0.2480 -0.1697
  218loPI   C4B 3488   0.188  14.641   7.961  0.1498  0.0868 -0.1097
  219loPI    C1 3489   9.425  12.511   9.756  0.1694 -0.1036 -0.0416
  219loPI    C2 3490   9.496  12.869   9.591  0.0983 -0.1328 -0.1362
  219loPI    C3 3491   9.744  12.724   9.869  0.2050 -0.0719 -0.1992
  219loPI   PO4 3492   9.377  12.349   9.531  0.1023 -0.2230  0.0350
  219loPI   GL1 3493   9.166  12.355   9.229  0.2260  0.1202  0.1985
  219loPI   GL2 3494   9.373  12.205   9.047 -0.1807 -0.1961  0.3110
  219loPI   C1A 3495   9.414  12.730   8.986  0.1917  0.0577 -0.3870
  219loPI   C2A 3496   9.617  12.936   8.639  0.1220 -0.2263  0.2221
  219loPI   C3A 3497   9.836  12.823   8.365 -0.2830  0.0972  0.3241
  219loPI   C4A 3498   9.959  13.051   8.027 -0.4251  0.1102  0.3451
  219loPI   C5A 3499  10.105  13.317   7.701  0.1969 -0.2237  0.1012
  219loPI   C6A 3500  10.340  13.384   7.354  0.0273  0.0036 -0.0461
  219loPI   C1B 3501   9.537  11.903   8.801  0.3196 -0.1670 -0.1085
  219loPI   C2B 3502   9.655  11.529   8.575  0.0799  0.0787 -0.0010
  219loPI   C3B 3503   9.786  11.449   8.247  0.1689  0.1260  0.1631
  219loPI   C4B 3504  10.056  11.531   7.888 -0.2406  0.2582 -0.0639
  220loPI    C1 3505   7.401  11.648   9.191  0.1852  0.0034 -0.0759
  220loPI    C2 3506   7.780  11.563   9.094  0.1010 -0.1004 -0.3228
  220loPI    C3 3507   7.492  11.292   9.033 -0.0073 -0.0401 -0.0919
  220loPI   PO4 3508   7.350  11.870   9.110 -0.3748 -0.0290 -0.1466
  220loPI   GL1 3509   7.315  11.877   8.571  0.1697 -0.0144  0.2500
  220loPI   GL2 3510   7.521  11.677   8.600 -0.0630 -0.0060 -0.0948
  220loPI   C1A 3511   7.236  11.945   8.183 -0.2695  0.0910 -0.0250
  220loPI   C2A 3512   7.291  11.953   7.694  0.2445 -0.1125 -0.1887
  220loPI   C3A 3513   7.302  11.925   7.291 -0.2775 -0.2167 -0.0367
  220loPI   C4A 3514   7.480  11.470   7.091  0.5033 -0.1402 -0.0928
  220loPI   C5A 3515   7.632  11.079   7.325  0.2121  0.0776  0.0221
  220loPI   C6A 3516   7.835  10.715   7.493 -0.2019  0.2850  0.0767
  220loPI   C1B 3517   7.793  11.957   8.380 -0.0850 -0.0275 -0.0667
  220loPI   C2B 3518   7.803  12.165   8.012 -0.2111  0.2581  0.1207
  220loPI   C3B 3519   7.722  12.183   7.590 -0.1363  0.3572  0.2243
  220loPI   C4B 3520   7.873  11.859   7.196 -0.0212  0.1071 -0.0559
  221loPI    C1 3521   1.947   3.776   9.518  0.1338  0.1834  0.0275
  221loPI    C2 3522   2.278   3.889   9.712  0.1112  0.2801  0.0103
  221loPI    C3 3523   2.239   3.511   9.586  0.2830  0.3059 -0.1248
  221loPI   PO4 3524   1.794   3.934   9.673  0.2485 -0.0932  0.1412
  221loPI   GL1 3525   1.608   4.180   9.359 -0.1448  0.1432  0.0901
  221loPI   GL2 3526   1.415   4.363   9.544 -0.1103  0.1884  0.0677
  221loPI   C1A 3527   1.496   4.060   8.964  0.1187  0.1475  0.2983
  221loPI   C2A 3528   1.330   3.938   8.586  0.1425  0.0729 -0.3824
  221loPI   C3A 3529   1.311   3.976   8.169  0.1134 -0.1418 -0.3501
  221loPI   C4A 3530   0.996   4.122   7.905 -0.1145  0.0632  0.0415
  221loPI   C5A 3531   0.717   3.940   7.553 -0.0364  0.0213 -0.0244
  221loPI   C6A 3532   0.731   3.714   7.130  0.0451  0.0156  0.3099
  221loPI   C1B 3533   1.260   4.433   9.079 -0.1474  0.1830 -0.1232
  221loPI   C2B 3534   1.041   4.451   8.693 -0.0249  0.0416 -0.1182
  221loPI   C3B 3535   1.087   4.508   8.313  0.0671  0.1127 -0.0157
  221loPI   C4B 3536   1.121   4.600   7.862  0.0220  0.1498 -0.2299
  222loPI    C1 3537   6.332  17.242   9.694 -0.3376 -0.1906  0.1638
  222loPI    C2 3538   6.106  17.517   9.876  0.1301  0.2861  0.0512
  222loPI    C3 3539   6.073  17.460   9.481 -0.1048  0.0318  0.1037
  222loPI   PO4 3540   6.547  17.315   9.727 -0.2723 -0.0916  0.1242
  222loPI   GL1 3541   6.716  17.267   9.396 -0.2509  0.2239 -0.2149
  222loPI   GL2 3542   6.899  17.518   9.310  0.0645 -0.0355 -0.2966
  222loPI   C1A 3543   6.671  17.181   8.951  0.1242 -0.2379 -0.1052
  222loPI   C2A 3544   6.547  16.806   8.690 -0.1228 -0.0732 -0.0676
  222loPI   C3A 3545   6.523  16.486   8.382  0.2189  0.4046  0.0245
  222loPI   C4A 3546   6.483  16.546   7.960 -0.1689  0.1414 -0.2056
  222loPI   C5A 3547   6.372  16.472   7.458  0.0975  0.1559 -0.1361
  222loPI   C6A 3548   6.699  16.354   7.167  0.0955  0.0548 -0.0139
  222loPI   C1B 3549   7.028  17.519   8.867 -0.1327  0.0862  0.0831
  222loPI   C2B 3550   6.837  17.482   8.458  0.1584  0.0451 -0.1017
  222loPI   C3B 3551   6.595  17.677   8.149  0.1698 -0.3051 -0.1924
  222loPI   C4B 3552   6.626  17.525   7.708 -0.1003  0.0708  0.1226
  223loPI    C1 3553  12.260  14.368   9.983 -0.0039  0.0989 -0.0237
  223loPI    C2 3554  12.594  14.421  10.197  0.0406 -0.1466 -0.0293
  223loPI    C3 3555  12.239  14.522  10.351  0.0995 -0.0587  0.0495
  223loPI   PO4 3556  12.330  14.539   9.771  0.0239  0.0719 -0.2363
  223loPI   GL1 3557  12.354  14.542   9.274 -0.0203  0.0641 -0.0655
  223loPI   GL2 3558  12.570  14.330   9.214  0.0225  0.1812 -0.0420
  223loPI   C1A 3559  12.325  14.810   8.910 -0.2433  0.1040  0.2241
  223loPI   C2A 3560  12.334  14.812   8.518  0.0574 -0.1299 -0.2682
  223loPI   C3A 3561  12.520  14.714   8.173 -0.0315  0.0533  0.3405
  223loPI   C4A 3562  12.803  14.478   7.854  0.3339 -0.3737  0.0034
  223loPI   C5A 3563  13.043  14.154   7.592  0.2466  0.1927 -0.3555
  223loPI   C6A 3564  13.040  13.665   7.457  0.0770  0.0467 -0.0664
  223loPI   C1B 3565  12.687  14.387   8.776 -0.0084 -0.0215  0.0962
  223loPI   C2B 3566  12.746  14.357   8.366 -0.0444  0.3023 -0.0101
  223loPI   C3B 3567  13.100  14.112   8.124 -0.0793 -0.1470 -0.0878
  223loPI   C4B 3568  13.340  13.808   7.962 -0.1730  0.0326  0.1310
  224loPI    C1 3569   4.731  10.089   9.817  0.0727 -0.1396  0.0090
  224loPI    C2 3570   4.430  10.001  10.065 -0.0121  0.2325  0.0436
  224loPI    C3 3571   4.779  10.128  10.213  0.0901  0.0159 -0.0080
  224loPI   PO4 3572   4.586  10.209   9.636 -0.1252 -0.2490  0.1034
  224loPI   GL1 3573   4.681  10.294   9.250 -0.1200 -0.2748  0.1087
  224loPI   GL2 3574   4.966  10.224   9.192 -0.1264  0.1362 -0.2399
  224loPI   C1A 3575   4.366  10.433   8.890 -0.2127  0.0629  0.0761
  224loPI   C2A 3576   4.088  10.381   8.481  0.1016 -0.0260 -0.0525
  224loPI   C3A 3577   4.112  10.175   8.064  0.0455 -0.1259  0.0042
  224loPI   C4A 3578   4.110  10.200   7.691  0.0502 -0.1791 -0.0841
  224loPI   C5A 3579   4.297  10.577   7.564 -0.1298  0.0993  0.0278
  224loPI   C6A 3580   4.184  11.034   7.547  0.0372 -0.0670 -0.0171
  224loPI   C1B 3581   4.756   9.966   8.932 -0.1227  0.0347 -0.0136
  224loPI   C2B 3582   4.837   9.897   8.499  0.1253 -0.1136 -0.1629
  224loPI   C3B 3583   4.883   9.752   7.953 -0.0050 -0.3748 -0.0070
  224loPI   C4B 3584   4.672   9.653   7.494  0.0352  0.0021  0.1018
  225loPI    C1 3585   2.904  11.412   9.568 -0.2373 -0.1106  0.0702
  225loPI    C2 3586   2.988  11.800   9.614  0.0515 -0.1545 -0.0665
  225loPI    C3 3587   2.619  11.687   9.509 -0.0093  0.0890 -0.1227
  225loPI   PO4 3588   3.086  11.337   9.458 -0.2161 -0.2024 -0.3275
  225loPI   GL1 3589   3.306  11.487   9.097 -0.0617  0.1703  0.0099
  225loPI   GL2 3590   3.282  11.139   9.022 -0.3413 -0.0733  0.2203
  225loPI   C1A 3591   3.114  11.501   8.734 -0.2681 -0.4654  0.0240
  225loPI   C2A 3592   3.227  11.624   8.340 -0.3146  0.0299  0.0308
  225loPI   C3A 3593   3.322  12.012   8.226  0.2357 -0.3342 -0.2215
  225loPI   C4A 3594   3.267  12.275   7.937  0.1942  0.0727 -0.0237
  225loPI   C5A 3595   3.447  12.250   7.507 -0.2066  0.1869 -0.1741
  225loPI   C6A 3596   3.255  12.422   7.031  0.0941 -0.0221 -0.0497
  225loPI   C1B 3597   3.346  11.089   8.538 -0.0957  0.0358 -0.2755
  225loPI   C2B 3598   3.335  11.159   8.129 -0.1376  0.2150 -0.0485
  225loPI   C3B 3599   3.274  11.385   7.844  0.1757 -0.1567 -0.3313
  225loPI   C4B 3600   3.316  11.813   7.789  0.0719  0.0018  0.0629
  226loPI    C1 3601   7.159  14.457   9.591  0.0812 -0.2735  0.0565
  226loPI    C2 3602   7.554  14.517   9.581  0.0808 -0.2537  0.1462
  226loPI    C3 3603   7.374  14.432   9.928 -0.0686  0.2575  0.2014
  226loPI   PO4 3604   7.125  14.370   9.330 -0.0954  0.0983 -0.2928
  226loPI   GL1 3605   6.993  14.176   8.891  0.0212 -0.1831 -0.1987
  226loPI   GL2 3606   7.110  14.570   8.859 -0.1215  0.2272  0.1348
  226loPI   C1A 3607   7.016  14.295   8.389  0.2200  0.0692  0.0122
  226loPI   C2A 3608   7.067  14.466   7.959  0.1039 -0.3054  0.3061
  226loPI   C3A 3609   7.165  14.703   7.739  0.1069  0.2907  0.1024
  226loPI   C4A 3610   7.014  14.905   7.436 -0.1212 -0.2409  0.1009
  226loPI   C5A 3611   6.954  14.618   7.057 -0.1745 -0.0653 -0.1500
  226loPI   C6A 3612   6.976  14.324   6.554 -0.1450 -0.1059  0.2563
  226loPI   C1B 3613   7.293  14.754   8.464 -0.2519 -0.0201  0.3201
  226loPI   C2B 3614   7.413  14.928   8.027 -0.2483 -0.1252  0.1884
  226loPI   C3B 3615   7.445  15.149   7.634 -0.4587 -0.0849  0.1148
  226loPI   C4B 3616   7.541  14.796   7.263 -0.0195 -0.3538  0.3114
  227loPI    C1 3617   1.980   9.175  10.106 -0.1603  0.0584 -0.0028
  227loPI    C2 3618   2.332   9.147  10.294 -0.0034  0.1520 -0.2773
  227loPI    C3 3619   2.055   9.405  10.424  0.0346  0.0903 -0.0707
  227loPI   PO4 3620   2.117   9.140   9.837  0.0431 -0.2193  0.0567
  227loPI   GL1 3621   2.214   9.306   9.436 -0.4048 -0.0233  0.4078
  227loPI   GL2 3622   2.578   9.275   9.651  0.1058 -0.0945  0.0584
  227loPI   C1A 3623   1.978   9.299   9.057 -0.1616 -0.2206 -0.3199
  227loPI   C2A 3624   1.830   9.435   8.588 -0.0271  0.1719  0.2597
  227loPI   C3A 3625   1.668   9.360   8.263 -0.0217  0.0268  0.3096
  227loPI   C4A 3626   1.545   9.158   7.923 -0.1699  0.0756  0.0907
  227loPI   C5A 3627   1.808   8.876   7.787 -0.2600 -0.1483 -0.0877
  227loPI   C6A 3628   2.254   8.665   7.824  0.1804 -0.0430  0.1668
  227loPI   C1B 3629   2.809   9.074   9.403  0.4004  0.0321  0.1886
  227loPI   C2B 3630   2.835   8.742   9.100 -0.3516  0.1301 -0.0676
  227loPI   C3B 3631   2.626   8.757   8.697 -0.1588  0.0615  0.0372
  227loPI   C4B 3632   2.577   8.505   8.445  0.0454 -0.0056  0.0422
  228loPI    C1 3633  10.391   0.444  10.523 -0.0480 -0.1850 -0.0559
  228loPI    C2 3634  10.666   0.570  10.784 -0.0353 -0.2474 -0.0388
  228loPI    C3 3635  10.290   0.704  10.810  0.0639  0.0858 -0.2582
  228loPI   PO4 3636  10.495   0.441  10.248 -0.4636 -0.1345  0.0319
  228loPI   GL1 3637  10.545   0.464   9.769 -0.0270  0.1001  0.1809
  228loPI   GL2 3638  10.887   0.478   9.644  0.2054  0.1385  0.0868
  228loPI   C1A 3639  10.487   0.577   9.283  0.0713  0.0369  0.0791
  228loPI   C2A 3640  10.338   0.630   8.853 -0.1183 -0.0802 -0.0597
  228loPI   C3A 3641  10.301   0.852   8.483  0.0152 -0.0804  0.2781
  228loPI   C4A 3642  10.365   0.627   8.089 -0.2871  0.1922  0.0961
  228loPI   C5A 3643  10.620   0.600   7.693  0.1168  0.0951  0.2016
  228loPI   C6A 3644  10.590   0.704   7.233  0.0031  0.0536  0.0679
  228loPI   C1B 3645  11.018   0.584   9.324 -0.1897  0.0873 -0.1535
  228loPI   C2B 3646  10.904   0.812   8.998  0.0633  0.2369 -0.2097
  228loPI   C3B 3647  10.783   0.867   8.584  0.1340  0.1419  0.2745
  228loPI   C4B 3648  10.700   0.939   8.133 -0.2148 -0.1071 -0.0286
  229loPI    C1 3649  13.023   7.213  10.271 -0.1765  0.0011 -0.0698
  229loPI    C2 3650  13.422   7.193  10.240 -0.1796  0.0341 -0.1322
  229loPI    C3 3651  13.254   7.326  10.578 -0.1399 -0.0690 -0.0714
  229loPI   PO4 3652  12.918   6.917  10.118  0.2734 -0.1249  0.0574
  229loPI   GL1 3653  13.074   6.703   9.633 -0.2653 -0.0181 -0.1059
  229loPI   GL2 3654  12.833   6.420   9.653  0.1308  0.1845 -0.2984
  229loPI   C1A 3655  13.202   6.595   9.288 -0.2026 -0.1655  0.2908
  229loPI   C2A 3656  13.342   6.452   8.981  0.2456 -0.3871  0.3419
  229loPI   C3A 3657  13.602   6.418   8.742  0.2100  0.4753 -0.1315
  229loPI   C4A 3658  13.719   6.059   8.491  0.1195 -0.2469 -0.0299
  229loPI   C5A 3659  13.678   5.608   8.412 -0.1680 -0.1030  0.0871
  229loPI   C6A 3660  13.771   5.195   8.187  0.0157 -0.1176 -0.2073
  229loPI   C1B 3661  12.840   6.158   9.239 -0.0364  0.1660  0.0233
  229loPI   C2B 3662  12.875   5.885   8.883 -0.2924  0.2701 -0.1426
  229loPI   C3B 3663  12.999   5.450   8.922  0.0565 -0.2619 -0.0860
  229loPI   C4B 3664  12.710   5.114   8.702  0.2140 -0.3389 -0.1956
  230loPI    C1 3665   4.896   8.588   9.855 -0.1962 -0.0120  0.0684
  230loPI    C2 3666   5.210   8.777  10.015 -0.1350  0.0605 -0.1337
  230loPI    C3 3667   4.842   8.847  10.154 -0.0775  0.0802  0.0109
  230loPI   PO4 3668   4.922   8.637   9.613 -0.3584 -0.2544 -0.1406
  230loPI   GL1 3669   4.603   8.703   9.262 -0.0661 -0.0492 -0.2325
  230loPI   GL2 3670   4.713   8.417   9.122 -0.0461 -0.2368 -0.0232
  230loPI   C1A 3671   4.872   8.976   9.032 -0.1303 -0.0507 -0.4021
  230loPI   C2A 3672   4.867   9.060   8.608  0.1868  0.2668  0.0119
  230loPI   C3A 3673   4.527   9.138   8.362  0.2931 -0.1472  0.0618
  230loPI   C4A 3674   4.334   8.793   8.198  0.1001  0.0787  0.0388
  230loPI   C5A 3675   4.347   8.452   8.081 -0.1221 -0.1665  0.3920
  230loPI   C6A 3676   4.274   8.254   7.626  0.0949  0.0082 -0.2049
  230loPI   C1B 3677   5.006   8.107   8.892  0.4340 -0.2618 -0.3313
  230loPI   C2B 3678   5.048   8.038   8.450 -0.2842 -0.2198 -0.4754
  230loPI   C3B 3679   4.909   8.245   8.102  0.0195 -0.0558  0.0399
  230loPI   C4B 3680   4.807   8.232   7.621 -0.4078 -0.0744 -0.1520
  231loPI    C1 3681   5.785   8.057   9.623 -0.0468 -0.1550 -0.1177
  231loPI    C2 3682   5.808   8.255   9.969  0.3712 -0.0131 -0.2212
  231loPI    C3 3683   5.808   7.855   9.968 -0.0761 -0.0192 -0.0357
  231loPI   PO4 3684   5.780   8.362   9.470  0.2382 -0.2087  0.0736
  231loPI   GL1 3685   6.098   8.494   9.205  0.1656 -0.2795  0.2095
  231loPI   GL2 3686   6.223   8.699   8.974 -0.0792 -0.5699  0.0516
  231loPI   C1A 3687   5.905   8.293   8.871 -0.1706  0.1944 -0.0119
  231loPI   C2A 3688   5.863   8.029   8.656  0.0386  0.0746 -0.2826
  231loPI   C3A 3689   5.919   7.890   8.204 -0.1238  0.1818  0.1143
  231loPI   C4A 3690   5.982   7.980   7.851 -0.0058  0.4529 -0.0096
  231loPI   C5A 3691   6.259   7.834   7.617 -0.2064  0.0855 -0.1364
  231loPI   C6A 3692   6.559   7.587   7.374 -0.4632 -0.0129 -0.0567
  231loPI   C1B 3693   6.481   8.807   8.641 -0.3297 -0.2465  0.0307
  231loPI   C2B 3694   6.456   8.782   8.243  0.0027  0.1156  0.0663
  231loPI   C3B 3695   6.652   8.656   7.860  0.3018  0.0329 -0.1936
  231loPI   C4B 3696   6.647   8.229   7.609 -0.4467  0.1229  0.2861
  232loPI    C1 3697  17.126  13.255  10.346 -0.0976  0.0254 -0.0387
  232loPI    C2 3698  16.924  12.922  10.436 -0.1342  0.0675  0.0358
  232loPI    C3 3699  17.209  13.056  10.683  0.0022 -0.0049 -0.0806
  232loPI   PO4 3700  16.795  13.428  10.234  0.0092 -0.3648  0.1489
  232loPI   GL1 3701  16.709  13.637   9.843 -0.0141 -0.2670 -0.0752
  232loPI   GL2 3702  16.668  13.378   9.750 -0.1550  0.2824 -0.2980
  232loPI   C1A 3703  16.937  13.877   9.670  0.1277 -0.5480 -0.1216
  232loPI   C2A 3704  17.018  14.028   9.282 -0.2579 -0.0180 -0.0399
  232loPI   C3A 3705  17.044  14.081   8.881 -0.0051 -0.0627 -0.2908
  232loPI   C4A 3706  17.227  14.147   8.506 -0.1966  0.0252  0.2166
  232loPI   C5A 3707  17.396  13.945   8.139 -0.0367  0.1228 -0.1153
  232loPI   C6A 3708  17.761  14.066   7.808  0.3111  0.0118  0.1123
  232loPI   C1B 3709  16.522  13.510   9.371  0.2273  0.0698 -0.1945
  232loPI   C2B 3710  16.631  13.716   9.043 -0.2084 -0.2437 -0.0673
  232loPI   C3B 3711  16.829  13.688   8.632  0.1419 -0.0615 -0.3175
  232loPI   C4B 3712  16.956  13.615   8.192 -0.1290 -0.2525  0.1507
  233loPI    C1 3713   4.342   5.763   9.728  0.0987  0.0809 -0.0736
  233loPI    C2 3714   4.519   5.426   9.850  0.2164  0.1472 -0.0601
  233loPI    C3 3715   4.257   5.612  10.089  0.2087  0.1061 -0.0367
  233loPI   PO4 3716   4.278   5.722   9.487 -0.3564 -0.1019  0.2518
  233loPI   GL1 3717   3.958   5.691   9.122  0.3102  0.0355  0.0967
  233loPI   GL2 3718   4.306   5.879   9.065 -0.1532  0.0333  0.0734
  233loPI   C1A 3719   3.939   5.729   8.553  0.2315  0.0724 -0.0390
  233loPI   C2A 3720   3.998   5.676   8.079 -0.2333 -0.2333 -0.0354
  233loPI   C3A 3721   4.138   5.569   7.670  0.0574  0.0418 -0.1291
  233loPI   C4A 3722   4.042   5.146   7.422 -0.0316  0.1511 -0.3408
  233loPI   C5A 3723   3.775   4.725   7.479  0.0273  0.0146  0.0531
  233loPI   C6A 3724   3.512   4.380   7.488 -0.1001  0.3825  0.0128
  233loPI   C1B 3725   4.411   5.650   8.720 -0.1538  0.1476 -0.1229
  233loPI   C2B 3726   4.515   5.694   8.296  0.0186  0.0997  0.0836
  233loPI   C3B 3727   4.690   5.714   7.914  0.4576 -0.0695  0.4065
  233loPI   C4B 3728   4.588   5.589   7.579 -0.3166 -0.2702  0.1234
  234loPI    C1 3729   1.820  12.470   9.897  0.2506  0.2114  0.1828
  234loPI    C2 3730   2.129  12.256  10.032  0.2582  0.0668 -0.0594
  234loPI    C3 3731   1.905  12.465  10.288  0.5893  0.2195  0.1120
  234loPI   PO4 3732   1.784  12.321   9.576 -0.1324  0.0377  0.2309
  234loPI   GL1 3733   1.673  12.503   9.147  0.1101 -0.2365  0.2050
  234loPI   GL2 3734   1.717  12.812   9.143  0.2215  0.2765  0.2447
  234loPI   C1A 3735   1.580  12.482   8.664 -0.1259  0.0473 -0.0123
  234loPI   C2A 3736   1.499  12.381   8.204  0.0962 -0.5504  0.3523
  234loPI   C3A 3737   1.206  12.215   8.099  0.1147 -0.2483 -0.0089
  234loPI   C4A 3738   0.834  11.897   7.875 -0.0821  0.1070  0.0530
  234loPI   C5A 3739   0.406  11.855   8.018 -0.1077  0.0758  0.0973
  234loPI   C6A 3740   0.427  11.925   8.484  0.1883 -0.1990  0.1341
  234loPI   C1B 3741   1.563  12.968   8.756  0.0787 -0.0201 -0.1034
  234loPI   C2B 3742   1.491  12.899   8.250  0.1986  0.1146  0.4724
  234loPI   C3B 3743   1.225  12.742   7.855 -0.1196 -0.1262  0.1388
  234loPI   C4B 3744   0.859  12.435   7.776  0.3252  0.0026 -0.4022
  235loPI    C1 3745   8.194   6.460  10.079 -0.1855  0.2118  0.1507
  235loPI    C2 3746   7.926   6.466  10.376 -0.1239  0.1091  0.2090
  235loPI    C3 3747   8.315   6.419  10.459 -0.0946  0.1905  0.1198
  235loPI   PO4 3748   8.091   6.656   9.798  0.5232 -0.0156  0.0228
  235loPI   GL1 3749   8.001   6.588   9.375  0.1379 -0.0482  0.2003
  235loPI   GL2 3750   8.111   6.832   9.310 -0.1467 -0.0964 -0.3069
  235loPI   C1A 3751   8.184   6.500   8.975 -0.0477 -0.1065 -0.1115
  235loPI   C2A 3752   8.273   6.529   8.572 -0.2041 -0.1141  0.0617
  235loPI   C3A 3753   8.422   6.630   8.224 -0.2257  0.1542  0.1395
  235loPI   C4A 3754   8.111   6.710   7.848  0.1191  0.1854 -0.2460
  235loPI   C5A 3755   7.991   7.004   7.505 -0.2758 -0.0487 -0.1103
  235loPI   C6A 3756   8.194   7.435   7.395  0.4430  0.0854 -0.1258
  235loPI   C1B 3757   8.021   6.984   9.003  0.0388 -0.0598 -0.0180
  235loPI   C2B 3758   8.127   7.160   8.612  0.4021 -0.0279  0.2695
  235loPI   C3B 3759   8.232   7.085   8.291  0.0164 -0.2138  0.0904
  235loPI   C4B 3760   8.195   7.236   7.908  0.0121  0.1213  0.0426
  236loPI    C1 3761   1.194  15.407  10.332  0.0869 -0.3029 -0.1668
  236loPI    C2 3762   1.078  15.431  10.714 -0.2139 -0.2925 -0.2567
  236loPI    C3 3763   1.459  15.503  10.616 -0.2000  0.0059  0.0026
  236loPI   PO4 3764   1.062  15.236  10.221 -0.3860 -0.1466  0.1249
  236loPI   GL1 3765   0.679  15.348   9.951 -0.0239 -0.0894 -0.0612
  236loPI   GL2 3766   0.399  15.449   9.800  0.2500  0.1447  0.0648
  236loPI   C1A 3767   0.916  15.448   9.580  0.3107  0.1389 -0.3729
  236loPI   C2A 3768   0.949  15.558   9.206  0.4399 -0.3370 -0.2036
  236loPI   C3A 3769   1.000  15.524   8.753 -0.3124 -0.1319 -0.1821
  236loPI   C4A 3770   0.968  15.383   8.380 -0.0656 -0.0419 -0.1809
  236loPI   C5A 3771   1.224  15.375   8.043  0.0804 -0.2078 -0.0981
  236loPI   C6A 3772   1.505  15.374   7.595 -0.0984 -0.1132  0.0515
  236loPI   C1B 3773   0.471  15.386   9.360  0.0711  0.1235  0.0486
  236loPI   C2B 3774   0.430  15.380   8.868  0.0287  0.2740 -0.0997
  236loPI   C3B 3775   0.523  15.178   8.493  0.3008 -0.1122 -0.1337
  236loPI   C4B 3776   0.584  14.836   8.329 -0.0227 -0.2159  0.0851
  237loPI    C1 3777  14.015  11.913   9.880  0.1222 -0.0408 -0.2422
  237loPI    C2 3778  14.213  12.086  10.181 -0.1870  0.0771 -0.1023
  237loPI    C3 3779  14.248  11.693  10.119 -0.1137  0.0534  0.0828
  237loPI   PO4 3780  14.146  12.085   9.640  0.0940 -0.3495  0.3158
  237loPI   GL1 3781  14.117  12.434   9.383  0.0307  0.2190  0.0514
  237loPI   GL2 3782  14.268  12.195   9.187 -0.1456  0.0591 -0.2642
  237loPI   C1A 3783  13.805  12.445   9.190  0.2819 -0.1875 -0.0422
  237loPI   C2A 3784  13.506  12.661   9.101 -0.2460  0.1390  0.0547
  237loPI   C3A 3785  13.186  12.661   8.886  0.1188  0.1631 -0.0767
  237loPI   C4A 3786  12.918  12.804   8.489 -0.0828 -0.0527 -0.3014
  237loPI   C5A 3787  12.754  12.924   8.116 -0.3329  0.3486  0.1988
  237loPI   C6A 3788  12.415  12.933   7.808  0.1134  0.0760  0.2301
  237loPI   C1B 3789  14.146  12.327   8.814  0.0905 -0.1719  0.0793
  237loPI   C2B 3790  14.109  12.190   8.344 -0.0573  0.3281  0.0567
  237loPI   C3B 3791  14.039  11.962   7.936  0.0325 -0.1521 -0.2975
  237loPI   C4B 3792  13.833  12.035   7.552  0.2370 -0.2300 -0.0811
  238loPI    C1 3793   6.311  10.323   9.400 -0.0038 -0.0136  0.0717
  238loPI    C2 3794   5.991  10.326   9.160  0.1285 -0.0621 -0.1073
  238loPI    C3 3795   6.074  10.645   9.385  0.0877  0.0424 -0.2394
  238loPI   PO4 3796   6.519  10.162   9.264  0.1209 -0.2462 -0.0930
  238loPI   GL1 3797   6.806  10.358   8.962  0.2258 -0.0829  0.0719
  238loPI   GL2 3798   6.820  10.578   8.775  0.3932  0.0247  0.2377
  238loPI   C1A 3799   6.817  10.131   8.480  0.1359  0.0441 -0.1598
  238loPI   C2A 3800   6.722  10.180   8.022  0.0322  0.0839  0.0732
  238loPI   C3A 3801   6.820  10.418   7.664 -0.0088 -0.0878  0.1500
  238loPI   C4A 3802   6.916  10.805   7.502  0.1901  0.0043 -0.0361
  238loPI   C5A 3803   6.552  11.110   7.181  0.1603 -0.0772  0.1997
  238loPI   C6A 3804   6.581  10.911   6.705  0.1650  0.2476  0.0621
  238loPI   C1B 3805   6.819  10.578   8.308  0.3753  0.0144 -0.0145
  238loPI   C2B 3806   7.039  10.793   7.986  0.0439 -0.0304  0.2484
  238loPI   C3B 3807   7.373  11.167   7.791  0.1028  0.2911 -0.0066
  238loPI   C4B 3808   7.797  11.165   7.831 -0.3313 -0.3107  0.1024
  239loPI    C1 3809   9.110  16.299   9.867 -0.2025 -0.1296 -0.0576
  239loPI    C2 3810   9.130  16.342  10.265 -0.1948  0.1329 -0.0845
  239loPI    C3 3811   8.888  16.066  10.105 -0.1251 -0.0398  0.1044
  239loPI   PO4 3812   9.249  16.476   9.767  0.0979  0.0196  0.1943
  239loPI   GL1 3813   9.293  16.642   9.396  0.1690  0.1128 -0.2160
  239loPI   GL2 3814   9.633  16.435   9.415  0.0376 -0.2101  0.1696
  239loPI   C1A 3815   9.373  16.622   8.928 -0.0174 -0.2918  0.2382
  239loPI   C2A 3816   9.441  16.674   8.564  0.0522 -0.0959 -0.3679
  239loPI   C3A 3817   9.410  16.356   8.207 -0.2081  0.2739  0.1400
  239loPI   C4A 3818   9.184  16.337   7.777 -0.1094 -0.1584  0.0033
  239loPI   C5A 3819   9.150  15.954   7.580  0.1416 -0.1174  0.3570
  239loPI   C6A 3820   9.290  15.569   7.490 -0.4955 -0.2203 -0.2765
  239loPI   C1B 3821   9.466  16.104   9.117  0.0981  0.1291 -0.0422
  239loPI   C2B 3822   9.564  16.172   8.696  0.0666  0.1196 -0.0528
  239loPI   C3B 3823   9.674  15.993   8.395  0.2859 -0.3337  0.2988
  239loPI   C4B 3824   9.914  15.844   8.021 -0.0315 -0.0099  0.3516
  240loPI    C1 3825  18.341   8.177  10.312 -0.1030 -0.1535  0.2148
  240loPI    C2 3826  18.624   7.955  10.138 -0.0255 -0.0267  0.1774
  240loPI    C3 3827  18.683   8.102  10.505 -0.0710 -0.0557  0.1965
  240loPI   PO4 3828  18.227   8.421  10.090  0.1296  0.1095 -0.0911
  240loPI   GL1 3829  18.481   8.718   9.820  0.0031  0.2558  0.1700
  240loPI   GL2 3830  18.695   9.012   9.582 -0.2886 -0.0219  0.4912
  240loPI   C1A 3831  18.303   8.662   9.462 -0.2821  0.0088  0.0871
  240loPI   C2A 3832  18.163   8.518   9.014 -0.0650  0.1259  0.0654
  240loPI   C3A 3833  18.075   8.594   8.595  0.1357  0.1993  0.0793
  240loPI   C4A 3834  17.863   8.593   8.258 -0.3657  0.1372  0.2115
  240loPI   C5A 3835  17.600   8.591   7.864 -0.1394 -0.2897  0.2210
  240loPI   C6A 3836  17.220   8.592   7.810  0.0521  0.2438  0.2584
  240loPI   C1B 3837  18.616   8.942   9.044 -0.1201 -0.1854 -0.2803
  240loPI   C2B 3838  18.368   8.936   8.737  0.3636  0.0249 -0.2912
  240loPI   C3B 3839  18.368   8.831   8.295  0.0657  0.0922 -0.0492
  240loPI   C4B 3840  18.249   9.043   7.972  0.1296  0.1700  0.2983
  241loPI    C1 3841  18.124  17.895  10.187 -0.2836  0.1788  0.1836
  241loPI    C2 3842  17.854  17.602  10.222 -0.0787  0.0014  0.2980
  241loPI    C3 3843  18.245  17.517  10.234 -0.0110  0.2194 -0.1520
  241loPI   PO4 3844  18.096  17.978  10.034 -0.2967  0.0003 -0.2897
  241loPI   GL1 3845  18.003  17.722   9.724  0.1447 -0.1362 -0.0233
  241loPI   GL2 3846  18.335  17.795   9.685  0.0051 -0.0620 -0.2104
  241loPI   C1A 3847  17.892  17.777   9.265 -0.1219 -0.1189  0.4683
  241loPI   C2A 3848  17.811  17.740   8.935 -0.2006 -0.0449  0.2146
  241loPI   C3A 3849  17.593  17.525   8.568 -0.3433 -0.0864  0.0510
  241loPI   C4A 3850  17.715  17.473   8.090  0.2158  0.1380 -0.1002
  241loPI   C5A 3851  17.396  17.362   7.791 -0.2381 -0.0925 -0.2531
  241loPI   C6A 3852  17.305  16.868   7.735 -0.1050  0.2365  0.0411
  241loPI   C1B 3853  18.338  17.687   9.300  0.2312 -0.2295 -0.1339
  241loPI   C2B 3854  18.265  17.769   8.840  0.1763  0.0389  0.0213
  241loPI   C3B 3855  18.143  17.792   8.459 -0.1278  0.4994 -0.1330
  241loPI   C4B 3856  18.122  17.677   8.045 -0.1473  0.2543 -0.0746
  242loPI    C1 3857   4.377   0.137   9.699 -0.1848  0.0378 -0.1255
  242loPI    C2 3858   4.536   0.281  10.037  0.0993 -0.1275 -0.1859
  242loPI    C3 3859   4.468  -0.112   9.999 -0.4468 -0.0475 -0.1141
  242loPI   PO4 3860   4.497   0.223   9.475 -0.1124  0.2811 -0.0872
  242loPI   GL1 3861   4.403   0.050   9.085 -0.0775  0.6616  0.1644
  242loPI   GL2 3862   4.117   0.125   9.214  0.1333  0.1806 -0.0758
  242loPI   C1A 3863   4.306   0.197   8.681  0.2761  0.0255 -0.1364
  242loPI   C2A 3864   4.168   0.282   8.282 -0.1727  0.0248 -0.2990
  242loPI   C3A 3865   4.227   0.558   7.899  0.3540 -0.1372  0.0001
  242loPI   C4A 3866   3.995   0.766   7.587  0.4426 -0.0383 -0.1811
  242loPI   C5A 3867   3.813   1.094   7.425  0.0278  0.0995 -0.1183
  242loPI   C6A 3868   3.983   1.374   7.123  0.3289  0.1965 -0.1623
  242loPI   C1B 3869   3.775   0.201   8.726 -0.1649 -0.2858  0.1720
  242loPI   C2B 3870   3.537   0.371   8.382 -0.0330  0.0319  0.1161
  242loPI   C3B 3871   3.408   0.389   8.029  0.3386 -0.1507  0.0323
  242loPI   C4B 3872   3.292   0.404   7.640 -0.0736  0.1376 -0.0952
  243loPI    C1 3873   0.762   6.553   9.481  0.2052 -0.1596  0.0282
  243loPI    C2 3874   0.883   6.922   9.575 -0.2067  0.0170 -0.1085
  243loPI    C3 3875   0.671   6.709   9.838 -0.0339 -0.0950 -0.0585
  243loPI   PO4 3876   0.878   6.489   9.324 -0.0943 -0.0969  0.1219
  243loPI   GL1 3877   0.806   6.102   9.003 -0.3490  0.0173  0.1154
  243loPI   GL2 3878   0.482   6.229   9.103 -0.0286 -0.0650  0.1027
  243loPI   C1A 3879   0.494   6.086   8.652 -0.3972  0.0910  0.2270
  243loPI   C2A 3880   0.486   6.155   8.181 -0.3585  0.0110 -0.1270
  243loPI   C3A 3881   0.493   6.511   7.924  0.2069  0.0275  0.0914
  243loPI   C4A 3882   0.853   6.398   7.550  0.4067  0.2804  0.3330
  243loPI   C5A 3883   1.144   6.420   7.167 -0.2327  0.2129  0.3459
  243loPI   C6A 3884   1.137   6.037   6.835  0.1718  0.1195 -0.0035
  243loPI   C1B 3885   0.493   6.576   8.820  0.5589 -0.1540 -0.0879
  243loPI   C2B 3886   0.572   6.885   8.439 -0.1399 -0.2021  0.1922
  243loPI   C3B 3887   0.973   7.098   8.224 -0.1790 -0.1890  0.0213
  243loPI   C4B 3888   1.125   7.209   7.884  0.1219 -0.0710  0.1953
  244loPI    C1 3889   8.182   9.010   9.469  0.0178 -0.2090  0.0007
  244loPI    C2 3890   8.055   8.692   9.676 -0.0660 -0.1213  0.0848
  244loPI    C3 3891   8.172   9.022   9.869 -0.3733  0.0485 -0.0118
  244loPI   PO4 3892   7.971   9.089   9.286 -0.2562 -0.1474 -0.0077
  244loPI   GL1 3893   7.797   8.924   8.894 -0.3251  0.1337  0.0756
  244loPI   GL2 3894   8.002   9.200   8.734  0.1951  0.0613 -0.1824
  244loPI   C1A 3895   7.913   8.560   8.661 -0.2129 -0.0249  0.1521
  244loPI   C2A 3896   8.013   8.374   8.218  0.2349 -0.0546 -0.5344
  244loPI   C3A 3897   8.003   8.366   7.774 -0.0464 -0.0149  0.1613
  244loPI   C4A 3898   7.990   8.158   7.448  0.1241  0.0694 -0.1738
  244loPI   C5A 3899   8.024   8.385   6.976 -0.1756 -0.1394  0.1705
  244loPI   C6A 3900   8.141   8.290   6.571 -0.0467  0.2561 -0.3030
  244loPI   C1B 3901   8.045   9.105   8.325 -0.2079 -0.0580  0.4236
  244loPI   C2B 3902   7.936   8.869   7.904 -0.3758 -0.0047  0.0333
  244loPI   C3B 3903   7.577   8.872   7.602  0.2832 -0.3002  0.1857
  244loPI   C4B 3904   7.647   8.428   7.334  0.3310 -0.1095  0.2638
  245loPI    C1 3905   8.367   5.210   9.891  0.1419  0.0362 -0.3034
  245loPI    C2 3906   8.767   5.209   9.895  0.1417  0.1780 -0.1784
  245loPI    C3 3907   8.567   5.540   9.997 -0.0093  0.0361 -0.0097
  245loPI   PO4 3908   8.270   5.026   9.638  0.0317 -0.1762  0.3424
  245loPI   GL1 3909   8.511   5.289   9.315  0.0332 -0.4088 -0.2570
  245loPI   GL2 3910   8.767   5.391   9.448  0.0149  0.0286  0.1137
  245loPI   C1A 3911   8.412   5.187   8.883 -0.1615  0.0463 -0.0620
  245loPI   C2A 3912   8.443   5.275   8.471  0.3972  0.3045 -0.0244
  245loPI   C3A 3913   8.557   5.430   8.109  0.0175  0.1032  0.3600
  245loPI   C4A 3914   8.359   5.762   7.800  0.0477 -0.0984 -0.0913
  245loPI   C5A 3915   8.327   6.255   7.730 -0.2262  0.1107 -0.0284
  245loPI   C6A 3916   8.617   6.607   7.747  0.1159 -0.2567  0.2475
  245loPI   C1B 3917   8.685   5.605   8.975 -0.0402  0.0157 -0.0961
  245loPI   C2B 3918   8.738   5.717   8.568 -0.0399 -0.0032  0.2036
  245loPI   C3B 3919   8.880   5.837   8.137  0.0776  0.0956  0.0077
  245loPI   C4B 3920   8.938   5.675   7.786 -0.0694 -0.0051  0.0458
  246loPI    C1 3921   8.457  10.105   9.833  0.1433  0.1293  0.3555
  246loPI    C2 3922   8.161   9.836   9.837  0.1209  0.1464  0.0745
  246loPI    C3 3923   8.091  10.211   9.955  0.0430  0.1373  0.0583
  246loPI   PO4 3924   8.639   9.902   9.652  0.0420 -0.0764 -0.2276
  246loPI   GL1 3925   8.715   9.770   9.237  0.0560 -0.0310 -0.3824
  246loPI   GL2 3926   8.707  10.119   9.246  0.0934 -0.1416  0.3249
  246loPI   C1A 3927   8.777   9.727   8.850 -0.0770  0.0694 -0.1032
  246loPI   C2A 3928   8.942   9.507   8.512  0.1886  0.0336  0.1728
  246loPI   C3A 3929   9.041   9.448   8.110 -0.0065 -0.0093  0.4153
  246loPI   C4A 3930   9.367   9.247   7.917  0.3031  0.3122  0.2485
  246loPI   C5A 3931   9.738   9.056   7.613  0.1926  0.0632  0.1610
  246loPI   C6A 3932   9.730   9.257   7.073 -0.4376 -0.2724  0.1489
  246loPI   C1B 3933   8.495  10.121   8.760 -0.0551 -0.0940  0.0985
  246loPI   C2B 3934   8.574  10.216   8.276 -0.0546  0.0923  0.1427
  246loPI   C3B 3935   8.719  10.197   7.877  0.2093  0.1212  0.1086
  246loPI   C4B 3936   8.567   9.987   7.566 -0.0443  0.2704  0.0732
  247loPI    C1 3937   2.061  16.663  10.202  0.3255  0.1799 -0.1485
  247loPI    C2 3938   2.112  16.289  10.336  0.1047  0.1076 -0.2617
  247loPI    C3 3939   2.055  16.588  10.595  0.0221  0.0217 -0.1797
  247loPI   PO4 3940   2.022  16.607   9.929 -0.0279  0.0119  0.1819
  247loPI   GL1 3941   1.920  16.956   9.716 -0.0440 -0.2092 -0.3015
  247loPI   GL2 3942   1.673  17.014   9.622  0.3848  0.1770  0.0895
  247loPI   C1A 3943   1.784  16.639   9.282  0.0961 -0.1025  0.0186
  247loPI   C2A 3944   1.437  16.283   9.010 -0.2390 -0.5022  0.0356
  247loPI   C3A 3945   1.294  16.241   8.601  0.0005  0.0365  0.1047
  247loPI   C4A 3946   1.464  16.184   8.199  0.1434 -0.0167  0.2623
  247loPI   C5A 3947   1.480  16.398   7.793 -0.2908 -0.1367 -0.0636
  247loPI   C6A 3948   1.871  16.624   7.602 -0.0557  0.0168 -0.0788
  247loPI   C1B 3949   1.503  17.143   9.206  0.0735  0.2197  0.1388
  247loPI   C2B 3950   1.477  16.812   8.879 -0.1603 -0.0417 -0.1628
  247loPI   C3B 3951   1.778  16.600   8.591 -0.0292 -0.0923  0.2965
  247loPI   C4B 3952   1.627  16.668   8.147 -0.1639  0.0660 -0.1988
  248loPI    C1 3953   3.462  19.032  10.162 -0.0167  0.0978 -0.2466
  248loPI    C2 3954   3.075  18.932  10.173 -0.0244  0.1437 -0.0700
  248loPI    C3 3955   3.324  18.800  10.457  0.0730  0.1830 -0.1366
  248loPI   PO4 3956   3.534  18.945   9.919  0.0277  0.2235 -0.0954
  248loPI   GL1 3957   3.538  18.647   9.571 -0.1837  0.1110 -0.2329
  248loPI   GL2 3958   3.569  18.809   9.374 -0.1578  0.1954  0.0985
  248loPI   C1A 3959   3.267  18.393   9.274  0.0508  0.0808  0.0949
  248loPI   C2A 3960   2.966  18.192   9.029 -0.1214  0.0530 -0.1917
  248loPI   C3A 3961   2.916  18.145   8.633 -0.0188 -0.0677  0.0224
  248loPI   C4A 3962   3.007  18.156   8.185  0.0988 -0.2279 -0.1779
  248loPI   C5A 3963   3.043  18.261   7.760  0.2485  0.1189  0.0214
  248loPI   C6A 3964   3.097  18.664   7.606 -0.0754 -0.0827  0.0680
  248loPI   C1B 3965   3.522  19.057   9.072  0.3871  0.1103  0.4061
  248loPI   C2B 3966   3.253  19.066   8.707 -0.2178  0.0867  0.0183
  248loPI   C3B 3967   3.159  19.008   8.276 -0.2291  0.2815  0.1910
  248loPI   C4B 3968   3.362  19.010   7.825  0.1419  0.5272  0.0255
  249loPI    C1 3969   4.686   6.424   9.620  0.2573 -0.0153  0.0138
  249loPI    C2 3970   4.451   6.542   9.922  0.1077 -0.1491 -0.0485
  249loPI    C3 3971   4.821   6.689   9.887  0.0227  0.0895  0.0316
  249loPI   PO4 3972   4.621   6.182   9.620 -0.3367  0.5651 -0.1500
  249loPI   GL1 3973   4.768   5.915   9.353 -0.0564 -0.2780 -0.1175
  249loPI   GL2 3974   4.910   6.285   9.227  0.0912  0.2114  0.0926
  249loPI   C1A 3975   4.789   5.962   8.930  0.2680 -0.0676  0.0776
  249loPI   C2A 3976   4.727   6.068   8.533  0.1116 -0.0179 -0.0616
  249loPI   C3A 3977   4.695   6.246   8.085 -0.2182  0.4061  0.0843
  249loPI   C4A 3978   4.767   6.170   7.659  0.0464  0.1238  0.1568
  249loPI   C5A 3979   4.978   6.313   7.393  0.1726  0.2096  0.0224
  249loPI   C6A 3980   5.174   6.270   7.064  0.1061 -0.3119  0.0064
  249loPI   C1B 3981   4.921   6.426   8.831 -0.0717  0.0334  0.1779
  249loPI   C2B 3982   4.838   6.599   8.450  0.3568 -0.1297 -0.0479
  249loPI   C3B 3983   4.654   7.028   8.133  0.0914  0.0038 -0.1824
  249loPI   C4B 3984   4.462   7.501   8.107  0.1366 -0.3000  0.1025
  250loPI    C1 3985   9.261   5.021   9.925 -0.1019  0.1651 -0.0637
  250loPI    C2 3986   8.992   4.824  10.145 -0.1355  0.1871 -0.0850
  250loPI    C3 3987   9.274   5.043  10.324  0.0025 -0.0123 -0.0564
  250loPI   PO4 3988   9.117   4.955   9.599  0.3338  0.0778 -0.1010
  250loPI   GL1 3989   9.191   4.768   9.194 -0.0149  0.0180 -0.0034
  250loPI   GL2 3990   8.968   5.028   9.088  0.0671  0.0221  0.0025
  250loPI   C1A 3991   9.227   4.766   8.797 -0.4840 -0.3029 -0.0528
  250loPI   C2A 3992   9.385   5.000   8.437  0.2874 -0.0455 -0.2051
  250loPI   C3A 3993   9.662   4.929   8.141  0.0661  0.0560  0.1186
  250loPI   C4A 3994  10.047   4.900   7.919  0.0715 -0.0690 -0.3719
  250loPI   C5A 3995  10.009   4.975   7.488 -0.0613  0.2715 -0.2968
  250loPI   C6A 3996  10.115   5.183   7.132  0.0265 -0.1121  0.2892
  250loPI   C1B 3997   8.939   5.167   8.696  0.0961 -0.5451 -0.1577
  250loPI   C2B 3998   8.963   5.238   8.292 -0.0784  0.0939  0.1203
  250loPI   C3B 3999   9.112   4.887   7.939  0.0431  0.1119  0.0311
  250loPI   C4B 4000   9.569   4.687   7.774  0.2886 -0.0531  0.3031
  251loPI    C1 4001  18.450   0.546  10.177 -0.0894  0.0848  0.1141
  251loPI    C2 4002  18.280   0.263  10.403 -0.2075 -0.0781 -0.1728
  251loPI    C3 4003  18.529   0.529  10.568  0.1202 -0.5136  0.0567
  251loPI   PO4 4004  18.273   0.473   9.947 -0.0744 -0.0068 -0.1677
  251loPI   GL1 4005  18.257   0.497   9.462 -0.2394  0.3195  0.4806
  251loPI   GL2 4006  18.050   0.601   9.550 -0.1320  0.0822 -0.0640
  251loPI   C1A 4007  17.956   0.194   9.229 -0.1074 -0.1439 -0.3746
  251loPI   C2A 4008  17.911   0.075   8.839 -0.1726 -0.0257 -0.0327
  251loPI   C3A 4009  18.187  -0.026   8.565  0.3676 -0.3993 -0.1118
  251loPI   C4A 4010  18.172   0.053   8.122  0.1588  0.1450 -0.0876
  251loPI   C5A 4011  18.188   0.344   7.835 -0.2549 -0.0660  0.1193
  251loPI   C6A 4012  18.288   0.591   7.997  0.2130 -0.3044 -0.1708
  251loPI   C1B 4013  17.905   0.706   9.179 -0.0140 -0.2051 -0.1207
  251loPI   C2B 4014  17.934   0.532   8.756  0.1548 -0.2250  0.0642
  251loPI   C3B 4015  17.920   0.467   8.320 -0.2336 -0.4181 -0.2124
  251loPI   C4B 4016  17.756   0.630   7.980 -0.2601 -0.0232  0.5105
  252loPI    C1 4017  10.799  17.211   9.933 -0.0413  0.2014  0.0470
  252loPI    C2 4018  10.402  17.192   9.983 -0.0396  0.0042 -0.0032
  252loPI    C3 4019  10.645  17.135  10.295 -0.0455 -0.2277 -0.0395
  252loPI   PO4 4020  10.791  17.100   9.610  0.2147 -0.1200  0.2585
  252loPI   GL1 4021  10.401  16.841   9.522  0.0339 -0.0498  0.0848
  252loPI   GL2 4022  10.212  16.564   9.401  0.0677  0.1978 -0.2656
  252loPI   C1A 4023  10.235  16.944   9.084  0.0764 -0.2235 -0.0682
  252loPI   C2A 4024  10.002  16.928   8.669 -0.0284  0.2104 -0.2333
  252loPI   C3A 4025   9.806  16.921   8.326  0.1242  0.1543 -0.0123
  252loPI   C4A 4026   9.688  16.796   7.882 -0.0180 -0.0506  0.2027
  252loPI   C5A 4027   9.833  16.562   7.512  0.1884  0.0172  0.0299
  252loPI   C6A 4028   9.933  16.349   7.140  0.1138 -0.0083 -0.0271
  252loPI   C1B 4029  10.389  16.485   9.001 -0.0593 -0.3247  0.2101
  252loPI   C2B 4030  10.403  16.477   8.621  0.0966 -0.2337  0.1928
  252loPI   C3B 4031  10.290  16.688   8.195 -0.0165 -0.1718 -0.2481
  252loPI   C4B 4032  10.240  16.724   7.768  0.0012  0.3109  0.2073
  253loPI    C1 4033   8.163   8.255   9.883  0.1276  0.1075 -0.0776
  253loPI    C2 4034   7.797   8.223   9.726  0.0812 -0.0463  0.0599
  253loPI    C3 4035   7.858   8.136  10.112  0.2495  0.0466  0.0551
  253loPI   PO4 4036   8.285   8.276   9.613  0.0199  0.2124  0.2081
  253loPI   GL1 4037   8.386   8.276   9.220  0.0962  0.0184 -0.1850
  253loPI   GL2 4038   8.489   8.602   9.276 -0.1842  0.1158  0.3066
  253loPI   C1A 4039   8.302   8.259   8.766  0.0998 -0.0889  0.1535
  253loPI   C2A 4040   8.406   8.185   8.363  0.1413  0.2128 -0.1016
  253loPI   C3A 4041   8.423   8.134   8.046 -0.0277  0.3177  0.0875
  253loPI   C4A 4042   8.459   8.054   7.654 -0.1952 -0.0272 -0.1399
  253loPI   C5A 4043   8.525   8.339   7.300 -0.4276  0.0913 -0.1149
  253loPI   C6A 4044   8.595   8.395   6.854 -0.1985  0.1229 -0.1288
  253loPI   C1B 4045   8.373   8.743   8.867 -0.0293 -0.0727  0.0324
  253loPI   C2B 4046   8.336   8.661   8.390  0.2897 -0.2396  0.0490
  253loPI   C3B 4047   8.476   8.597   7.944  0.2593 -0.1506 -0.1222
  253loPI   C4B 4048   8.706   8.786   7.502 -0.0020 -0.1948 -0.4282
  254loPI    C1 4049   6.752   9.932   9.670  0.1730  0.0912  0.2379
  254loPI    C2 4050   6.355   9.887   9.657  0.2133 -0.2125 -0.0937
  254loPI    C3 4051   6.515  10.193   9.858 -0.1855 -0.0993  0.0604
  254loPI   PO4 4052   6.811   9.791   9.420  0.0711  0.0901 -0.2628
  254loPI   GL1 4053   6.588   9.632   9.110 -0.1346 -0.0161 -0.1523
  254loPI   GL2 4054   6.659   9.867   8.884 -0.0197 -0.0480 -0.0247
  254loPI   C1A 4055   6.742   9.261   8.818 -0.1230 -0.1221  0.1591
  254loPI   C2A 4056   6.941   9.233   8.388 -0.1721 -0.3074  0.3387
  254loPI   C3A 4057   6.798   9.191   7.984 -0.1457 -0.0911 -0.1052
  254loPI   C4A 4058   6.503   9.078   7.635 -0.2488  0.4147 -0.3297
  254loPI   C5A 4059   6.393   9.075   7.199  0.5038  0.1688 -0.2558
  254loPI   C6A 4060   6.149   9.449   6.995  0.1186 -0.4335  0.2068
  254loPI   C1B 4061   6.618   9.714   8.431 -0.1250 -0.0215 -0.0847
  254loPI   C2B 4062   6.756   9.671   8.122  0.1294  0.1539 -0.1684
  254loPI   C3B 4063   6.629   9.611   7.744  0.0004  0.0832  0.1191
  254loPI   C4B 4064   6.407   9.535   7.429 -0.4961  0.0290  0.2050
  255loPI    C1 4065  11.946  16.065   9.964 -0.3388  0.0736  0.1462
  255loPI    C2 4066  12.096  16.064  10.335  0.0766 -0.1941 -0.0151
  255loPI    C3 4067  11.922  15.735  10.189 -0.0286 -0.1095 -0.0817
  255loPI   PO4 4068  12.069  16.312   9.893  0.1131  0.3302 -0.1967
  255loPI   GL1 4069  12.425  16.439   9.684  0.0317 -0.1962  0.2844
  255loPI   GL2 4070  12.388  16.052   9.559 -0.0717 -0.0500 -0.5119
  255loPI   C1A 4071  12.266  16.749   9.359  0.1931 -0.1068  0.2899
  255loPI   C2A 4072  12.422  17.037   8.978  0.1045 -0.1807  0.0374
  255loPI   C3A 4073  12.445  16.982   8.516 -0.0390  0.2555 -0.0438
  255loPI   C4A 4074  12.457  17.029   8.073 -0.1384  0.1541 -0.1647
  255loPI   C5A 4075  12.434  16.971   7.536  0.1267  0.0197 -0.1503
  255loPI   C6A 4076  12.176  17.119   7.145 -0.3520  0.1567 -0.1764
  255loPI   C1B 4077  12.222  16.231   9.206  0.0281  0.0735 -0.0009
  255loPI   C2B 4078  12.204  16.532   8.830  0.0219  0.0890 -0.1562
  255loPI   C3B 4079  12.205  16.552   8.374 -0.3048 -0.0800 -0.1593
  255loPI   C4B 4080  12.239  16.602   7.931  0.0167  0.2977  0.0453
  256loPI    C1 4081   4.063   4.708   9.525  0.1202 -0.0464 -0.0704
  256loPI    C2 4082   4.197   4.659   9.899  0.1404 -0.2019 -0.0971
  256loPI    C3 4083   4.125   5.027   9.758  0.0517 -0.1473  0.0877
  256loPI   PO4 4084   3.933   4.563   9.489 -0.1077  0.1734  0.2651
  256loPI   GL1 4085   4.050   4.271   9.124  0.2917  0.1718 -0.2555
  256loPI   GL2 4086   3.843   4.513   8.934  0.0729  0.1529 -0.0828
  256loPI   C1A 4087   4.264   4.157   8.711  0.0825  0.2026 -0.5306
  256loPI   C2A 4088   4.698   4.045   8.582  0.0132 -0.2384  0.1100
  256loPI   C3A 4089   4.954   4.151   8.247  0.3096  0.0414 -0.0302
  256loPI   C4A 4090   5.222   4.340   7.774  0.0548 -0.0482  0.1869
  256loPI   C5A 4091   5.418   4.402   7.305  0.0494  0.0857 -0.1336
  256loPI   C6A 4092   5.534   4.586   7.000 -0.0764 -0.0506 -0.1080
  256loPI   C1B 4093   3.854   4.377   8.551 -0.1647  0.3799  0.2479
  256loPI   C2B 4094   4.168   4.242   8.294 -0.0973 -0.2517  0.3596
  256loPI   C3B 4095   4.595   4.253   7.932  0.1058 -0.1086 -0.1720
  256loPI   C4B 4096   4.809   4.097   7.613  0.0026 -0.1183  0.0183
  257loPI    C1 4097  15.065   9.246  10.093 -0.1150  0.1140  0.1399
  257loPI    C2 4098  15.443   9.116  10.076 -0.1056  0.1650 -0.0820
  257loPI    C3 4099  15.286   9.232  10.426  0.0280 -0.0191  0.0408
  257loPI   PO4 4100  15.044   9.390   9.897 -0.1485  0.0821 -0.0473
  257loPI   GL1 4101  15.191   9.721   9.622 -0.1110  0.0237  0.0679
  257loPI   GL2 4102  15.101   9.414   9.407  0.3662 -0.1260 -0.1720
  257loPI   C1A 4103  15.322  10.039   9.407  0.2375  0.3148  0.0069
  257loPI   C2A 4104  15.371  10.017   8.947  0.1401  0.0560 -0.0629
  257loPI   C3A 4105  15.583  10.041   8.521  0.1957  0.3447 -0.0801
  257loPI   C4A 4106  15.583  10.092   8.044 -0.1421 -0.2403 -0.1150
  257loPI   C5A 4107  15.359  10.047   7.633  0.2098 -0.1038  0.2551
  257loPI   C6A 4108  15.210  10.038   7.225  0.0030  0.0881  0.0218
  257loPI   C1B 4109  15.001   9.753   9.114 -0.1928 -0.2365  0.1408
  257loPI   C2B 4110  14.928   9.951   8.787 -0.0394  0.1472 -0.2917
  257loPI   C3B 4111  14.736  10.075   8.299  0.0755  0.0448  0.1614
  257loPI   C4B 4112  14.310  10.137   8.132  0.0300  0.3815 -0.1175
  258loPI    C1 4113   1.587   7.269   9.809 -0.0864  0.0382 -0.1030
  258loPI    C2 4114   1.211   7.394   9.868 -0.0729 -0.0534  0.1919
  258loPI    C3 4115   1.511   7.658   9.866 -0.1319  0.0134  0.0100
  258loPI   PO4 4116   1.455   7.081   9.637  0.3249  0.2693 -0.2154
  258loPI   GL1 4117   1.327   7.149   9.245  0.3461  0.1932 -0.1385
  258loPI   GL2 4118   1.220   6.834   9.159  0.1680  0.2144  0.1475
  258loPI   C1A 4119   1.539   7.109   8.804  0.1829  0.0623 -0.4069
  258loPI   C2A 4120   1.367   6.968   8.424  0.1474 -0.0305  0.0634
  258loPI   C3A 4121   1.525   6.828   8.075  0.2645  0.0431  0.0002
  258loPI   C4A 4122   1.678   6.793   7.755  0.1544 -0.0741 -0.2382
  258loPI   C5A 4123   1.976   6.912   7.575 -0.2546  0.1092 -0.1105
  258loPI   C6A 4124   2.437   6.954   7.441  0.1034  0.0866  0.0720
  258loPI   C1B 4125   1.093   6.727   8.779 -0.0707  0.1838  0.0477
  258loPI   C2B 4126   1.006   6.600   8.369  0.1593 -0.2389 -0.3446
  258loPI   C3B 4127   1.144   6.591   7.932  0.0548 -0.0031 -0.0565
  258loPI   C4B 4128   1.191   6.800   7.507 -0.3238  0.4323 -0.3092
  259loPI    C1 4129   6.813   1.585   9.730 -0.1476  0.2775  0.2442
  259loPI    C2 4130   7.016   1.892   9.888  0.2058  0.1233  0.1016
  259loPI    C3 4131   6.921   1.577  10.115  0.1469  0.1848  0.1627
  259loPI   PO4 4132   6.887   1.549   9.497  0.0027 -0.2026 -0.4152
  259loPI   GL1 4133   6.867   1.850   9.102 -0.0576  0.0507 -0.0776
  259loPI   GL2 4134   6.675   1.595   9.060  0.1155 -0.1844 -0.2215
  259loPI   C1A 4135   7.110   1.832   8.810 -0.0505 -0.0862  0.2636
  259loPI   C2A 4136   7.243   1.957   8.317 -0.0752  0.1265 -0.2076
  259loPI   C3A 4137   7.413   2.159   7.928 -0.1279  0.1382 -0.1094
  259loPI   C4A 4138   7.446   2.256   7.484 -0.1369 -0.1123 -0.1232
  259loPI   C5A 4139   7.421   2.678   7.296  0.1181  0.3853  0.2556
  259loPI   C6A 4140   7.604   3.002   7.300  0.1670  0.0300 -0.2271
  259loPI   C1B 4141   6.733   1.511   8.678 -0.1010  0.0935 -0.0256
  259loPI   C2B 4142   6.925   1.463   8.321 -0.1359 -0.1701  0.2321
  259loPI   C3B 4143   6.827   1.370   7.993 -0.2759  0.0924 -0.0608
  259loPI   C4B 4144   6.918   1.228   7.620 -0.1083  0.1335  0.0200
  260loPI    C1 4145   1.091  18.300  10.395 -0.2727 -0.1363  0.0958
  260loPI    C2 4146   0.792  18.564  10.428 -0.2217 -0.0665  0.0031
  260loPI    C3 4147   1.114  18.595  10.665 -0.2349 -0.0710  0.0217
  260loPI   PO4 4148   1.106  18.157  10.058 -0.0506  0.1723 -0.5067
  260loPI   GL1 4149   1.048  17.928   9.664 -0.1281  0.0907 -0.3042
  260loPI   GL2 4150   0.704  17.951   9.497  0.1089 -0.1489 -0.2265
  260loPI   C1A 4151   1.137  18.163   9.311 -0.2168  0.0283  0.2251
  260loPI   C2A 4152   1.183  17.959   8.864 -0.1572 -0.0914  0.0192
  260loPI   C3A 4153   1.204  18.081   8.369  0.0289  0.0525 -0.1933
  260loPI   C4A 4154   0.961  18.263   8.104  0.0707 -0.0281  0.2311
  260loPI   C5A 4155   0.707  18.063   7.782 -0.1491  0.1929  0.4072
  260loPI   C6A 4156   0.255  17.981   7.507  0.1562 -0.1127 -0.3155
  260loPI   C1B 4157   0.776  17.864   9.079  0.0254  0.1976  0.1975
  260loPI   C2B 4158   0.746  17.925   8.648  0.1344  0.0101  0.0569
  260loPI   C3B 4159   0.869  17.741   8.192  0.0622 -0.0656 -0.1906
  260loPI   C4B 4160   1.236  17.900   7.898 -0.0598  0.2310  0.3224
  261loPI    C1 4161  10.766   5.649  10.176 -0.2349 -0.0917  0.1993
  261loPI    C2 4162  10.678   6.036  10.229 -0.0325 -0.0454  0.2024
  261loPI    C3 4163  10.968   5.865  10.445 -0.1195 -0.1989  0.1994
  261loPI   PO4 4164  10.821   5.657   9.884 -0.0186  0.1103 -0.0974
  261loPI   GL1 4165  10.761   5.608   9.447  0.0903 -0.0901  0.4271
  261loPI   GL2 4166  10.485   5.804   9.323 -0.0671 -0.3845 -0.1766
  261loPI   C1A 4167  10.745   5.385   9.117  0.3856 -0.0895  0.0709
  261loPI   C2A 4168  10.846   5.370   8.639  0.0166  0.0782  0.0485
  261loPI   C3A 4169  10.845   5.274   8.273  0.0404  0.1070 -0.0461
  261loPI   C4A 4170  10.938   5.436   7.850  0.6142  0.0854  0.2100
  261loPI   C5A 4171  11.163   5.674   7.512 -0.1923  0.3195  0.2240
  261loPI   C6A 4172  11.568   5.809   7.384  0.0903  0.3927  0.1233
  261loPI   C1B 4173  10.206   5.729   8.965 -0.1620 -0.1285  0.2818
  261loPI   C2B 4174  10.225   5.944   8.644  0.0510 -0.0386  0.4035
  261loPI   C3B 4175  10.251   6.083   8.167 -0.0379 -0.1945  0.0086
  261loPI   C4B 4176  10.193   6.370   7.916 -0.0736  0.1627  0.0698
  262loPI    C1 4177  14.847   6.919  10.052 -0.2474 -0.1498 -0.0162
  262loPI    C2 4178  14.848   6.762  10.420 -0.0674 -0.1606 -0.0203
  262loPI    C3 4179  15.156   6.986  10.297 -0.2503  0.0673 -0.0699
  262loPI   PO4 4180  14.810   6.740   9.964  0.0561  0.1280 -0.0260
  262loPI   GL1 4181  14.799   6.640   9.586  0.0781  0.0855  0.3281
  262loPI   GL2 4182  14.880   6.984   9.398 -0.0203 -0.1213 -0.0220
  262loPI   C1A 4183  14.821   6.532   9.124 -0.1627 -0.0692  0.0299
  262loPI   C2A 4184  15.002   6.621   8.652 -0.0469  0.0504 -0.0902
  262loPI   C3A 4185  14.934   6.594   8.215 -0.0195 -0.3326  0.1254
  262loPI   C4A 4186  14.885   6.999   7.973  0.0120 -0.1378  0.0291
  262loPI   C5A 4187  14.697   7.025   7.625 -0.1280  0.2546 -0.0503
  262loPI   C6A 4188  14.561   7.266   7.411  0.2712 -0.0169 -0.3370
  262loPI   C1B 4189  14.918   7.029   9.003  0.1062 -0.1170 -0.2546
  262loPI   C2B 4190  14.766   7.487   8.810 -0.3559  0.0251 -0.3484
  262loPI   C3B 4191  14.666   7.824   8.567  0.3000 -0.2480 -0.3134
  262loPI   C4B 4192  14.861   7.895   8.218 -0.0466 -0.0006 -0.0235
  263loPI    C1 4193   9.023  13.965   9.331  0.0540 -0.3841 -0.0668
  263loPI    C2 4194   9.123  13.780   9.671 -0.1480  0.1196  0.2789
  263loPI    C3 4195   8.751  13.917   9.620 -0.1322  0.0109 -0.1694
  263loPI   PO4 4196   9.237  14.129   9.306 -0.2357  0.3014 -0.1105
  263loPI   GL1 4197   9.425  14.203   8.926 -0.2424  0.0052  0.1119
  263loPI   GL2 4198   9.306  14.582   9.068  0.0039  0.1415  0.1570
  263loPI   C1A 4199   9.619  14.137   8.485  0.1467 -0.3615  0.0607
  263loPI   C2A 4200   9.771  14.184   8.073 -0.3139  0.1118 -0.2076
  263loPI   C3A 4201   9.905  14.296   7.653 -0.2428 -0.0484 -0.2819
  263loPI   C4A 4202  10.262  14.407   7.505 -0.1871 -0.1061 -0.2964
  263loPI   C5A 4203  10.563  14.478   7.628 -0.0095 -0.3451 -0.0533
  263loPI   C6A 4204  11.004  14.365   7.651 -0.0354  0.2618 -0.0826
  263loPI   C1B 4205   9.526  14.691   8.693  0.2286  0.0434 -0.0511
  263loPI   C2B 4206   9.516  14.658   8.253  0.0213 -0.1552  0.2349
  263loPI   C3B 4207   9.462  14.513   7.777 -0.4342  0.2375 -0.0050
  263loPI   C4B 4208   9.519  14.449   7.294  0.0546 -0.3524  0.1696
  264loPI    C1 4209   4.496   2.142   9.593 -0.2429  0.2702 -0.0645
  264loPI    C2 4210   4.211   2.044   9.856  0.1907 -0.0067  0.3157
  264loPI    C3 4211   4.482   2.323   9.949 -0.0101  0.3322 -0.0857
  264loPI   PO4 4212   4.362   2.139   9.353 -0.1524  0.1634 -0.2276
  264loPI   GL1 4213   4.475   1.895   8.960 -0.4870 -0.1005 -0.0109
  264loPI   GL2 4214   4.185   1.822   8.997  0.4330  0.0080 -0.0049
  264loPI   C1A 4215   4.525   1.917   8.495 -0.0892 -0.2224 -0.0821
  264loPI   C2A 4216   4.425   1.596   8.191 -0.0051  0.1967  0.1571
  264loPI   C3A 4217   4.769   1.369   7.921 -0.0863 -0.0023 -0.1156
  264loPI   C4A 4218   4.681   1.283   7.503 -0.0737 -0.1111 -0.0660
  264loPI   C5A 4219   4.509   1.414   7.178 -0.2498 -0.0511 -0.0483
  264loPI   C6A 4220   4.629   1.272   6.843  0.0359 -0.4648  0.0392
  264loPI   C1B 4221   4.128   1.623   8.602  0.0597  0.1521 -0.0842
  264loPI   C2B 4222   3.920   1.700   8.120  0.2050 -0.1527  0.1955
  264loPI   C3B 4223   3.618   1.903   7.854 -0.2375  0.2951  0.0098
  264loPI   C4B 4224   3.809   2.099   7.419  0.2983 -0.0756  0.0525
  265loPI    C1 4225   9.889   6.497  10.171 -0.1599  0.0835 -0.0615
  265loPI    C2 4226   9.903   6.802  10.429  0.1538 -0.2281  0.3027
  265loPI    C3 4227   9.626   6.517  10.472 -0.2283  0.0656 -0.1199
  265loPI   PO4 4228   9.918   6.580   9.911  0.1136  0.0237 -0.0193
  265loPI   GL1 4229   9.946   6.975   9.619  0.1452  0.1785  0.2474
  265loPI   GL2 4230   9.904   7.181   9.484  0.0763  0.2831  0.0440
  265loPI   C1A 4231   9.910   6.767   9.213 -0.4441  0.3116 -0.3795
  265loPI   C2A 4232   9.957   6.526   8.851  0.1766 -0.0304 -0.1798
  265loPI   C3A 4233   9.800   6.146   8.719 -0.2279  0.3091  0.1371
  265loPI   C4A 4234   9.848   5.781   8.322 -0.0831  0.1532 -0.1428
  265loPI   C5A 4235   9.789   5.783   7.866 -0.1360  0.0977  0.1926
  265loPI   C6A 4236  10.115   5.979   7.698 -0.1043 -0.2080  0.0508
  265loPI   C1B 4237  10.053   7.191   8.991  0.0991  0.0348  0.1678
  265loPI   C2B 4238  10.254   7.199   8.531 -0.1502  0.1915 -0.0377
  265loPI   C3B 4239  10.268   7.265   8.110 -0.0951  0.0470 -0.0141
  265loPI   C4B 4240  10.413   7.203   7.687  0.0192 -0.1749 -0.0901
  266loPI    C1 4241   0.535   1.074   9.744  0.1598  0.0745 -0.1399
  266loPI    C2 4242   0.562   0.847   9.415  0.2514 -0.1882  0.0456
  266loPI    C3 4243   0.744   0.733   9.753  0.1951  0.1014  0.1772
  266loPI   PO4 4244   0.265   1.117   9.746 -0.0542 -0.1375  0.0465
  266loPI   GL1 4245  -0.074   1.041   9.484  0.3230  0.1299  0.1138
  266loPI   GL2 4246  -0.008   0.797   9.482 -0.0641  0.0284  0.0251
  266loPI   C1A 4247   0.163   1.018   9.083  0.0210 -0.2009  0.6724
  266loPI   C2A 4248   0.205   1.195   8.716 -0.2472  0.0592 -0.0457
  266loPI   C3A 4249   0.078   1.195   8.311  0.0343  0.5975 -0.1126
  266loPI   C4A 4250   0.080   0.851   8.005  0.1642 -0.0676  0.1127
  266loPI   C5A 4251  -0.210   0.566   7.830  0.1655  0.0195  0.3082
  266loPI   C6A 4252  -0.277   0.137   7.812  0.2340 -0.0604 -0.0729
  266loPI   C1B 4253  -0.272   0.656   9.273 -0.1356  0.1014 -0.0195
  266loPI   C2B 4254  -0.175   0.785   8.830 -0.0266  0.0063  0.2828
  266loPI   C3B 4255  -0.314   0.901   8.433  0.0696 -0.1975 -0.0484
  266loPI   C4B 4256  -0.382   0.973   7.961  0.1124  0.0803 -0.0504
  267loPI    C1 4257   1.815   6.728   9.548 -0.2837  0.0494  0.1329
  267loPI    C2 4258   1.788   6.856   9.171  0.2299 -0.1785  0.0103
  267loPI    C3 4259   1.656   6.492   9.267 -0.3770  0.0714  0.1672
  267loPI   PO4 4260   1.931   7.012   9.626 -0.3272  0.0426 -0.3171
  267loPI   GL1 4261   1.798   7.379   9.350  0.1229  0.4165  0.3389
  267loPI   GL2 4262   2.088   7.337   9.271 -0.0728  0.0291 -0.0774
  267loPI   C1A 4263   1.560   7.529   8.985  0.0384  0.1187  0.1627
  267loPI   C2A 4264   1.740   7.790   8.600 -0.1592  0.0218 -0.4401
  267loPI   C3A 4265   1.890   7.683   8.197  0.0023  0.3657 -0.0305
  267loPI   C4A 4266   1.857   7.761   7.718 -0.4701 -0.1131  0.0100
  267loPI   C5A 4267   1.677   8.088   7.447  0.1112 -0.0213  0.3396
  267loPI   C6A 4268   1.508   8.204   7.148  0.2843 -0.1657 -0.0778
  267loPI   C1B 4269   2.071   7.748   9.102 -0.0354  0.2933 -0.0333
  267loPI   C2B 4270   2.243   7.974   8.846 -0.2683 -0.0887 -0.0031
  267loPI   C3B 4271   2.210   7.988   8.421 -0.2070  0.4883  0.0068
  267loPI   C4B 4272   2.401   8.199   8.079  0.0688  0.0247  0.0017
  268loPI    C1 4273   9.959   5.095   9.932 -0.1763 -0.0502  0.0402
  268loPI    C2 4274   9.778   5.249  10.254  0.0050 -0.1974  0.2155
  268loPI    C3 4275  10.059   4.969  10.298  0.0947 -0.1554 -0.0679
  268loPI   PO4 4276   9.752   5.072   9.761 -0.0780  0.3307  0.1628
  268loPI   GL1 4277   9.673   4.988   9.347  0.0574  0.1760  0.0134
  268loPI   GL2 4278   9.658   4.773   9.100  0.2883  0.0251  0.0118
  268loPI   C1A 4279   9.979   5.221   9.091  0.1255  0.3599 -0.0609
  268loPI   C2A 4280  10.367   5.267   8.771 -0.1919 -0.2207 -0.0328
  268loPI   C3A 4281  10.433   5.526   8.456  0.2502  0.2597 -0.1512
  268loPI   C4A 4282  10.504   5.647   8.082 -0.1633 -0.3073  0.2793
  268loPI   C5A 4283  10.652   5.808   7.566 -0.0758  0.1635 -0.1968
  268loPI   C6A 4284  10.691   6.017   7.281  0.1418 -0.1193 -0.0798
  268loPI   C1B 4285   9.747   4.619   8.647  0.0503 -0.0275 -0.2940
  268loPI   C2B 4286   9.935   4.295   8.342  0.0923  0.1449 -0.0773
  268loPI   C3B 4287   9.979   3.877   8.185 -0.2483 -0.0482  0.1785
  268loPI   C4B 4288   9.968   3.670   7.735  0.3135  0.2153 -0.1878
  269loPI    C1 4289   5.406  15.904   9.756  0.1854 -0.3055 -0.0581
  269loPI    C2 4290   5.646  16.219   9.814 -0.1960 -0.0126 -0.0350
  269loPI    C3 4291   5.419  16.082  10.114 -0.2211 -0.1496 -0.1160
  269loPI   PO4 4292   5.232  16.061   9.556 -0.2097  0.1413  0.0479
  269loPI   GL1 4293   4.963  16.214   9.162  0.1710 -0.1541  0.1880
  269loPI   GL2 4294   4.970  15.837   9.125  0.1301 -0.1794  0.2942
  269loPI   C1A 4295   5.073  16.427   8.775 -0.0233  0.1752 -0.1920
  269loPI   C2A 4296   5.091  16.406   8.356 -0.1722 -0.0658  0.0522
  269loPI   C3A 4297   4.908  16.426   7.929  0.1832  0.1549  0.0992
  269loPI   C4A 4298   4.862  16.633   7.544  0.0252 -0.2667  0.0527
  269loPI   C5A 4299   4.729  17.060   7.212 -0.0331  0.4097 -0.1560
  269loPI   C6A 4300   4.984  17.400   6.989 -0.4387 -0.2789 -0.1866
  269loPI   C1B 4301   5.042  15.880   8.719 -0.3662  0.2390  0.0714
  269loPI   C2B 4302   5.049  15.863   8.239  0.0478  0.1296  0.1152
  269loPI   C3B 4303   5.016  15.812   7.757  0.2424  0.1961  0.0987
  269loPI   C4B 4304   5.178  16.049   7.482  0.0609 -0.2065 -0.0095
  270loPI    C1 4305   7.420   6.105   9.722 -0.1434  0.0034  0.0588
  270loPI    C2 4306   7.715   6.375   9.736  0.0382 -0.1721 -0.2657
  270loPI    C3 4307   7.624   6.160  10.061  0.0755  0.0837 -0.0836
  270loPI   PO4 4308   7.425   5.853   9.529  0.2724  0.0218 -0.0502
  270loPI   GL1 4309   7.331   5.856   9.199  0.0815 -0.1052 -0.1135
  270loPI   GL2 4310   6.948   5.638   9.100 -0.3462 -0.2168  0.0862
  270loPI   C1A 4311   7.313   5.873   8.750 -0.0244 -0.0713  0.1746
  270loPI   C2A 4312   7.027   5.977   8.376 -0.0740 -0.1500 -0.1426
  270loPI   C3A 4313   6.905   5.834   7.941 -0.2085 -0.1890  0.4992
  270loPI   C4A 4314   6.916   5.489   7.720  0.1820 -0.0784  0.0455
  270loPI   C5A 4315   7.041   5.173   7.473 -0.0690  0.1966 -0.0333
  270loPI   C6A 4316   6.835   4.891   7.236  0.0515  0.1087 -0.1484
  270loPI   C1B 4317   6.922   5.530   8.623  0.0316 -0.3875 -0.0866
  270loPI   C2B 4318   6.845   5.477   8.287 -0.0145  0.3344  0.2821
  270loPI   C3B 4319   6.622   5.231   8.006  0.2889 -0.2838  0.0362
  270loPI   C4B 4320   6.509   5.165   7.524 -0.0368  0.1499 -0.0864
  271loPI    C1 4321   6.178   9.422   9.391  0.0759  0.1921  0.0565
  271loPI    C2 4322   6.506   9.424   9.620  0.0882  0.0751  0.0404
  271loPI    C3 4323   6.205   9.174   9.704  0.2077 -0.1659 -0.2316
  271loPI   PO4 4324   6.109   9.791   9.275  0.0273  0.0397 -0.0969
  271loPI   GL1 4325   6.078   9.897   8.852  0.0738  0.0191 -0.0270
  271loPI   GL2 4326   5.733   9.733   8.877  0.0429 -0.1875 -0.0516
  271loPI   C1A 4327   6.168   9.944   8.487  0.0487  0.3122  0.0783
  271loPI   C2A 4328   6.309   9.897   8.075 -0.3776 -0.2683  0.0606
  271loPI   C3A 4329   6.235  10.127   7.771 -0.1126 -0.1223  0.0390
  271loPI   C4A 4330   6.490  10.049   7.447  0.3994 -0.0314  0.4500
  271loPI   C5A 4331   6.432   9.922   7.151 -0.1468 -0.1082  0.1974
  271loPI   C6A 4332   6.272   9.884   6.747  0.0411  0.0927 -0.1539
  271loPI   C1B 4333   5.778   9.641   8.376  0.2901  0.1268  0.3027
  271loPI   C2B 4334   5.716   9.371   8.058  0.3004 -0.0922  0.1575
  271loPI   C3B 4335   5.605   8.995   7.931  0.1285  0.1029  0.0079
  271loPI   C4B 4336   5.592   8.833   7.635  0.0637 -0.3334 -0.0712
  272loPI    C1 4337  15.203  15.005  10.169  0.1266  0.0011 -0.0224
  272loPI    C2 4338  15.083  15.036  10.549  0.1130  0.0129 -0.0277
  272loPI    C3 4339  15.006  14.703  10.342 -0.5492  0.2885 -0.2539
  272loPI   PO4 4340  15.028  15.289  10.030  0.0964 -0.1078 -0.1075
  272loPI   GL1 4341  15.282  15.389   9.675 -0.1297  0.1087 -0.0530
  272loPI   GL2 4342  15.239  15.476   9.384  0.2933 -0.0081 -0.5294
  272loPI   C1A 4343  15.703  15.253   9.537 -0.0629  0.1091  0.3137
  272loPI   C2A 4344  15.654  15.216   9.073 -0.3513  0.0547  0.1904
  272loPI   C3A 4345  15.817  15.348   8.667  0.0926  0.2917  0.2598
  272loPI   C4A 4346  15.853  15.236   8.198 -0.1102 -0.0572 -0.0831
  272loPI   C5A 4347  15.771  14.947   7.904  0.1458  0.2902  0.1201
  272loPI   C6A 4348  15.762  14.656   7.507 -0.2776 -0.5043  0.1356
  272loPI   C1B 4349  15.335  15.526   8.869 -0.2281 -0.2917  0.1309
  272loPI   C2B 4350  15.450  15.666   8.440  0.3844  0.1006  0.3384
  272loPI   C3B 4351  15.240  15.855   8.047 -0.0254  0.0169  0.1754
  272loPI   C4B 4352  15.284  16.275   7.792 -0.0624 -0.2929  0.1253
  273loPI    C1 4353  12.523   5.495   9.906 -0.1964 -0.0343 -0.0737
  273loPI    C2 4354  12.814   5.225   9.858  0.2304  0.3592  0.2139
  273loPI    C3 4355  12.585   5.217  10.186 -0.0067  0.1274  0.0472
  273loPI   PO4 4356  12.632   5.690   9.772 -0.1981  0.0091  0.0896
  273loPI   GL1 4357  12.658   5.701   9.386 -0.0116  0.0091  0.2291
  273loPI   GL2 4358  12.447   5.935   9.375 -0.3191  0.0337  0.1799
  273loPI   C1A 4359  12.484   5.490   8.991 -0.1231 -0.2140 -0.0462
  273loPI   C2A 4360  12.569   5.633   8.565 -0.1334  0.4520 -0.2156
  273loPI   C3A 4361  12.864   5.823   8.424  0.1371 -0.0648  0.1045
  273loPI   C4A 4362  13.114   5.728   8.482  0.3726  0.2164 -0.1325
  273loPI   C5A 4363  13.337   5.898   8.755 -0.4061  0.0906  0.0585
  273loPI   C6A 4364  13.336   6.026   9.183 -0.0596  0.4475 -0.4445
  273loPI   C1B 4365  12.380   6.053   9.024 -0.4766 -0.1285 -0.1531
  273loPI   C2B 4366  12.506   6.137   8.570 -0.2611 -0.0295  0.0870
  273loPI   C3B 4367  12.609   6.291   8.135 -0.1447 -0.1218  0.1380
  273loPI   C4B 4368  12.806   6.261   7.633  0.0954 -0.0206  0.1650
  274loPI    C1 4369  15.959  12.791  10.158 -0.1094 -0.0633 -0.0444
  274loPI    C2 4370  16.234  12.659   9.900  0.0361 -0.3947  0.2711
  274loPI    C3 4371  16.271  12.578  10.290 -0.1497  0.1468  0.4098
  274loPI   PO4 4372  15.989  13.065  10.005  0.0456 -0.2307  0.0712
  274loPI   GL1 4373  16.192  13.207   9.653 -0.1717  0.4089  0.1124
  274loPI   GL2 4374  16.030  13.482   9.387  0.2372  0.0860  0.0790
  274loPI   C1A 4375  15.964  13.033   9.254  0.1923 -0.1193 -0.1797
  274loPI   C2A 4376  15.925  13.145   8.837  0.0790  0.2645 -0.0812
  274loPI   C3A 4377  16.094  12.965   8.450 -0.2597  0.0391 -0.1003
  274loPI   C4A 4378  16.428  12.867   8.130  0.3476 -0.1040  0.0772
  274loPI   C5A 4379  16.704  12.649   7.796 -0.2639 -0.5677 -0.0841
  274loPI   C6A 4380  17.174  12.621   7.835  0.1093 -0.0654  0.1307
  274loPI   C1B 4381  16.170  13.532   9.089 -0.1762  0.1034  0.0100
  274loPI   C2B 4382  16.379  13.294   8.810  0.1831  0.2117 -0.0238
  274loPI   C3B 4383  16.644  13.252   8.395  0.0049 -0.2074  0.1329
  274loPI   C4B 4384  16.753  13.189   7.934  0.1548  0.1459  0.3511
  275loPI    C1 4385   2.389  18.529   9.734 -0.0224 -0.0315  0.1448
  275loPI    C2 4386   2.478  18.480  10.121 -0.1347  0.0463  0.1808
  275loPI    C3 4387   2.525  18.176   9.865 -0.0171  0.0082  0.2469
  275loPI   PO4 4388   2.260  18.827   9.769  0.0543  0.1095 -0.0109
  275loPI   GL1 4389   2.674  18.974   9.486  0.3646  0.0431 -0.1660
  275loPI   GL2 4390   2.807  19.349   9.434 -0.1224 -0.0834 -0.0149
  275loPI   C1A 4391   2.920  18.746   9.158 -0.0130  0.1060  0.4394
  275loPI   C2A 4392   2.975  18.655   8.735  0.2033 -0.0091 -0.0347
  275loPI   C3A 4393   2.813  18.592   8.343 -0.1173 -0.0141 -0.1725
  275loPI   C4A 4394   2.529  18.272   8.316  0.1807 -0.0226  0.0303
  275loPI   C5A 4395   2.214  18.030   8.044 -0.1816 -0.0884 -0.0884
  275loPI   C6A 4396   2.081  17.776   7.757  0.0214  0.0170 -0.3008
  275loPI   C1B 4397   2.903  19.281   8.998 -0.3624  0.0133  0.1029
  275loPI   C2B 4398   2.737  19.124   8.596 -0.0938 -0.1037  0.4101
  275loPI   C3B 4399   2.610  18.982   8.177 -0.0556  0.1570 -0.0246
  275loPI   C4B 4400   2.660  18.873   7.799 -0.3090  0.1540  0.0504
  276loPI    C1 4401   9.145   5.542  10.075 -0.0316  0.1316  0.3006
  276loPI    C2 4402   8.929   5.825  10.256 -0.1353  0.1297  0.1809
  276loPI    C3 4403   9.015   5.485  10.449  0.0527  0.2716  0.3518
  276loPI   PO4 4404   9.102   5.522   9.752 -0.0365 -0.0325 -0.3168
  276loPI   GL1 4405   9.099   5.664   9.280  0.0604 -0.0419  0.6278
  276loPI   GL2 4406   9.407   5.451   9.344 -0.0651 -0.2131 -0.0757
  276loPI   C1A 4407   9.082   5.873   8.898 -0.0878 -0.2743 -0.3125
  276loPI   C2A 4408   9.403   5.946   8.530 -0.2438 -0.1247 -0.2568
  276loPI   C3A 4409   9.452   5.998   8.101  0.0248  0.1931 -0.1485
  276loPI   C4A 4410   9.350   5.914   7.704 -0.2185 -0.3092  0.0731
  276loPI   C5A 4411   9.409   5.493   7.464  0.0135  0.4460  0.2004
  276loPI   C6A 4412   9.360   5.006   7.427 -0.1636 -0.1545  0.0914
  276loPI   C1B 4413   9.374   5.316   8.972  0.2337  0.0092 -0.0277
  276loPI   C2B 4414   9.253   5.511   8.612 -0.2073  0.1444 -0.1194
  276loPI   C3B 4415   9.396   5.492   8.214  0.0167  0.1541  0.1553
  276loPI   C4B 4416   9.344   5.319   7.911  0.1944  0.3675  0.2734
  277loPI    C1 4417   7.018  13.889   9.486  0.0898  0.2044  0.1624
  277loPI    C2 4418   6.705  13.790   9.715  0.1081  0.2560  0.2098
  277loPI    C3 4419   7.006  14.004   9.869  0.0694  0.3850  0.1086
  277loPI   PO4 4420   6.882  13.774   9.229 -0.0348  0.0357 -0.1391
  277loPI   GL1 4421   6.700  13.755   8.915 -0.0085 -0.2263 -0.4690
  277loPI   GL2 4422   6.503  13.531   8.907  0.2506 -0.1545  0.3050
  277loPI   C1A 4423   6.629  14.002   8.640  0.2567  0.1815 -0.0481
  277loPI   C2A 4424   6.488  14.033   8.169 -0.1364  0.0059 -0.0853
  277loPI   C3A 4425   6.230  14.048   7.799  0.0764  0.3345 -0.2167
  277loPI   C4A 4426   6.341  14.033   7.379 -0.3610 -0.0794  0.2374
  277loPI   C5A 4427   6.709  14.164   7.209 -0.0024  0.3315 -0.1504
  277loPI   C6A 4428   7.145  14.252   7.528 -0.1360 -0.1472  0.1775
  277loPI   C1B 4429   6.545  13.522   8.469 -0.1064  0.1853  0.0323
  277loPI   C2B 4430   6.579  13.516   8.156 -0.0001 -0.0816 -0.0540
  277loPI   C3B 4431   6.510  13.654   7.736  0.2664 -0.1466 -0.1527
  277loPI   C4B 4432   6.906  13.779   7.481  0.0232  0.1897  0.0795
  278loPI    C1 4433  11.668  18.413  10.444  0.2004 -0.2616  0.1073
  278loPI    C2 4434  11.369  18.290  10.680 -0.3139  0.1853 -0.2859
  278loPI    C3 4435  11.589  18.607  10.785 -0.1474  0.0193 -0.1261
  278loPI   PO4 4436  11.516  18.480  10.248 -0.1690 -0.0028 -0.0531
  278loPI   GL1 4437  11.417  18.343   9.836 -0.0413 -0.1470  0.0569
  278loPI   GL2 4438  11.377  18.728   9.542  0.0009  0.0289  0.3021
  278loPI   C1A 4439  11.327  18.234   9.449  0.4097 -0.1613  0.0522
  278loPI   C2A 4440  11.150  18.316   9.027 -0.2092 -0.1501 -0.0111
  278loPI   C3A 4441  11.142  18.238   8.506 -0.1120  0.1043 -0.0978
  278loPI   C4A 4442  11.193  18.428   8.076  0.0505  0.1034 -0.0373
  278loPI   C5A 4443  11.114  18.694   7.700 -0.1453  0.0795 -0.0792
  278loPI   C6A 4444  11.243  19.036   7.473  0.2658  0.0394  0.5193
  278loPI   C1B 4445  11.354  18.854   9.015 -0.0833  0.2215  0.0521
  278loPI   C2B 4446  11.460  18.974   8.651 -0.0326  0.0430 -0.0353
  278loPI   C3B 4447  11.722  18.725   8.278  0.0741  0.1501 -0.1451
  278loPI   C4B 4448  11.609  18.698   7.942  0.2485  0.2118 -0.0231
  279loPI    C1 4449   5.968  11.184   9.407 -0.2074 -0.3161 -0.2392
  279loPI    C2 4450   6.154  11.119   9.059  0.1774  0.2028 -0.1420
  279loPI    C3 4451   6.054  11.491   9.166 -0.3087  0.0051  0.1241
  279loPI   PO4 4452   5.728  11.028   9.335  0.0085 -0.2375  0.0907
  279loPI   GL1 4453   5.558  10.841   9.028 -0.0965  0.2309  0.0523
  279loPI   GL2 4454   5.811  10.719   8.976  0.1268 -0.3603  0.2296
  279loPI   C1A 4455   5.366  11.029   8.626 -0.1492  0.1311 -0.0231
  279loPI   C2A 4456   5.085  10.891   8.362  0.0958 -0.2688  0.0821
  279loPI   C3A 4457   5.059  10.755   8.055  0.1010 -0.1747  0.0356
  279loPI   C4A 4458   5.090  10.847   7.677 -0.0791  0.1631 -0.3146
  279loPI   C5A 4459   5.097  10.929   7.279  0.1873 -0.0406  0.0776
  279loPI   C6A 4460   5.210  11.125   6.887 -0.1921 -0.1187 -0.2762
  279loPI   C1B 4461   5.900  10.416   8.625  0.0502  0.1757  0.3021
  279loPI   C2B 4462   5.860  10.207   8.209 -0.1627 -0.1785 -0.0226
  279loPI   C3B 4463   5.853   9.829   7.853  0.2178  0.2500  0.1599
  279loPI   C4B 4464   5.920   9.685   7.443 -0.0853 -0.1179  0.1102
  280loPI    C1 4465  17.904  16.353  10.510 -0.1567 -0.0457 -0.0921
  280loPI    C2 4466  17.803  16.560  10.182 -0.0662 -0.1638 -0.1953
  280loPI    C3 4467  17.731  16.712  10.545 -0.4069 -0.1464 -0.2668
  280loPI   PO4 4468  18.173  16.235  10.411  0.0244 -0.2397  0.0991
  280loPI   GL1 4469  18.531  16.498  10.132 -0.0845  0.0784  0.1715
  280loPI   GL2 4470  18.879  16.430   9.969 -0.1328 -0.1222  0.4887
  280loPI   C1A 4471  18.149  16.505   9.802 -0.3919 -0.1634 -0.1015
  280loPI   C2A 4472  18.128  16.622   9.418  0.1251  0.0707 -0.1908
  280loPI   C3A 4473  18.120  16.766   8.966  0.1715 -0.0229 -0.1005
  280loPI   C4A 4474  18.131  16.678   8.580 -0.0424 -0.2460  0.0272
  280loPI   C5A 4475  18.256  16.840   8.118 -0.0615  0.1979  0.0897
  280loPI   C6A 4476  18.224  17.215   8.002 -0.2781  0.4739  0.2116
  280loPI   C1B 4477  18.606  16.554   9.662  0.3198  0.0641 -0.1714
  280loPI   C2B 4478  18.587  16.447   9.280  0.2788 -0.3003 -0.0765
  280loPI   C3B 4479  18.441  16.423   8.893 -0.2092  0.1346 -0.1051
  280loPI   C4B 4480  18.481  16.365   8.557  0.0339  0.4590  0.2967
  281loPI    C1 4481  16.446  15.121  10.490  0.0656  0.0379  0.0902
  281loPI    C2 4482  16.465  14.974  10.861 -0.1065 -0.1061  0.0432
  281loPI    C3 4483  16.110  15.061  10.698 -0.0170  0.2034  0.0072
  281loPI   PO4 4484  16.691  14.968  10.359  0.0082 -0.0357 -0.4723
  281loPI   GL1 4485  16.840  14.814   9.941 -0.2424 -0.0616  0.3781
  281loPI   GL2 4486  17.205  14.818   9.755 -0.1229  0.1749  0.1034
  281loPI   C1A 4487  16.786  15.041   9.534  0.0303  0.3659 -0.0732
  281loPI   C2A 4488  16.495  15.340   9.333 -0.2532 -0.1104  0.0921
  281loPI   C3A 4489  16.565  15.708   8.964  0.2120  0.1301  0.3312
  281loPI   C4A 4490  16.461  15.855   8.570  0.1793 -0.1695 -0.0483
  281loPI   C5A 4491  16.473  15.934   8.167 -0.2145  0.0569  0.1950
  281loPI   C6A 4492  16.421  16.186   7.852  0.0208  0.2819 -0.0543
  281loPI   C1B 4493  17.382  14.989   9.468 -0.1382 -0.1875  0.2494
  281loPI   C2B 4494  17.312  14.992   9.026 -0.2508 -0.0910 -0.0298
  281loPI   C3B 4495  17.285  15.175   8.545 -0.2699  0.2470  0.0699
  281loPI   C4B 4496  17.651  15.173   8.208 -0.1299  0.0905  0.0003
  282loPI    C1 4497  15.533  12.847  10.337  0.2136  0.0440 -0.1447
  282loPI    C2 4498  15.497  12.542  10.081 -0.4429  0.0391 -0.0653
  282loPI    C3 4499  15.673  12.485  10.435  0.0476 -0.0688 -0.3163
  282loPI   PO4 4500  15.501  13.050  10.120  0.2262  0.1013  0.0900
  282loPI   GL1 4501  15.238  13.087   9.714 -0.1504  0.1835 -0.0580
  282loPI   GL2 4502  14.985  13.036   9.520 -0.2420  0.1020  0.2173
  282loPI   C1A 4503  15.448  13.020   9.317 -0.2138  0.1664  0.0008
  282loPI   C2A 4504  15.470  12.932   8.909 -0.1359  0.2291  0.2754
  282loPI   C3A 4505  15.612  12.787   8.406  0.0862 -0.2013  0.0139
  282loPI   C4A 4506  15.621  12.885   7.949 -0.0434 -0.1252  0.0491
  282loPI   C5A 4507  16.044  13.038   7.827  0.0600 -0.3047 -0.0395
  282loPI   C6A 4508  16.475  13.115   7.541 -0.0484 -0.0621  0.5595
  282loPI   C1B 4509  15.008  12.789   9.115  0.2333  0.0877 -0.1486
  282loPI   C2B 4510  14.993  12.658   8.703  0.0886  0.2906  0.0436
  282loPI   C3B 4511  14.677  12.517   8.359 -0.1322 -0.1855  0.0633
  282loPI   C4B 4512  14.419  12.668   8.087 -0.1126 -0.0363 -0.0490
  283loPI    C1 4513  12.859   2.463   9.997  0.0720 -0.1171  0.1488
  283loPI    C2 4514  12.898   2.597  10.372 -0.0184 -0.1168  0.1585
  283loPI    C3 4515  12.896   2.204  10.300  0.0898 -0.1159  0.1477
  283loPI   PO4 4516  12.702   2.658   9.824  0.0860 -0.0681 -0.0599
  283loPI   GL1 4517  12.586   2.888   9.377  0.0718  0.0979 -0.0379
  283loPI   GL2 4518  12.757   2.520   9.279  0.0946 -0.0016  0.0379
  283loPI   C1A 4519  12.372   2.856   9.039  0.1937  0.0882 -0.2740
  283loPI   C2A 4520  12.132   2.958   8.821  0.3950  0.1253 -0.0772
  283loPI   C3A 4521  12.034   3.238   8.506 -0.0861 -0.1351 -0.2145
  283loPI   C4A 4522  12.060   3.518   8.218 -0.1261 -0.0400 -0.1105
  283loPI   C5A 4523  11.989   3.890   7.922 -0.2477 -0.0319  0.1240
  283loPI   C6A 4524  12.403   4.137   7.808  0.1495  0.1137  0.0095
  283loPI   C1B 4525  12.464   2.304   8.963 -0.0519 -0.1880 -0.0765
  283loPI   C2B 4526  12.463   2.053   8.536 -0.0189 -0.1070 -0.0084
  283loPI   C3B 4527  11.988   2.146   8.319  0.0333  0.2655 -0.3044
  283loPI   C4B 4528  11.648   1.879   8.112 -0.1938 -0.2006 -0.1090
  284loPI    C1 4529  17.759  15.750  10.374  0.0784 -0.0422  0.0737
  284loPI    C2 4530  17.487  15.966  10.572  0.0580  0.0088 -0.0098
  284loPI    C3 4531  17.564  16.044  10.187  0.3903  0.1778  0.0871
  284loPI   PO4 4532  17.648  15.478  10.321 -0.2345  0.0303 -0.0781
  284loPI   GL1 4533  17.764  15.432   9.901 -0.2318  0.2086 -0.3955
  284loPI   GL2 4534  18.051  15.519   9.906  0.1067  0.0186 -0.0584
  284loPI   C1A 4535  17.556  15.558   9.528 -0.1230 -0.4535  0.0177
  284loPI   C2A 4536  17.440  15.645   9.089  0.0598  0.0932 -0.0476
  284loPI   C3A 4537  17.561  15.729   8.706  0.0269 -0.1692  0.2127
  284loPI   C4A 4538  17.393  15.635   8.278  0.0693 -0.0499  0.1074
  284loPI   C5A 4539  17.311  15.721   7.883  0.4158  0.3064  0.0329
  284loPI   C6A 4540  17.276  15.972   7.480  0.0662 -0.0628 -0.2806
  284loPI   C1B 4541  18.077  15.667   9.472  0.0874  0.1102  0.0847
  284loPI   C2B 4542  17.964  15.741   9.083 -0.2461 -0.2058 -0.0627
  284loPI   C3B 4543  18.208  15.822   8.706 -0.1762 -0.1622  0.2050
  284loPI   C4B 4544  18.276  15.862   8.282 -0.2332  0.2847  0.1666
  285loPI    C1 4545   6.991   2.457   9.387  0.2347 -0.1851 -0.0176
  285loPI    C2 4546   7.193   2.750   9.569 -0.1958  0.1070  0.0030
  285loPI    C3 4547   7.164   2.391   9.742  0.2169  0.0883  0.0439
  285loPI   PO4 4548   7.028   2.399   9.211  0.1913  0.3483 -0.1281
  285loPI   GL1 4549   6.875   2.477   8.861 -0.0321  0.1833 -0.1423
  285loPI   GL2 4550   7.251   2.403   8.766 -0.3186 -0.1053 -0.0203
  285loPI   C1A 4551   6.588   2.623   8.629  0.0210  0.0400 -0.4872
  285loPI   C2A 4552   6.344   2.465   8.390  0.3534  0.1494  0.3064
  285loPI   C3A 4553   6.104   2.180   8.153 -0.1359 -0.1505  0.0950
  285loPI   C4A 4554   6.022   2.204   7.660  0.0604  0.0104 -0.0034
  285loPI   C5A 4555   6.075   1.848   7.319  0.2426 -0.2470  0.1849
  285loPI   C6A 4556   5.898   1.864   6.838 -0.3693 -0.1580  0.1237
  285loPI   C1B 4557   7.067   2.430   8.370  0.2950 -0.3257 -0.0976
  285loPI   C2B 4558   6.749   2.531   8.105  0.1382  0.0844 -0.2621
  285loPI   C3B 4559   6.437   2.425   7.818 -0.0187  0.0930 -0.0679
  285loPI   C4B 4560   6.510   2.120   7.380  0.0565  0.1086 -0.0242
  286loPI    C1 4561  18.672   9.201  10.480 -0.1000  0.1068  0.1259
  286loPI    C2 4562  18.963   9.130  10.745 -0.1969  0.2254  0.2664
  286loPI    C3 4563  18.601   8.971  10.800 -0.1974  0.1908  0.1654
  286loPI   PO4 4564  18.783   9.446  10.434 -0.1346  0.2600 -0.0119
  286loPI   GL1 4565  18.641   9.755  10.117  0.0023 -0.0785 -0.0591
  286loPI   GL2 4566  18.954   9.779  10.031 -0.0483  0.2374  0.0671
  286loPI   C1A 4567  18.447   9.823   9.681  0.2746 -0.3528 -0.1909
  286loPI   C2A 4568  18.552   9.878   9.280  0.0959  0.5891 -0.2119
  286loPI   C3A 4569  18.481   9.819   8.866 -0.0624 -0.1678 -0.0398
  286loPI   C4A 4570  18.418   9.894   8.571  0.1207 -0.0396 -0.1330
  286loPI   C5A 4571  18.280   9.928   8.106 -0.0027  0.3145  0.0122
  286loPI   C6A 4572  17.973   9.788   8.096 -0.1851  0.1310 -0.0893
  286loPI   C1B 4573  18.893  10.061   9.666  0.0628  0.2624 -0.0083
  286loPI   C2B 4574  18.777  10.281   9.378  0.0028  0.0970 -0.4181
  286loPI   C3B 4575  18.684  10.292   8.934  0.0363 -0.2753 -0.0425
  286loPI   C4B 4576  18.740  10.244   8.408  0.1402 -0.1803  0.1664
  287loPI    C1 4577  10.514   8.548  10.091 -0.0540  0.2622  0.2831
  287loPI    C2 4578  10.760   8.659   9.796 -0.2516  0.0221  0.0220
  287loPI    C3 4579  10.845   8.756  10.175  0.1114  0.1573 -0.0901
  287loPI   PO4 4580  10.479   8.317  10.023 -0.2361  0.4008  0.1382
  287loPI   GL1 4581  10.577   8.130   9.593 -0.0979  0.1937 -0.4109
  287loPI   GL2 4582  10.295   8.012   9.669  0.1756 -0.1127 -0.0258
  287loPI   C1A 4583  10.641   7.861   9.091 -0.0516 -0.2769  0.2077
  287loPI   C2A 4584  10.857   7.852   8.678  0.0571 -0.5093 -0.2618
  287loPI   C3A 4585  10.978   8.025   8.348 -0.1516 -0.0627  0.1053
  287loPI   C4A 4586  10.816   8.189   7.862 -0.0268  0.0622  0.2096
  287loPI   C5A 4587  10.318   8.207   7.763 -0.0996 -0.0206 -0.3136
  287loPI   C6A 4588  10.139   8.037   7.400 -0.0697 -0.0347 -0.0290
  287loPI   C1B 4589  10.096   8.108   9.273 -0.1989  0.1573 -0.1004
  287loPI   C2B 4590  10.158   8.248   8.905  0.4803  0.1680  0.0296
  287loPI   C3B 4591  10.300   7.959   8.650 -0.1684 -0.0610 -0.2292
  287loPI   C4B 4592  10.172   7.688   8.342  0.3710 -0.2072 -0.0869
  288loPI    C1 4593  16.455  18.809  10.242 -0.0177  0.0703  0.0303
  288loPI    C2 4594  16.492  18.478  10.463 -0.3902  0.0181  0.0224
  288loPI    C3 4595  16.738  18.787  10.523  0.2156 -0.3951 -0.2290
  288loPI   PO4 4596  16.431  18.595   9.871  0.0809 -0.2124 -0.2052
  288loPI   GL1 4597  16.805  18.568   9.578  0.2195 -0.1158 -0.1805
  288loPI   GL2 4598  17.125  18.763   9.664  0.1501 -0.2344  0.6341
  288loPI   C1A 4599  16.759  19.048   9.543 -0.1463 -0.1751  0.1836
  288loPI   C2A 4600  16.232  19.139   9.498 -0.0549  0.2177  0.0983
  288loPI   C3A 4601  16.026  19.262   9.194 -0.2894  0.0220 -0.0972
  288loPI   C4A 4602  16.098  19.556   8.826 -0.1068 -0.1224 -0.0892
  288loPI   C5A 4603  16.210  19.580   8.406 -0.3229  0.0194 -0.1314
  288loPI   C6A 4604  16.357  19.609   7.900  0.1844 -0.0901  0.0590
  288loPI   C1B 4605  17.262  18.466   9.342  0.0963 -0.1095 -0.0758
  288loPI   C2B 4606  17.211  18.415   8.879  0.2198 -0.2207 -0.1959
  288loPI   C3B 4607  17.130  18.370   8.535  0.0555 -0.3688  0.4038
  288loPI   C4B 4608  16.801  18.442   8.301 -0.0967 -0.1942  0.0738
  289loPI    C1 4609  18.874  18.807  10.017 -0.0275  0.0896  0.0334
  289loPI    C2 4610  18.770  18.496   9.787 -0.0807  0.0946  0.0508
  289loPI    C3 4611  18.940  18.433  10.144 -0.1604  0.0844  0.0870
  289loPI   PO4 4612  18.929  18.982   9.870  0.2950 -0.0690 -0.1669
  289loPI   GL1 4613  19.079  18.981   9.476  0.0760 -0.1871 -0.1157
  289loPI   GL2 4614  19.027  18.670   9.391  0.2468  0.2075  0.4469
  289loPI   C1A 4615  19.043  19.047   9.086  0.0188 -0.0907  0.3640
  289loPI   C2A 4616  18.781  19.017   8.697  0.2716  0.3937  0.2443
  289loPI   C3A 4617  18.871  18.898   8.304 -0.0033 -0.1423  0.1287
  289loPI   C4A 4618  18.837  18.697   7.879  0.1285  0.0767 -0.1906
  289loPI   C5A 4619  18.598  18.392   7.753  0.0089 -0.2455 -0.0830
  289loPI   C6A 4620  18.203  18.096   7.756  0.0249 -0.2603  0.2042
  289loPI   C1B 4621  18.950  18.541   8.940 -0.0617  0.0901 -0.0459
  289loPI   C2B 4622  18.809  18.540   8.659  0.1004 -0.0209 -0.0900
  289loPI   C3B 4623  18.867  18.327   8.314  0.3957 -0.1324 -0.1287
  289loPI   C4B 4624  18.897  18.016   7.945  0.0271  0.1296  0.1252
  290loPI    C1 4625  17.471   7.609  10.102 -0.1367 -0.0305  0.0570
  290loPI    C2 4626  17.354   7.292  10.316  0.1081 -0.0656  0.1417
  290loPI    C3 4627  17.590   7.569  10.482  0.1470  0.0029 -0.0262
  290loPI   PO4 4628  17.531   7.522   9.858 -0.0064 -0.2821 -0.2851
  290loPI   GL1 4629  17.287   7.622   9.497  0.0323  0.0039 -0.1970
  290loPI   GL2 4630  17.016   7.685   9.372  0.0864  0.0161  0.0810
  290loPI   C1A 4631  17.213   7.280   9.169 -0.0918 -0.2562 -0.1140
  290loPI   C2A 4632  16.752   7.121   8.950 -0.3843  0.3904  0.1124
  290loPI   C3A 4633  16.490   6.921   8.658 -0.0434 -0.1799 -0.1273
  290loPI   C4A 4634  16.272   6.499   8.633 -0.0036  0.1971 -0.1381
  290loPI   C5A 4635  15.993   6.284   8.428  0.1164 -0.3199  0.1298
  290loPI   C6A 4636  15.734   5.867   8.158  0.2270  0.0581  0.1012
  290loPI   C1B 4637  17.115   7.673   8.909 -0.1651  0.1365 -0.0655
  290loPI   C2B 4638  17.284   7.394   8.635 -0.2386 -0.2609 -0.0774
  290loPI   C3B 4639  17.347   7.257   8.172 -0.0633 -0.2969 -0.0735
  290loPI   C4B 4640  17.366   6.761   8.075 -0.0636 -0.4294 -0.2125
  291loPI    C1 4641   1.520   9.192   9.906  0.1284  0.0926 -0.0805
  291loPI    C2 4642   1.236   9.473   9.907 -0.0334 -0.0689  0.0802
  291loPI    C3 4643   1.482   9.436  10.220 -0.0072 -0.1011  0.0559
  291loPI   PO4 4644   1.603   9.198   9.738  0.2076  0.1423  0.3261
  291loPI   GL1 4645   1.577   9.129   9.295  0.1322  0.1315  0.2766
  291loPI   GL2 4646   1.356   8.950   9.338  0.3982  0.5108 -0.1191
  291loPI   C1A 4647   1.464   9.352   8.938 -0.0703  0.2115  0.1175
  291loPI   C2A 4648   1.240   9.524   8.494 -0.1097 -0.0601  0.1398
  291loPI   C3A 4649   1.229   9.528   8.019  0.1387  0.2096  0.1277
  291loPI   C4A 4650   1.310   9.623   7.757  0.2828  0.3024  0.3339
  291loPI   C5A 4651   1.489   9.730   7.358 -0.2922  0.2936  0.3141
  291loPI   C6A 4652   1.970   9.625   7.231 -0.0974 -0.0631  0.0608
  291loPI   C1B 4653   1.178   8.904   8.967  0.2491  0.0108  0.0153
  291loPI   C2B 4654   1.070   9.057   8.646  0.0619  0.0519 -0.0260
  291loPI   C3B 4655   1.144   9.097   8.246  0.0695 -0.3342 -0.1057
  291loPI   C4B 4656   1.016   9.022   7.807 -0.2874 -0.0484 -0.0503
  292loPI    C1 4657   1.801  11.534   9.667  0.3480  0.0186 -0.0101
  292loPI    C2 4658   2.153  11.539   9.479  0.3495  0.2577 -0.0044
  292loPI    C3 4659   2.013  11.873   9.649  0.2485  0.0967  0.2338
  292loPI   PO4 4660   1.632  11.434   9.516  0.3151  0.0530 -0.1424
  292loPI   GL1 4661   1.809  11.348   9.185 -0.3186 -0.0450  0.0744
  292loPI   GL2 4662   1.646  11.027   9.163  0.2085 -0.0195  0.2879
  292loPI   C1A 4663   1.640  11.355   8.733 -0.1623  0.0642  0.2085
  292loPI   C2A 4664   1.599  11.312   8.302 -0.0836  0.0460  0.2084
  292loPI   C3A 4665   1.515  11.315   7.913  0.4121  0.1399  0.0910
  292loPI   C4A 4666   1.502  11.114   7.614  0.3381  0.2303 -0.1590
  292loPI   C5A 4667   1.892  10.836   7.470  0.1565 -0.2376  0.0820
  292loPI   C6A 4668   2.089  10.625   7.122  0.3099 -0.1344 -0.2940
  292loPI   C1B 4669   1.489  10.905   8.680  0.1612 -0.2117 -0.0899
  292loPI   C2B 4670   1.313  10.914   8.336  0.2030  0.5061  0.1246
  292loPI   C3B 4671   1.155  10.965   7.949  0.0026 -0.1485 -0.1382
  292loPI   C4B 4672   0.880  11.027   7.598 -0.0427  0.0164 -0.0348
  293loPI    C1 4673  14.133  18.247  10.235 -0.0104 -0.1687 -0.1264
  293loPI    C2 4674  14.526  18.182  10.268 -0.0028 -0.0409  0.0531
  293loPI    C3 4675  14.266  17.901  10.386  0.0328  0.0339  0.3175
  293loPI   PO4 4676  14.209  18.418   9.952  0.1178  0.3229  0.0902
  293loPI   GL1 4677  14.357  18.582   9.667 -0.1112 -0.3348  0.4253
  293loPI   GL2 4678  14.553  18.907   9.501 -0.0074 -0.1954  0.1272
  293loPI   C1A 4679  14.085  18.460   9.375  0.3641 -0.2066  0.0153
  293loPI   C2A 4680  13.787  18.428   9.118  0.0440 -0.0596  0.0115
  293loPI   C3A 4681  13.479  18.385   8.756  0.0354 -0.0306 -0.1759
  293loPI   C4A 4682  13.093  18.320   8.420 -0.0930  0.2294  0.1082
  293loPI   C5A 4683  13.080  18.203   8.012  0.0927  0.0173 -0.0839
  293loPI   C6A 4684  13.102  17.845   7.691  0.0365  0.1400  0.5201
  293loPI   C1B 4685  14.369  18.910   9.129  0.1646 -0.1824 -0.0286
  293loPI   C2B 4686  14.119  18.718   8.871  0.0718 -0.0536 -0.1326
  293loPI   C3B 4687  14.309  18.523   8.506 -0.0441  0.0577  0.3092
  293loPI   C4B 4688  14.544  18.575   8.035  0.0654  0.2913  0.1426
  294loPI    C1 4689   3.028   2.148   9.782 -0.0567  0.1012  0.1969
  294loPI    C2 4690   3.215   2.008  10.106  0.1784 -0.0585 -0.0042
  294loPI    C3 4691   3.215   2.400  10.029  0.2189 -0.0320  0.1283
  294loPI   PO4 4692   3.102   1.927   9.554 -0.0789 -0.0468  0.2807
  294loPI   GL1 4693   3.460   1.929   9.296 -0.0082  0.0163 -0.1001
  294loPI   GL2 4694   3.312   1.726   9.162 -0.0269 -0.1757 -0.1198
  294loPI   C1A 4695   3.655   2.156   9.019  0.0177  0.0726  0.1689
  294loPI   C2A 4696   4.062   2.128   8.605 -0.1679 -0.2817 -0.4171
  294loPI   C3A 4697   4.232   2.114   8.157  0.2567 -0.2194 -0.2331
  294loPI   C4A 4698   4.194   1.975   7.831 -0.3050  0.1114  0.0838
  294loPI   C5A 4699   4.276   1.549   7.672 -0.0883 -0.0478  0.0583
  294loPI   C6A 4700   4.230   1.162   7.612 -0.1527 -0.1933  0.1112
  294loPI   C1B 4701   3.124   1.576   8.773  0.2586 -0.0132 -0.0240
  294loPI   C2B 4702   3.224   1.617   8.283 -0.2072  0.4925  0.0845
  294loPI   C3B 4703   3.409   1.427   7.950 -0.4668  0.0121  0.3428
  294loPI   C4B 4704   3.675   1.216   7.910 -0.0955  0.1125 -0.1365
  295loPI    C1 4705  18.425   1.382  10.131 -0.1230 -0.1064 -0.0265
  295loPI    C2 4706  18.499   1.039  10.323 -0.1783 -0.0865  0.0307
  295loPI    C3 4707  18.736   1.356  10.380 -0.1850 -0.0857  0.0536
  295loPI   PO4 4708  18.402   1.341   9.828 -0.2681 -0.0335 -0.0339
  295loPI   GL1 4709  18.217   1.185   9.529 -0.2988 -0.0755  0.0605
  295loPI   GL2 4710  18.401   0.938   9.370  0.4913  0.1194  0.0543
  295loPI   C1A 4711  17.950   1.233   9.128  0.1514 -0.0859  0.0159
  295loPI   C2A 4712  17.898   1.090   8.728 -0.0432 -0.0641 -0.0665
  295loPI   C3A 4713  17.747   0.987   8.379  0.0881  0.2332  0.0209
  295loPI   C4A 4714  17.419   1.059   8.231 -0.0693 -0.0763 -0.0914
  295loPI   C5A 4715  17.193   1.467   7.949  0.1509  0.1693  0.0777
  295loPI   C6A 4716  17.109   1.693   7.564  0.0774  0.1093 -0.2196
  295loPI   C1B 4717  18.346   0.876   8.902 -0.1477 -0.1068 -0.3050
  295loPI   C2B 4718  18.280   0.851   8.427  0.6352  0.3127 -0.0201
  295loPI   C3B 4719  18.183   1.071   8.056  0.2908 -0.0048  0.2995
  295loPI   C4B 4720  17.772   1.059   7.829  0.2329  0.4708 -0.0295
  296loPI    C1 4721  11.075   2.836  10.185 -0.1100  0.1439 -0.1918
  296loPI    C2 4722  10.800   2.999  10.425 -0.1835 -0.1559 -0.0676
  296loPI    C3 4723  11.152   2.883  10.575 -0.0110  0.1665 -0.2139
  296loPI   PO4 4724  11.044   3.043   9.989 -0.2808  0.1289  0.5161
  296loPI   GL1 4725  11.255   3.055   9.627 -0.1196  0.1023  0.2343
  296loPI   GL2 4726  11.412   3.165   9.360 -0.3452 -0.0235 -0.1150
  296loPI   C1A 4727  10.992   3.178   9.265  0.0851 -0.1644  0.0083
  296loPI   C2A 4728  10.703   3.254   8.890  0.2950 -0.2846 -0.1170
  296loPI   C3A 4729  10.581   3.459   8.607  0.1393 -0.0371  0.3350
  296loPI   C4A 4730  10.503   3.762   8.328 -0.2879  0.2265 -0.0057
  296loPI   C5A 4731  10.438   3.854   7.896  0.1045  0.2469 -0.0850
  296loPI   C6A 4732  10.278   4.071   7.527 -0.0452  0.0379  0.0910
  296loPI   C1B 4733  11.668   3.079   8.978  0.0370 -0.0297  0.3779
  296loPI   C2B 4734  11.717   2.820   8.590  0.1168  0.2718 -0.0750
  296loPI   C3B 4735  12.008   2.741   8.329  0.1958 -0.2029  0.2601
  296loPI   C4B 4736  12.341   2.614   7.997  0.0136 -0.2908 -0.2872
  297loPI    C1 4737  11.489   6.132   9.742 -0.0693  0.1554  0.2034
  297loPI    C2 4738  11.132   6.167   9.567 -0.1025 -0.2519  0.1800
  297loPI    C3 4739  11.155   6.077   9.956 -0.0252 -0.0987  0.2111
  297loPI   PO4 4740  11.656   5.941   9.652  0.0664 -0.1900  0.2528
  297loPI   GL1 4741  11.832   5.990   9.359 -0.1298  0.0896  0.0720
  297loPI   GL2 4742  11.533   6.077   9.197  0.0078  0.3206 -0.0087
  297loPI   C1A 4743  11.959   6.312   9.059  0.0713  0.2799 -0.0035
  297loPI   C2A 4744  12.341   6.576   8.903 -0.0504 -0.1391  0.0331
  297loPI   C3A 4745  12.465   6.669   8.500 -0.1238 -0.1040 -0.0925
  297loPI   C4A 4746  12.451   6.754   8.136 -0.1549 -0.1141 -0.0496
  297loPI   C5A 4747  12.522   7.008   7.804 -0.4084 -0.2808  0.0787
  297loPI   C6A 4748  12.355   7.244   7.447 -0.1821  0.1670 -0.3154
  297loPI   C1B 4749  11.595   5.953   8.761  0.2910 -0.4066  0.0238
  297loPI   C2B 4750  11.636   5.939   8.383 -0.0301 -0.3902  0.0924
  297loPI   C3B 4751  11.716   5.935   7.940 -0.3739 -0.1196 -0.0839
  297loPI   C4B 4752  11.843   6.253   7.547  0.0217 -0.2519 -0.3321
  298loPI    C1 4753   2.213  12.835   9.974  0.0748  0.2054  0.0031
  298loPI    C2 4754   2.116  12.885  10.359  0.1634  0.0756  0.0430
  298loPI    C3 4755   2.415  12.640  10.259  0.0180 -0.0370 -0.1203
  298loPI   PO4 4756   2.032  12.932   9.857 -0.0150  0.1851  0.2037
  298loPI   GL1 4757   2.137  13.108   9.482 -0.0581  0.0867  0.0122
  298loPI   GL2 4758   2.476  12.991   9.498  0.0985  0.1971 -0.0668
  298loPI   C1A 4759   2.107  13.522   9.345  0.0737 -0.1493 -0.1265
  298loPI   C2A 4760   1.988  13.776   9.108  0.2075  0.0249 -0.0107
  298loPI   C3A 4761   2.092  13.902   8.614  0.0951  0.0978  0.2053
  298loPI   C4A 4762   1.918  13.777   8.264 -0.1285  0.1550 -0.1027
  298loPI   C5A 4763   1.748  13.650   7.805 -0.3086  0.0803 -0.0487
  298loPI   C6A 4764   1.677  13.708   7.367 -0.0841 -0.0031 -0.0249
  298loPI   C1B 4765   2.433  13.096   9.008  0.1637 -0.0071 -0.3434
  298loPI   C2B 4766   2.630  12.810   8.735 -0.1166 -0.0675  0.5330
  298loPI   C3B 4767   2.498  12.830   8.311  0.5180  0.3527 -0.2700
  298loPI   C4B 4768   2.399  12.819   7.904 -0.0774 -0.2304  0.1325
  299loPI    C1 4769  13.039   5.331  10.403 -0.1154  0.0032  0.2812
  299loPI    C2 4770  13.327   5.362  10.679  0.1299  0.0972  0.0200
  299loPI    C3 4771  13.126   5.688  10.563  0.2726  0.1205 -0.1667
  299loPI   PO4 4772  13.161   5.147  10.183  0.2125 -0.1446 -0.1100
  299loPI   GL1 4773  13.364   5.260   9.748  0.0897  0.2142  0.0597
  299loPI   GL2 4774  13.656   5.267   9.535  0.0389  0.2266 -0.0206
  299loPI   C1A 4775  13.148   5.108   9.427 -0.1944 -0.1426  0.0192
  299loPI   C2A 4776  13.177   4.706   9.398 -0.0069 -0.2990  0.0333
  299loPI   C3A 4777  13.156   4.348   9.133 -0.0862 -0.0333 -0.3971
  299loPI   C4A 4778  12.945   4.209   8.827  0.3617 -0.0949 -0.1793
  299loPI   C5A 4779  12.728   4.261   8.510 -0.3157  0.0884  0.2393
  299loPI   C6A 4780  12.724   4.552   8.141  0.0047 -0.5072 -0.0074
  299loPI   C1B 4781  13.943   5.300   9.234 -0.1804  0.3327 -0.1367
  299loPI   C2B 4782  14.343   5.295   9.049  0.0926  0.3695  0.3166
  299loPI   C3B 4783  14.565   5.510   8.698 -0.3077 -0.1532  0.1814
  299loPI   C4B 4784  14.674   5.559   8.344 -0.1651 -0.2270  0.1397
  300loPI    C1 4785   8.630  13.193   9.626  0.1591  0.1511  0.0187
  300loPI    C2 4786   8.594  13.497   9.883  0.3333  0.1704  0.0215
  300loPI    C3 4787   8.594  13.121  10.018 -0.3026  0.1443 -0.0192
  300loPI   PO4 4788   8.812  13.428   9.446 -0.0159 -0.0359 -0.0270
  300loPI   GL1 4789   8.695  13.680   9.096  0.4486 -0.1705  0.0703
  300loPI   GL2 4790   9.063  13.629   8.914 -0.1487 -0.1369  0.1374
  300loPI   C1A 4791   8.702  13.666   8.568  0.0483 -0.1545 -0.1815
  300loPI   C2A 4792   8.939  13.473   8.246 -0.1251 -0.0345 -0.2292
  300loPI   C3A 4793   9.191  13.553   7.850 -0.1058 -0.1781 -0.2854
  300loPI   C4A 4794   8.932  13.731   7.444  0.0481  0.0729 -0.2572
  300loPI   C5A 4795   8.988  14.135   7.205 -0.2357  0.0295 -0.0530
  300loPI   C6A 4796   8.726  14.480   6.991  0.1671 -0.2937  0.3021
  300loPI   C1B 4797   9.218  13.788   8.486  0.2298  0.4339 -0.1270
  300loPI   C2B 4798   9.505  13.742   8.202 -0.0112 -0.1273  0.0777
  300loPI   C3B 4799   9.707  13.607   7.809  0.1891  0.1226  0.1378
  300loPI   C4B 4800   9.924  13.749   7.430  0.2281 -0.0673 -0.1926
  301loPI    C1 4801  14.250   2.253  10.147 -0.0622 -0.2484 -0.2055
  301loPI    C2 4802  13.939   2.061  10.309 -0.0001 -0.2839 -0.1272
  301loPI    C3 4803  14.305   1.902  10.331  0.0809 -0.0733  0.0950
  301loPI   PO4 4804  14.190   2.318   9.935 -0.1909 -0.0665  0.2565
  301loPI   GL1 4805  14.054   2.126   9.523  0.1463 -0.2556  0.0263
  301loPI   GL2 4806  13.981   1.863   9.351 -0.0345  0.3787 -0.0350
  301loPI   C1A 4807  14.392   2.066   9.263  0.1570  0.4569 -0.0995
  301loPI   C2A 4808  14.474   2.078   8.840 -0.0398  0.0247 -0.0487
  301loPI   C3A 4809  14.547   2.051   8.445 -0.1158  0.1156 -0.0904
  301loPI   C4A 4810  14.505   2.175   8.068 -0.1949  0.3873  0.0375
  301loPI   C5A 4811  14.112   2.508   7.882 -0.2329  0.0850 -0.0496
  301loPI   C6A 4812  13.674   2.445   8.047  0.0517  0.4217 -0.0480
  301loPI   C1B 4813  13.928   1.923   8.905 -0.0910 -0.0403  0.1441
  301loPI   C2B 4814  13.825   1.703   8.703 -0.1497  0.2141  0.0289
  301loPI   C3B 4815  13.772   1.635   8.265  0.0795  0.0612  0.2450
  301loPI   C4B 4816  13.886   1.568   7.859 -0.1695  0.0415  0.1647
  302loPI    C1 4817  15.501  17.085  10.439  0.2642  0.2162 -0.0058
  302loPI    C2 4818  15.472  17.369  10.159  0.1358  0.1757 -0.0342
  302loPI    C3 4819  15.522  17.470  10.543 -0.0524  0.2416 -0.0260
  302loPI   PO4 4820  15.537  16.829  10.275  0.1142 -0.3780  0.0216
  302loPI   GL1 4821  15.506  16.850   9.828  0.2732  0.0534  0.1552
  302loPI   GL2 4822  15.483  17.113   9.715 -0.0064 -0.0322 -0.1168
  302loPI   C1A 4823  15.596  16.787   9.337  0.2589  0.1158  0.3981
  302loPI   C2A 4824  15.626  16.506   8.961  0.0624 -0.1708  0.3571
  302loPI   C3A 4825  15.744  16.643   8.472 -0.1602  0.0860 -0.0444
  302loPI   C4A 4826  15.451  16.825   8.264  0.0503 -0.0944 -0.1422
  302loPI   C5A 4827  15.113  16.719   8.024  0.4167 -0.0409  0.1687
  302loPI   C6A 4828  14.772  16.839   7.766  0.2548  0.1492 -0.2822
  302loPI   C1B 4829  15.373  17.313   9.332  0.1265  0.2972  0.2645
  302loPI   C2B 4830  15.316  17.106   9.061 -0.2056  0.0242 -0.0496
  302loPI   C3B 4831  15.294  16.903   8.721 -0.0346  0.0801 -0.1915
  302loPI   C4B 4832  15.164  16.487   8.528 -0.0171 -0.2122  0.2694
  303loPI    C1 4833   0.757   9.995  10.127 -0.1057  0.0456  0.0128
  303loPI    C2 4834   1.141   9.886  10.153 -0.1725 -0.1830  0.0706
  303loPI    C3 4835   0.980  10.119  10.435 -0.0574 -0.0235  0.0061
  303loPI   PO4 4836   0.703  10.080   9.909 -0.0155 -0.1744 -0.3244
  303loPI   GL1 4837   0.454   9.909   9.664 -0.0757 -0.4617 -0.1713
  303loPI   GL2 4838   0.275   9.662   9.732  0.3084 -0.2883  0.3108
  303loPI   C1A 4839   0.227  10.019   9.335  0.0401 -0.0661  0.0653
  303loPI   C2A 4840  -0.009   9.951   8.962  0.3316  0.0347  0.1266
  303loPI   C3A 4841  -0.119   9.735   8.616 -0.0730 -0.0665  0.1302
  303loPI   C4A 4842  -0.224   9.792   8.209  0.4485  0.0978  0.1898
  303loPI   C5A 4843  -0.392   9.941   7.788  0.0559 -0.0017  0.1165
  303loPI   C6A 4844  -0.569   9.844   7.419  0.2382 -0.1225  0.6004
  303loPI   C1B 4845  -0.106   9.560   9.459  0.2243  0.1540  0.2223
  303loPI   C2B 4846  -0.218   9.395   9.067 -0.2335  0.1391 -0.2217
  303loPI   C3B 4847  -0.292   9.290   8.662 -0.2326 -0.0615 -0.1803
  303loPI   C4B 4848  -0.261   9.210   8.280 -0.2813  0.3094  0.1230
  304loPI    C1 4849   7.706   9.800   9.700 -0.1777  0.1992  0.1644
  304loPI    C2 4850   7.860   9.568   9.414 -0.0764  0.3379  0.1051
  304loPI    C3 4851   7.838   9.434   9.790  0.0540  0.2622  0.0865
  304loPI   PO4 4852   7.732  10.005   9.595 -0.1005 -0.6677 -0.0759
  304loPI   GL1 4853   7.760  10.041   9.203  0.1819  0.0700  0.1406
  304loPI   GL2 4854   7.546   9.923   9.012 -0.2331 -0.2352 -0.0985
  304loPI   C1A 4855   8.030   9.952   8.859  0.0651 -0.0507 -0.0493
  304loPI   C2A 4856   8.318   9.659   8.629  0.2173 -0.0138  0.0427
  304loPI   C3A 4857   8.619   9.741   8.232  0.0721  0.1181 -0.1066
  304loPI   C4A 4858   8.566   9.566   7.874 -0.1672  0.1176 -0.1598
  304loPI   C5A 4859   8.021   9.442   7.946  0.0240  0.0594  0.0325
  304loPI   C6A 4860   7.623   9.271   7.974 -0.0644  0.0089  0.0293
  304loPI   C1B 4861   7.207  10.013   8.759 -0.2322  0.2251  0.1364
  304loPI   C2B 4862   7.193   9.717   8.430  0.0433 -0.3087 -0.0154
  304loPI   C3B 4863   7.262   9.517   8.153  0.0815  0.1598 -0.0199
  304loPI   C4B 4864   7.166   9.554   7.778  0.2695 -0.1699  0.1587
  305loPI    C1 4865  13.496  16.289   9.932 -0.2537 -0.0703  0.0197
  305loPI    C2 4866  13.605  16.151  10.292  0.0120 -0.2209 -0.1154
  305loPI    C3 4867  13.880  16.301  10.043 -0.1396 -0.3012 -0.3345
  305loPI   PO4 4868  13.264  16.546   9.957 -0.2896 -0.2212  0.4720
  305loPI   GL1 4869  13.381  16.813   9.563 -0.1878  0.1041  0.0372
  305loPI   GL2 4870  13.610  16.586   9.473  0.1013  0.0452 -0.1579
  305loPI   C1A 4871  13.321  16.860   9.079  0.4149  0.0329  0.2041
  305loPI   C2A 4872  13.624  16.825   8.762 -0.2292  0.0232 -0.1645
  305loPI   C3A 4873  13.784  16.966   8.346 -0.0419  0.4105 -0.2313
  305loPI   C4A 4874  14.237  17.012   8.023  0.2539  0.0287 -0.1631
  305loPI   C5A 4875  14.639  16.959   8.219 -0.0197 -0.1350 -0.0878
  305loPI   C6A 4876  14.930  17.105   8.371  0.1763  0.1951 -0.0269
  305loPI   C1B 4877  13.881  16.515   9.122 -0.2572 -0.1414  0.0013
  305loPI   C2B 4878  14.068  16.553   8.758 -0.2646 -0.1649  0.0975
  305loPI   C3B 4879  14.234  16.583   8.360 -0.0984  0.1287 -0.0627
  305loPI   C4B 4880  14.418  16.520   7.996 -0.0876 -0.0721 -0.0562
  306loPI    C1 4881  15.657   5.348  10.203 -0.1078 -0.2442 -0.2125
  306loPI    C2 4882  15.400   5.152  10.438 -0.2353  0.1255 -0.0360
  306loPI    C3 4883  15.448   5.547  10.480  0.1064  0.1169 -0.3033
  306loPI   PO4 4884  15.596   5.204   9.969  0.0470 -0.2172 -0.2501
  306loPI   GL1 4885  15.587   5.094   9.601  0.1267  0.0263 -0.2684
  306loPI   GL2 4886  15.821   5.366   9.520  0.0267 -0.2170 -0.1086
  306loPI   C1A 4887  15.386   5.156   9.223  0.3305  0.0101 -0.1365
  306loPI   C2A 4888  15.545   5.151   8.836 -0.2104 -0.0652  0.0836
  306loPI   C3A 4889  15.445   4.935   8.519 -0.3964 -0.1488  0.1036
  306loPI   C4A 4890  15.617   4.798   8.212 -0.3042 -0.0209 -0.2990
  306loPI   C5A 4891  15.956   4.512   8.047  0.1289 -0.2251  0.2455
  306loPI   C6A 4892  15.938   4.447   7.633  0.1951 -0.1396  0.4593
  306loPI   C1B 4893  15.880   5.478   9.091  0.0142 -0.3488 -0.1386
  306loPI   C2B 4894  15.914   5.584   8.690  0.1191  0.0780  0.0295
  306loPI   C3B 4895  16.222   5.804   8.307 -0.0108  0.1464  0.1713
  306loPI   C4B 4896  16.539   6.220   8.293 -0.0477  0.2079 -0.1697
  307loPI    C1 4897  16.238  11.323  10.480  0.0531 -0.2019 -0.2228
  307loPI    C2 4898  16.484  11.042  10.623 -0.0906 -0.3112 -0.1869
  307loPI    C3 4899  16.502  11.416  10.765  0.1388 -0.2874 -0.2738
  307loPI   PO4 4900  16.116  11.196  10.226 -0.0719  0.0052  0.0203
  307loPI   GL1 4901  15.868  11.082   9.874  0.1138  0.1317 -0.1507
  307loPI   GL2 4902  16.184  10.873   9.815 -0.1021 -0.0219 -0.4151
  307loPI   C1A 4903  15.768  10.899   9.429 -0.0481 -0.3144  0.1109
  307loPI   C2A 4904  15.625  10.949   8.949  0.3966 -0.1576  0.1720
  307loPI   C3A 4905  15.365  10.878   8.606 -0.0415  0.0777 -0.0481
  307loPI   C4A 4906  15.521  10.960   8.311  0.2682  0.0839 -0.0160
  307loPI   C5A 4907  15.437  11.203   7.991  0.1484  0.1868  0.1721
  307loPI   C6A 4908  15.047  11.314   7.822 -0.0931  0.1437  0.2077
  307loPI   C1B 4909  16.309  10.759   9.339 -0.2525  0.0055  0.1606
  307loPI   C2B 4910  16.197  10.713   8.958 -0.1519  0.3605  0.2267
  307loPI   C3B 4911  16.263  10.624   8.465 -0.0716  0.1689  0.0116
  307loPI   C4B 4912  16.110  10.304   8.036  0.0004 -0.1726 -0.0318
  308loPI    C1 4913   1.316  17.292  10.476 -0.1416  0.0355 -0.0891
  308loPI    C2 4914   1.341  17.106  10.829  0.0314  0.2046 -0.0106
  308loPI    C3 4915   1.057  17.381  10.768 -0.0949  0.0653 -0.0566
  308loPI   PO4 4916   1.234  17.155  10.298 -0.0654 -0.0969 -0.1207
  308loPI   GL1 4917   1.275  17.215   9.833 -0.0799  0.1433  0.1613
  308loPI   GL2 4918   1.364  17.417   9.653  0.0983 -0.2406 -0.2505
  308loPI   C1A 4919   1.097  17.013   9.496  0.0541  0.0922 -0.2291
  308loPI   C2A 4920   1.012  16.999   9.058  0.0064  0.2828 -0.1087
  308loPI   C3A 4921   0.853  17.030   8.693  0.0408 -0.1894  0.2364
  308loPI   C4A 4922   0.814  17.159   8.274  0.2562 -0.1523  0.0960
  308loPI   C5A 4923   1.024  16.892   8.006 -0.3823 -0.2635  0.2162
  308loPI   C6A 4924   1.484  16.932   7.736 -0.2058  0.2992 -0.0900
  308loPI   C1B 4925   1.127  17.579   9.283 -0.2971 -0.3996 -0.0349
  308loPI   C2B 4926   1.099  17.491   8.802  0.0474  0.0189 -0.2352
  308loPI   C3B 4927   1.355  17.201   8.700 -0.0589 -0.2175  0.2242
  308loPI   C4B 4928   1.484  17.130   8.256 -0.3580  0.0337  0.0522
  309loPI    C1 4929   6.537  12.990   9.797  0.0568 -0.1542 -0.6653
  309loPI    C2 4930   6.853  13.081  10.024 -0.0741 -0.3574 -0.3962
  309loPI    C3 4931   6.595  13.367   9.916 -0.1115 -0.2889 -0.1316
  309loPI   PO4 4932   6.552  12.912   9.518 -0.0061  0.2081  0.0787
  309loPI   GL1 4933   6.211  13.074   9.211 -0.1521  0.1706  0.1532
  309loPI   GL2 4934   6.523  13.090   9.032  0.0377  0.1012 -0.1035
  309loPI   C1A 4935   6.136  13.242   8.839  0.0195  0.0401  0.1641
  309loPI   C2A 4936   6.178  13.219   8.407 -0.2126 -0.1496  0.2418
  309loPI   C3A 4937   6.252  13.150   7.991  0.0057  0.0295 -0.2172
  309loPI   C4A 4938   6.152  13.074   7.634 -0.0141 -0.1988 -0.1196
  309loPI   C5A 4939   6.482  13.279   7.381  0.0686  0.0386 -0.2647
  309loPI   C6A 4940   6.616  13.199   6.889  0.0538  0.0778  0.0887
  309loPI   C1B 4941   6.480  12.854   8.669  0.0545  0.1519 -0.0493
  309loPI   C2B 4942   6.682  12.423   8.594  0.0319  0.1516 -0.0557
  309loPI   C3B 4943   6.891  12.296   8.273 -0.0930 -0.0465 -0.1577
  309loPI   C4B 4944   6.833  12.354   7.815  0.3199  0.0520  0.1051
  310loPI    C1 4945  15.683   3.180  10.224 -0.0214  0.1470  0.2452
  310loPI    C2 4946  15.959   3.359  10.452  0.0915  0.0300  0.2011
  310loPI    C3 4947  15.643   3.183  10.622  0.2197 -0.1323  0.2750
  310loPI   PO4 4948  15.618   3.358  10.048 -0.1404 -0.1296 -0.0379
  310loPI   GL1 4949  15.835   3.675   9.769  0.0354 -0.0722  0.0417
  310loPI   GL2 4950  16.121   3.774   9.697  0.0601 -0.0669  0.1254
  310loPI   C1A 4951  15.750   3.575   9.249  0.2818 -0.0760  0.1395
  310loPI   C2A 4952  16.007   3.367   8.916 -0.2860  0.0334 -0.1296
  310loPI   C3A 4953  16.253   3.386   8.666  0.2091 -0.1569  0.1145
  310loPI   C4A 4954  16.343   3.249   8.322  0.2013  0.1060  0.1147
  310loPI   C5A 4955  16.460   3.139   7.859 -0.1051  0.0696 -0.1048
  310loPI   C6A 4956  16.376   3.125   7.421  0.1863 -0.2568  0.0250
  310loPI   C1B 4957  16.178   3.631   9.372  0.0286  0.0400 -0.0410
  310loPI   C2B 4958  16.099   3.840   8.977 -0.1941  0.0205  0.0283
  310loPI   C3B 4959  16.143   3.976   8.514  0.0192  0.1458 -0.2083
  310loPI   C4B 4960  15.898   4.028   8.304  0.0079  0.0367  0.3066
  311loPI    C1 4961   9.394   2.681   9.980 -0.0970  0.0623 -0.0577
  311loPI    C2 4962   9.692   2.528   9.761  0.0830  0.1156  0.1457
  311loPI    C3 4963   9.636   2.404  10.137 -0.1958  0.0574  0.0879
  311loPI   PO4 4964   9.148   2.661   9.677  0.0870 -0.1377  0.2793
  311loPI   GL1 4965   9.223   2.604   9.257  0.0809  0.0876 -0.1125
  311loPI   GL2 4966   9.267   2.874   9.170 -0.1234 -0.1900  0.0410
  311loPI   C1A 4967   8.974   2.531   8.880 -0.2159 -0.0300  0.1343
  311loPI   C2A 4968   9.109   2.465   8.455  0.2885 -0.2552 -0.0663
  311loPI   C3A 4969   9.507   2.595   8.285  0.1473 -0.0096 -0.0625
  311loPI   C4A 4970   9.692   2.786   8.031 -0.0067  0.0119  0.0575
  311loPI   C5A 4971   9.815   3.130   7.763 -0.1130  0.2678  0.3031
  311loPI   C6A 4972   9.859   3.353   7.346 -0.0461  0.0766  0.1942
  311loPI   C1B 4973   9.447   2.770   8.753  0.0273 -0.0311 -0.0235
  311loPI   C2B 4974   9.371   3.068   8.370 -0.0262  0.2577 -0.3490
  311loPI   C3B 4975   9.380   3.296   8.000 -0.1032  0.1077 -0.4420
  311loPI   C4B 4976   9.462   3.499   7.624 -0.2797  0.1909 -0.2106
  312loPI    C1 4977   0.072   8.156  10.034  0.2969  0.0668 -0.1384
  312loPI    C2 4978   0.333   8.441  10.135  0.2757 -0.0400  0.2327
  312loPI    C3 4979   0.159   8.220  10.419 -0.2837  0.0837 -0.0009
  312loPI   PO4 4980   0.019   8.285   9.815  0.3991  0.3715 -0.1645
  312loPI   GL1 4981  -0.139   8.562   9.554  0.2526 -0.0555  0.2869
  312loPI   GL2 4982   0.096   8.779   9.312  0.2991 -0.1492  0.1782
  312loPI   C1A 4983  -0.335   8.334   9.252  0.0730 -0.3601  0.0061
  312loPI   C2A 4984  -0.398   8.405   8.904 -0.0254 -0.1078 -0.0293
  312loPI   C3A 4985  -0.492   8.444   8.494  0.0515  0.0840  0.2296
  312loPI   C4A 4986  -0.652   8.303   8.114 -0.1521  0.1309 -0.4162
  312loPI   C5A 4987  -1.065   8.193   7.890  0.1255  0.1859  0.1868
  312loPI   C6A 4988  -1.416   8.094   7.598  0.0791  0.1724  0.2510
  312loPI   C1B 4989   0.064   8.960   8.952 -0.1657 -0.0241 -0.2525
  312loPI   C2B 4990  -0.095   8.754   8.647 -0.1819  0.2605  0.2259
  312loPI   C3B 4991  -0.166   8.731   8.132 -0.2918 -0.2294  0.1798
  312loPI   C4B 4992  -0.411   8.616   7.880 -0.1992 -0.0174  0.1886
  313loPI    C1 4993  17.228  14.244  10.611 -0.2043  0.1447  0.0187
  313loPI    C2 4994  17.310  14.177  10.997 -0.2268  0.2532  0.0428
  313loPI    C3 4995  16.931  14.167  10.868 -0.1740 -0.4074 -0.0988
  313loPI   PO4 4996  17.466  14.106  10.522  0.0768 -0.0607 -0.3016
  313loPI   GL1 4997  17.430  14.061  10.064 -0.1444 -0.2780 -0.4172
  313loPI   GL2 4998  17.162  14.295   9.950 -0.0943 -0.2528 -0.0908
  313loPI   C1A 4999  17.422  13.897   9.714  0.1314  0.0463 -0.0541
  313loPI   C2A 5000  17.503  13.998   9.189 -0.4862  0.1405 -0.2658
  313loPI   C3A 5001  17.663  14.154   8.791  0.0038  0.2537  0.0061
  313loPI   C4A 5002  17.909  14.209   8.575 -0.2938  0.1324  0.2969
  313loPI   C5A 5003  18.080  14.365   8.221  0.1396  0.1357  0.2324
  313loPI   C6A 5004  18.218  14.350   7.789  0.0302  0.0995  0.1520
  313loPI   C1B 5005  17.349  14.322   9.488  0.1499  0.0316 -0.0621
  313loPI   C2B 5006  17.373  14.447   9.046  0.0382  0.0035 -0.2361
  313loPI   C3B 5007  17.356  14.591   8.661 -0.1894 -0.3582  0.2148
  313loPI   C4B 5008  17.248  14.749   8.212  0.2332 -0.0958  0.1439
  314loPI    C1 5009   7.890  13.701   9.495 -0.1266  0.1130  0.0292
  314loPI    C2 5010   8.273  13.805   9.540 -0.0228 -0.2089 -0.0813
  314loPI    C3 5011   8.009  13.884   9.829  0.1430 -0.0611  0.0318
  314loPI   PO4 5012   7.834  13.754   9.288  0.0540 -0.1537  0.4801
  314loPI   GL1 5013   8.181  13.816   9.012  0.3155  0.2781 -0.0602
  314loPI   GL2 5014   8.323  13.513   8.847 -0.2436  0.1287  0.0044
  314loPI   C1A 5015   8.331  14.055   8.715  0.1026  0.2151 -0.1828
  314loPI   C2A 5016   8.270  13.817   8.450  0.3223  0.0933  0.3327
  314loPI   C3A 5017   8.456  13.481   8.170 -0.1083 -0.1938  0.0791
  314loPI   C4A 5018   8.650  13.423   7.727 -0.1790  0.1734  0.1123
  314loPI   C5A 5019   8.599  13.295   7.390 -0.3178 -0.0308  0.0564
  314loPI   C6A 5020   8.562  13.040   7.010  0.0766  0.0920  0.2807
  314loPI   C1B 5021   8.622  13.232   8.512 -0.2085 -0.1598  0.0976
  314loPI   C2B 5022   8.791  13.032   8.132 -0.0273 -0.1189  0.1245
  314loPI   C3B 5023   9.163  13.086   7.835 -0.0860 -0.2459  0.1946
  314loPI   C4B 5024   9.586  13.133   7.728 -0.2087 -0.1098 -0.1262
  315loPI    C1 5025   0.625  11.815  10.119 -0.0781  0.1667  0.0842
  315loPI    C2 5026   0.772  11.549  10.379 -0.0047  0.0382 -0.0862
  315loPI    C3 5027   0.561  11.863  10.511  0.2077  0.0881  0.1427
  315loPI   PO4 5028   0.577  11.743   9.879  0.1219 -0.0252  0.0770
  315loPI   GL1 5029   0.845  11.739   9.433  0.2358  0.0743 -0.1603
  315loPI   GL2 5030   0.901  11.727   9.150 -0.1568  0.1629  0.0878
  315loPI   C1A 5031   0.487  11.929   9.108  0.2660 -0.0352  0.0580
  315loPI   C2A 5032   0.001  11.960   8.840 -0.0168  0.1426 -0.2092
  315loPI   C3A 5033  -0.177  12.103   8.453  0.2185 -0.1126 -0.3271
  315loPI   C4A 5034   0.014  12.249   8.038 -0.1873 -0.0167  0.0806
  315loPI   C5A 5035   0.143  12.541   7.770 -0.1399  0.1134 -0.0369
  315loPI   C6A 5036   0.356  12.732   7.449 -0.1671 -0.0793 -0.2404
  315loPI   C1B 5037   1.116  11.833   8.811  0.1559  0.0343  0.3243
  315loPI   C2B 5038   0.976  11.807   8.363 -0.1881 -0.3040 -0.1552
  315loPI   C3B 5039   1.073  11.455   8.135 -0.0861 -0.2203 -0.1542
  315loPI   C4B 5040   1.112  11.467   7.661  0.1983 -0.2193 -0.2394
  316loPI    C1 5041   1.093   2.583   9.852 -0.0222 -0.1258  0.0050
  316loPI    C2 5042   1.321   2.909   9.807  0.1338 -0.2553 -0.1590
  316loPI    C3 5043   1.296   2.730  10.164 -0.0468  0.0032 -0.0391
  316loPI   PO4 5044   1.139   2.465   9.598  0.2328  0.1387  0.0650
  316loPI   GL1 5045   1.336   2.504   9.324  0.0351  0.0392  0.1546
  316loPI   GL2 5046   1.692   2.695   9.354  0.0898  0.3987  0.1204
  316loPI   C1A 5047   1.119   2.689   8.904  0.0376 -0.1680  0.0945
  316loPI   C2A 5048   1.234   2.366   8.579  0.0110 -0.0961 -0.0344
  316loPI   C3A 5049   1.131   2.207   8.204  0.0731 -0.1776 -0.2068
  316loPI   C4A 5050   0.958   2.106   7.815  0.1274 -0.2633 -0.0133
  316loPI   C5A 5051   1.132   1.810   7.523 -0.0402 -0.0723 -0.0324
  316loPI   C6A 5052   1.507   1.664   7.460 -0.0981  0.0735 -0.0426
  316loPI   C1B 5053   1.643   2.838   8.936 -0.0074  0.0894 -0.0314
  316loPI   C2B 5054   1.417   2.943   8.648 -0.2119 -0.0173 -0.0433
  316loPI   C3B 5055   1.323   3.126   8.362 -0.2052  0.5536  0.0413
  316loPI   C4B 5056   0.991   3.155   8.005  0.0870  0.1210 -0.2316
  317loPI    C1 5057  16.094  10.184  10.339  0.2272  0.0828  0.0356
  317loPI    C2 5058  16.158  10.116  10.728  0.2338  0.1703  0.0500
  317loPI    C3 5059  15.824  10.302  10.610  0.0313 -0.2282 -0.0196
  317loPI   PO4 5060  16.111   9.938  10.134 -0.1322 -0.3880  0.0308
  317loPI   GL1 5061  16.230   9.811   9.730 -0.2593 -0.0844 -0.0087
  317loPI   GL2 5062  16.106   9.478   9.691 -0.0869  0.0155  0.2338
  317loPI   C1A 5063  16.355   9.844   9.199  0.1247 -0.2796  0.1613
  317loPI   C2A 5064  16.366  10.060   8.941 -0.4282 -0.0965 -0.0338
  317loPI   C3A 5065  16.194  10.163   8.509 -0.2135  0.0005  0.0362
  317loPI   C4A 5066  16.019   9.911   8.324  0.0552 -0.2183  0.3975
  317loPI   C5A 5067  15.874   9.678   7.862 -0.1712  0.3026  0.1274
  317loPI   C6A 5068  15.720   9.655   7.507 -0.1819 -0.2045 -0.1902
  317loPI   C1B 5069  15.915   9.606   9.348 -0.0228 -0.3010 -0.3196
  317loPI   C2B 5070  15.486   9.596   9.154  0.2549  0.1228 -0.2724
  317loPI   C3B 5071  15.307   9.596   8.689  0.3568  0.0234  0.3203
  317loPI   C4B 5072  15.155   9.758   8.354 -0.1975 -0.4091  0.3674
  318loPI    C1 5073   4.814  13.084   9.529 -0.0632 -0.3577  0.0767
  318loPI    C2 5074   4.437  12.965   9.589 -0.1475 -0.1097  0.0513
  318loPI    C3 5075   4.525  13.355   9.583  0.0656 -0.1590 -0.2067
  318loPI   PO4 5076   4.916  12.838   9.339 -0.0236 -0.0664  0.0080
  318loPI   GL1 5077   5.278  13.036   9.127  0.1060  0.0327 -0.0001
  318loPI   GL2 5078   5.083  13.267   9.077 -0.0148  0.0747 -0.5503
  318loPI   C1A 5079   5.361  12.795   8.793 -0.0947  0.1134  0.2185
  318loPI   C2A 5080   5.146  12.605   8.420  0.0388 -0.0420  0.1392
  318loPI   C3A 5081   4.881  12.409   8.114  0.2430  0.0249 -0.2199
  318loPI   C4A 5082   5.012  12.422   7.782  0.1689 -0.0955 -0.1967
  318loPI   C5A 5083   5.191  12.143   7.546 -0.1089 -0.2626  0.0199
  318loPI   C6A 5084   5.512  11.859   7.485 -0.1464 -0.1690  0.1270
  318loPI   C1B 5085   5.081  13.236   8.645 -0.2482  0.0758 -0.1106
  318loPI   C2B 5086   5.240  13.062   8.183 -0.2216 -0.1153 -0.0513
  318loPI   C3B 5087   5.131  13.049   7.851  0.1752 -0.1224 -0.0558
  318loPI   C4B 5088   5.213  13.307   7.574  0.0031  0.1742  0.0272
  319loPI    C1 5089  10.882  15.966   9.939 -0.0607  0.1012 -0.0354
  319loPI    C2 5090  10.685  15.709   9.703  0.1710 -0.1046 -0.0080
  319loPI    C3 5091  10.925  15.572   9.993  0.0549  0.1458  0.2113
  319loPI   PO4 5092  11.022  16.188   9.760 -0.0893  0.1119  0.2740
  319loPI   GL1 5093  11.245  16.281   9.402  0.0762  0.3962  0.1109
  319loPI   GL2 5094  11.232  16.599   9.369 -0.0198  0.3761  0.0288
  319loPI   C1A 5095  11.262  16.058   9.034 -0.0757  0.0482  0.0416
  319loPI   C2A 5096  11.204  15.814   8.727  0.2413  0.3606 -0.2669
  319loPI   C3A 5097  10.905  15.761   8.334 -0.3150 -0.1203 -0.0376
  319loPI   C4A 5098  10.776  15.822   7.937 -0.1428 -0.2848  0.0475
  319loPI   C5A 5099  10.394  15.768   7.889  0.2147 -0.1462  0.1243
  319loPI   C6A 5100  10.135  15.393   7.865  0.2486 -0.1486  0.2320
  319loPI   C1B 5101  11.388  17.029   9.223 -0.3593  0.1465  0.0595
  319loPI   C2B 5102  11.429  17.273   8.787 -0.3190 -0.3671  0.0093
  319loPI   C3B 5103  11.660  17.275   8.385  0.0115 -0.1569  0.0317
  319loPI   C4B 5104  11.874  16.956   8.123  0.2474 -0.5724  0.3070
  320loPI    C1 5105  13.856   7.466   9.779  0.0136  0.2314 -0.1256
  320loPI    C2 5106  14.007   7.353  10.132 -0.1601 -0.0047 -0.1244
  320loPI    C3 5107  14.250   7.485   9.843  0.0095 -0.0456 -0.0021
  320loPI   PO4 5108  13.587   7.272   9.784 -0.0457 -0.1917  0.0094
  320loPI   GL1 5109  13.351   7.099   9.466  0.1987  0.2596 -0.3395
  320loPI   GL2 5110  13.036   7.227   9.644 -0.0602  0.3624  0.3418
  320loPI   C1A 5111  13.378   6.932   8.954  0.0485  0.0418  0.2378
  320loPI   C2A 5112  13.318   6.785   8.614 -0.1815 -0.0934  0.1019
  320loPI   C3A 5113  13.424   6.599   8.219 -0.1472  0.0858  0.2383
  320loPI   C4A 5114  13.558   6.480   7.833 -0.4076  0.1550  0.0087
  320loPI   C5A 5115  13.808   6.613   7.477  0.1517  0.3604  0.1692
  320loPI   C6A 5116  13.864   6.855   7.124 -0.0472  0.0808 -0.1547
  320loPI   C1B 5117  12.987   7.119   9.178 -0.0672  0.2900  0.0443
  320loPI   C2B 5118  12.836   7.034   8.789  0.2566  0.3185 -0.2041
  320loPI   C3B 5119  12.900   6.893   8.376  0.4958  0.0366 -0.0215
  320loPI   C4B 5120  12.949   6.683   7.934 -0.0195 -0.0975  0.1789
  321loPI    C1 5121   6.523   0.932   9.737  0.2367 -0.1108  0.0318
  321loPI    C2 5122   6.334   0.685   9.988  0.1109 -0.0595 -0.0116
  321loPI    C3 5123   6.730   0.731  10.013  0.1408 -0.2952 -0.0289
  321loPI   PO4 5124   6.371   0.847   9.468  0.2375  0.3406  0.0456
  321loPI   GL1 5125   6.376   1.104   8.957  0.1549 -0.2975  0.0498
  321loPI   GL2 5126   6.693   0.937   9.093 -0.1733 -0.0162  0.1661
  321loPI   C1A 5127   6.469   1.147   8.460 -0.1095  0.2659  0.2398
  321loPI   C2A 5128   6.391   1.508   8.229  0.1227 -0.0491 -0.2257
  321loPI   C3A 5129   6.444   1.729   7.836 -0.0836  0.0404 -0.0731
  321loPI   C4A 5130   6.810   1.745   7.617  0.0235 -0.0591  0.4066
  321loPI   C5A 5131   6.974   2.011   7.317 -0.0484  0.1704 -0.1731
  321loPI   C6A 5132   6.942   1.873   6.927 -0.1661  0.1075 -0.0326
  321loPI   C1B 5133   6.911   0.971   8.691 -0.1248  0.2734 -0.0576
  321loPI   C2B 5134   7.109   1.003   8.281  0.2236  0.1901 -0.0015
  321loPI   C3B 5135   7.382   0.973   7.953  0.0813 -0.2129 -0.2230
  321loPI   C4B 5136   7.278   0.936   7.537 -0.0572 -0.0343 -0.3272
  322loPI    C1 5137   5.750   7.313  10.092 -0.0422  0.0775  0.0626
  322loPI    C2 5138   6.035   7.142  10.316 -0.0344  0.1066  0.0747
  322loPI    C3 5139   5.943   7.528  10.369  0.1038  0.1655 -0.1054
  322loPI   PO4 5140   5.782   7.316   9.901  0.0847  0.1235 -0.1279
  322loPI   GL1 5141   5.774   7.414   9.526  0.2207  0.1822  0.2523
  322loPI   GL2 5142   5.461   7.288   9.335 -0.1687 -0.1147 -0.1705
  322loPI   C1A 5143   5.888   7.140   9.197 -0.0171 -0.2019  0.2968
  322loPI   C2A 5144   6.172   7.134   8.882  0.1389 -0.0021 -0.0055
  322loPI   C3A 5145   6.438   7.188   8.568 -0.1112  0.1252 -0.3008
  322loPI   C4A 5146   6.386   7.185   8.011  0.1496  0.0629  0.2724
  322loPI   C5A 5147   6.268   7.275   7.610  0.0498 -0.4040  0.1795
  322loPI   C6A 5148   6.156   7.400   7.151  0.0067 -0.0784  0.0250
  322loPI   C1B 5149   5.572   7.280   8.868  0.1094  0.0644  0.0614
  322loPI   C2B 5150   5.468   7.100   8.494 -0.0912  0.0094  0.1645
  322loPI   C3B 5151   5.201   6.893   8.152 -0.0356 -0.0146 -0.2571
  322loPI   C4B 5152   4.847   6.732   7.796  0.3245  0.0040  0.1122
  323loPI    C1 5153   3.110  10.725  10.225 -0.0930 -0.0203  0.2328
  323loPI    C2 5154   3.420  10.516  10.366 -0.0527 -0.2296 -0.1507
  323loPI    C3 5155   3.047  10.400  10.449 -0.0300 -0.2267 -0.0432
  323loPI   PO4 5156   3.183  10.715  10.002  0.2975  0.0245  0.3337
  323loPI   GL1 5157   2.990  10.871   9.561  0.1397  0.4722  0.2271
  323loPI   GL2 5158   2.846  10.962   9.215  0.4555  0.2990  0.1498
  323loPI   C1A 5159   3.291  10.669   9.171 -0.3298  0.0071 -0.1583
  323loPI   C2A 5160   3.407  10.648   8.806  0.0585  0.2002 -0.0835
  323loPI   C3A 5161   3.540  10.316   8.464  0.0243  0.3579  0.3439
  323loPI   C4A 5162   3.600  10.091   8.008 -0.0525  0.1035 -0.4252
  323loPI   C5A 5163   3.467  10.043   7.662 -0.1015  0.0163  0.1288
  323loPI   C6A 5164   3.521   9.721   7.328  0.0561  0.5296 -0.0736
  323loPI   C1B 5165   2.895  11.039   8.755  0.1095 -0.0700 -0.1631
  323loPI   C2B 5166   2.895  11.212   8.380  0.0813 -0.1421 -0.1408
  323loPI   C3B 5167   2.828  11.391   8.035  0.2257  0.0225  0.1191
  323loPI   C4B 5168   2.782  11.555   7.606  0.3440 -0.0415  0.2933
  324loPI    C1 5169  19.016   1.749  10.185  0.1750 -0.2320  0.0159
  324loPI    C2 5170  18.956   1.479   9.896  0.2638  0.0141 -0.2368
  324loPI    C3 5171  19.308   1.495  10.085  0.1981 -0.1619 -0.0969
  324loPI   PO4 5172  18.875   2.000  10.016 -0.0401 -0.0289 -0.1546
  324loPI   GL1 5173  18.682   2.242   9.652  0.0916 -0.1002  0.3032
  324loPI   GL2 5174  18.640   1.943   9.560 -0.1972  0.0399  0.1899
  324loPI   C1A 5175  18.643   2.493   9.296 -0.0361  0.3055 -0.1065
  324loPI   C2A 5176  18.358   2.421   8.869  0.0397  0.0555  0.0609
  324loPI   C3A 5177  18.569   2.624   8.443  0.0581 -0.1117 -0.2571
  324loPI   C4A 5178  18.941   2.702   8.248 -0.1084  0.0249 -0.0277
  324loPI   C5A 5179  19.186   2.832   7.950 -0.0656  0.0815  0.3515
  324loPI   C6A 5180  19.549   3.026   7.812 -0.2346 -0.3057 -0.1638
  324loPI   C1B 5181  18.567   1.879   9.139 -0.0780  0.0387  0.4400
  324loPI   C2B 5182  18.406   1.843   8.631 -0.1842  0.1062  0.1420
  324loPI   C3B 5183  18.375   2.174   8.329  0.2454  0.0336 -0.1493
  324loPI   C4B 5184  18.195   2.311   7.914 -0.0058  0.2755  0.0978
  325loPI    C1 5185  11.918   1.343  10.295 -0.5762  0.0801  0.3711
  325loPI    C2 5186  11.960   1.741  10.276 -0.1808  0.0264 -0.0879
  325loPI    C3 5187  12.248   1.516  10.440 -0.2698 -0.0930 -0.0938
  325loPI   PO4 5188  11.820   1.274  10.099 -0.0700 -0.0065 -0.0422
  325loPI   GL1 5189  11.796   1.270   9.709 -0.1940 -0.0107 -0.0122
  325loPI   GL2 5190  11.872   1.626   9.693 -0.0935 -0.0052 -0.2057
  325loPI   C1A 5191  11.833   0.967   9.384 -0.0990  0.2777  0.2230
  325loPI   C2A 5192  12.092   0.857   9.066 -0.2516 -0.1155  0.0870
  325loPI   C3A 5193  12.171   0.765   8.630  0.1122  0.0404 -0.0043
  325loPI   C4A 5194  12.176   0.649   8.131  0.1278  0.0168 -0.0130
  325loPI   C5A 5195  12.547   0.764   7.783 -0.0697  0.0260  0.0077
  325loPI   C6A 5196  12.794   1.046   7.757  0.0005 -0.2214 -0.0348
  325loPI   C1B 5197  11.725   1.659   9.300 -0.1527 -0.0175 -0.1991
  325loPI   C2B 5198  11.317   1.671   8.979 -0.0348 -0.0402 -0.0355
  325loPI   C3B 5199  10.960   1.652   8.756 -0.1213  0.2330 -0.4371
  325loPI   C4B 5200  10.841   1.579   8.426 -0.1146 -0.1419  0.0538
  326loPI    C1 5201   6.382  18.072   9.120 -0.0150  0.4302 -0.0589
  326loPI    C2 5202   6.172  18.181   9.443 -0.2442  0.0693 -0.0801
  326loPI    C3 5203   6.000  18.186   9.082 -0.1090  0.0978 -0.1447
  326loPI   PO4 5204   6.590  18.290   9.120  0.2841 -0.0603 -0.1007
  326loPI   GL1 5205   6.369  18.585   8.836  0.0835  0.0382 -0.0541
  326loPI   GL2 5206   6.502  18.339   8.642 -0.0790 -0.3269 -0.4486
  326loPI   C1A 5207   6.298  18.777   8.460 -0.0793  0.0292  0.0587
  326loPI   C2A 5208   6.045  18.900   8.197 -0.2472 -0.1535  0.0408
  326loPI   C3A 5209   5.999  18.783   7.760 -0.3564  0.0548 -0.0943
  326loPI   C4A 5210   6.080  18.555   7.331  0.1658  0.1214 -0.0557
  326loPI   C5A 5211   6.328  18.785   6.973 -0.2265  0.2228  0.2983
  326loPI   C6A 5212   6.678  19.146   6.876 -0.1725 -0.2950  0.0685
  326loPI   C1B 5213   6.645  18.128   8.398  0.0325 -0.1374  0.2967
  326loPI   C2B 5214   6.697  18.202   8.019 -0.3866  0.0948  0.1162
  326loPI   C3B 5215   6.852  18.037   7.647  0.3740 -0.0532 -0.2209
  326loPI   C4B 5216   7.099  18.152   7.190 -0.0276 -0.1590  0.1891
  327loPI    C1 5217   7.586   8.630   9.548  0.1667 -0.2006  0.0585
  327loPI    C2 5218   7.609   8.922   9.820  0.1073 -0.1266 -0.0154
  327loPI    C3 5219   7.504   8.553   9.932 -0.0663 -0.0619  0.0384
  327loPI   PO4 5220   7.456   8.807   9.301  0.2678 -0.0477  0.3116
  327loPI   GL1 5221   7.421   8.547   9.007  0.0490  0.2612 -0.2305
  327loPI   GL2 5222   7.541   8.273   9.211  0.2276 -0.4161  0.1608
  327loPI   C1A 5223   7.312   8.194   8.708 -0.0182 -0.2713  0.0339
  327loPI   C2A 5224   7.225   8.176   8.235 -0.3344  0.1596  0.1223
  327loPI   C3A 5225   7.053   8.242   7.874  0.0124 -0.3883  0.1933
  327loPI   C4A 5226   7.193   8.566   7.561 -0.0854  0.0864 -0.5822
  327loPI   C5A 5227   7.052   9.029   7.495 -0.1939 -0.2299  0.2007
  327loPI   C6A 5228   6.870   9.412   7.312  0.0932 -0.2188  0.0733
  327loPI   C1B 5229   7.838   8.076   8.801 -0.1672  0.3671  0.0207
  327loPI   C2B 5230   7.972   7.975   8.465  0.2221 -0.0072  0.0559
  327loPI   C3B 5231   7.810   7.879   8.109  0.0526  0.1977 -0.0208
  327loPI   C4B 5232   8.032   7.806   7.780  0.0492 -0.0594  0.0112
  328loPI    C1 5233  18.608   3.681  10.316  0.0667  0.2341  0.1477
  328loPI    C2 5234  18.953   3.482  10.276 -0.0935  0.0170 -0.2088
  328loPI    C3 5235  18.678   3.355  10.537 -0.0019  0.0524 -0.0943
  328loPI   PO4 5236  18.471   3.724  10.099 -0.3156 -0.2178 -0.1059
  328loPI   GL1 5237  18.516   3.890   9.746 -0.0374 -0.0676 -0.0945
  328loPI   GL2 5238  18.822   3.613   9.802 -0.0391 -0.0092 -0.0006
  328loPI   C1A 5239  18.613   4.179   9.432 -0.2201  0.0554  0.0922
  328loPI   C2A 5240  18.895   4.411   9.195  0.4858 -0.1120 -0.0960
  328loPI   C3A 5241  19.226   4.451   9.194 -0.1027 -0.0501  0.0907
  328loPI   C4A 5242  19.466   4.505   8.884  0.0342 -0.2519  0.0675
  328loPI   C5A 5243  19.563   4.340   8.561 -0.1418 -0.0275  0.0395
  328loPI   C6A 5244  19.825   4.078   8.404  0.2466 -0.1345 -0.0791
  328loPI   C1B 5245  19.064   3.993   9.539  0.0920  0.2741 -0.0539
  328loPI   C2B 5246  18.847   3.900   9.071 -0.2335 -0.1718  0.3258
  328loPI   C3B 5247  18.741   3.890   8.591  0.0722  0.2020 -0.2176
  328loPI   C4B 5248  18.726   4.258   8.258 -0.0372  0.0033  0.1897
  329loPI    C1 5249   3.554   2.680   9.721 -0.0914 -0.1929 -0.1006
  329loPI    C2 5250   3.826   2.897   9.919 -0.1185 -0.1773 -0.0802
  329loPI    C3 5251   3.475   2.812  10.090  0.0119 -0.5007  0.0347
  329loPI   PO4 5252   3.644   2.727   9.482  0.1846 -0.2932  0.2073
  329loPI   GL1 5253   3.456   2.883   9.152  0.4448 -0.0677  0.2059
  329loPI   GL2 5254   3.383   3.126   8.860 -0.1235  0.3261 -0.1985
  329loPI   C1A 5255   3.505   2.613   8.931  0.0379 -0.1568  0.4076
  329loPI   C2A 5256   3.344   2.517   8.568  0.1406  0.1546 -0.2202
  329loPI   C3A 5257   3.262   2.634   8.128 -0.4211  0.0028 -0.0710
  329loPI   C4A 5258   3.295   2.978   7.891 -0.0626 -0.1025 -0.0850
  329loPI   C5A 5259   3.209   3.494   7.701 -0.1908 -0.3187  0.1992
  329loPI   C6A 5260   3.234   3.919   7.591  0.5066 -0.1351  0.0537
  329loPI   C1B 5261   3.531   2.983   8.433 -0.0647  0.1105 -0.1322
  329loPI   C2B 5262   3.746   2.885   8.123 -0.0421  0.0798  0.1112
  329loPI   C3B 5263   3.844   3.161   7.815  0.1840 -0.0438 -0.2939
  329loPI   C4B 5264   3.779   3.572   7.610  0.1743 -0.2470 -0.0325
  330loPI    C1 5265   4.421   8.285   9.959 -0.0923 -0.1620 -0.1435
  330loPI    C2 5266   4.780   8.111   9.985 -0.0871 -0.1109  0.1496
  330loPI    C3 5267   4.645   8.338  10.286 -0.1001  0.3833 -0.2171
  330loPI   PO4 5268   4.392   8.447   9.649  0.1339  0.0228 -0.1810
  330loPI   GL1 5269   4.255   8.297   9.282 -0.0419 -0.1534  0.0783
  330loPI   GL2 5270   4.386   8.017   9.228 -0.1116 -0.2623 -0.3594
  330loPI   C1A 5271   4.364   8.644   8.866 -0.4779 -0.1505  0.1207
  330loPI   C2A 5272   4.205   8.991   8.702 -0.1896 -0.2040 -0.1753
  330loPI   C3A 5273   3.936   9.121   8.339  0.1844 -0.1739  0.1226
  330loPI   C4A 5274   3.656   9.326   8.235 -0.0315 -0.0753  0.2871
  330loPI   C5A 5275   3.418   9.584   7.874  0.0379 -0.2710 -0.0276
  330loPI   C6A 5276   3.059   9.686   7.511  0.2000  0.0595  0.1973
  330loPI   C1B 5277   4.425   8.119   8.868  0.0496  0.0676 -0.4381
  330loPI   C2B 5278   4.457   8.113   8.441 -0.1177  0.0739  0.1264
  330loPI   C3B 5279   4.454   7.975   8.024 -0.1458  0.1943 -0.0450
  330loPI   C4B 5280   4.499   7.827   7.614  0.2015  0.2887 -0.2663
  331loPI    C1 5281   7.350  10.394   9.047  0.2309 -0.5149  0.0433
  331loPI    C2 5282   7.361  10.353   9.445  0.3269 -0.2019  0.0764
  331loPI    C3 5283   7.140  10.103   9.224 -0.1784 -0.0351  0.3764
  331loPI   PO4 5284   7.315  10.628   9.039  0.0314  0.0397  0.2028
  331loPI   GL1 5285   7.118  10.963   8.891  0.0899 -0.0750 -0.2165
  331loPI   GL2 5286   7.392  10.963   8.712 -0.1495  0.0397  0.2870
  331loPI   C1A 5287   6.923  11.110   8.456 -0.5369 -0.0112 -0.2248
  331loPI   C2A 5288   6.644  11.330   8.441  0.1694 -0.2674 -0.1621
  331loPI   C3A 5289   6.268  11.643   8.204  0.2674  0.1055  0.0021
  331loPI   C4A 5290   5.905  11.724   7.904  0.0918  0.0999 -0.2682
  331loPI   C5A 5291   5.482  11.620   7.940 -0.0367  0.3550 -0.0988
  331loPI   C6A 5292   5.172  11.813   7.907  0.0109 -0.1154 -0.0528
  331loPI   C1B 5293   7.449  10.965   8.347  0.0561  0.0083 -0.0189
  331loPI   C2B 5294   7.572  10.670   7.950  0.0837  0.1263  0.0845
  331loPI   C3B 5295   7.348  10.549   7.546 -0.4639  0.1692 -0.1659
  331loPI   C4B 5296   7.381  10.680   7.147  0.4401 -0.1422 -0.1497
  332loPI    C1 5297   2.952   1.585  10.044  0.1649  0.1721  0.0594
  332loPI    C2 5298   2.586   1.557  10.204  0.0938  0.0852 -0.1166
  332loPI    C3 5299   2.902   1.623  10.440 -0.0198  0.0384  0.0504
  332loPI   PO4 5300   2.969   1.439   9.750  0.1824  0.1218 -0.1262
  332loPI   GL1 5301   2.767   1.337   9.365 -0.1544  0.0205  0.1840
  332loPI   GL2 5302   2.835   1.617   9.317  0.4212  0.0895 -0.4893
  332loPI   C1A 5303   2.751   1.211   9.011  0.0844 -0.3432  0.3027
  332loPI   C2A 5304   2.797   1.229   8.553 -0.0666 -0.1548  0.0750
  332loPI   C3A 5305   2.783   1.260   8.164  0.3831  0.1524  0.0116
  332loPI   C4A 5306   2.933   1.382   7.785  0.1842  0.1367  0.0532
  332loPI   C5A 5307   2.577   1.354   7.447  0.0445  0.1914  0.1370
  332loPI   C6A 5308   2.187   1.244   7.503 -0.0039  0.0103 -0.0168
  332loPI   C1B 5309   2.701   1.784   8.979  0.0663 -0.0099 -0.1228
  332loPI   C2B 5310   2.637   1.750   8.570  0.2529 -0.1310  0.0381
  332loPI   C3B 5311   2.710   1.790   8.065  0.1928  0.1157 -0.1305
  332loPI   C4B 5312   2.933   1.826   7.679  0.1129 -0.2889 -0.1169
  333loPI    C1 5313  15.650   1.403  10.393  0.0429  0.0959  0.0833
  333loPI    C2 5314  15.702   1.305  10.778 -0.0057  0.3076  0.1453
  333loPI    C3 5315  15.678   1.690  10.671 -0.0686  0.2479 -0.0603
  333loPI   PO4 5316  15.403   1.240  10.266 -0.0402 -0.0624 -0.0431
  333loPI   GL1 5317  15.567   0.954   9.996  0.0695 -0.0228 -0.2036
  333loPI   GL2 5318  15.749   1.189   9.907 -0.2795 -0.1600 -0.1359
  333loPI   C1A 5319  15.348   0.798   9.607  0.1573  0.1829  0.1593
  333loPI   C2A 5320  15.357   0.762   9.173 -0.1595  0.1382  0.1057
  333loPI   C3A 5321  15.127   0.706   8.761  0.0194  0.0690  0.0375
  333loPI   C4A 5322  14.946   0.303   8.455 -0.1788 -0.0081 -0.2303
  333loPI   C5A 5323  14.977   0.190   7.962  0.4338 -0.0821  0.3341
  333loPI   C6A 5324  15.046   0.256   7.527 -0.0261  0.2324  0.0226
  333loPI   C1B 5325  16.004   1.054   9.526  0.1278 -0.4165 -0.3039
  333loPI   C2B 5326  16.292   0.662   9.307  0.2132  0.2179  0.1650
  333loPI   C3B 5327  16.646   0.422   9.187 -0.3893  0.1380  0.1413
  333loPI   C4B 5328  16.954   0.181   9.131  0.2982  0.0645 -0.1886
  334loPI    C1 5329   8.124   1.444   9.823 -0.0539 -0.1797 -0.0309
  334loPI    C2 5330   8.269   1.749  10.038 -0.3959  0.1119 -0.2031
  334loPI    C3 5331   8.035   1.475  10.212 -0.0884 -0.0573 -0.0480
  334loPI   PO4 5332   8.247   1.534   9.612  0.0647  0.0320 -0.0063
  334loPI   GL1 5333   8.108   1.868   9.344  0.2191 -0.2457 -0.0835
  334loPI   GL2 5334   7.670   1.948   9.232  0.1239  0.0642 -0.4437
  334loPI   C1A 5335   8.200   1.923   8.908  0.1765  0.1905  0.2202
  334loPI   C2A 5336   8.318   2.010   8.521  0.1130 -0.0711  0.2247
  334loPI   C3A 5337   8.521   1.837   8.150  0.1943 -0.2267  0.0565
  334loPI   C4A 5338   9.010   1.743   8.038  0.0195 -0.1633  0.3339
  334loPI   C5A 5339   9.308   1.836   7.814  0.3689  0.2622 -0.0547
  334loPI   C6A 5340   9.634   1.873   7.367 -0.0041  0.1922  0.0853
  334loPI   C1B 5341   7.686   2.112   8.748 -0.1699  0.3877 -0.1333
  334loPI   C2B 5342   7.769   2.170   8.324  0.0658 -0.0701 -0.0023
  334loPI   C3B 5343   8.026   1.998   8.012  0.0838 -0.0510  0.1744
  334loPI   C4B 5344   8.386   1.889   7.683 -0.0003  0.1079 -0.3537
  335loPI    C1 5345  17.839  11.548  10.374 -0.1339  0.0759  0.0700
  335loPI    C2 5346  17.697  11.458  10.737 -0.1588 -0.1193  0.0132
  335loPI    C3 5347  17.766  11.167  10.472  0.1357 -0.0056 -0.0386
  335loPI   PO4 5348  17.689  11.769  10.246 -0.0907 -0.1412  0.0706
  335loPI   GL1 5349  17.261  11.757  10.023  0.2010  0.1181  0.1987
  335loPI   GL2 5350  17.119  12.109   9.987  0.1773  0.2490 -0.0007
  335loPI   C1A 5351  17.379  11.826   9.593  0.2145  0.3688  0.0528
  335loPI   C2A 5352  17.281  11.964   9.264 -0.0162  0.0904  0.1279
  335loPI   C3A 5353  17.082  12.164   8.921  0.1504  0.4139  0.0943
  335loPI   C4A 5354  16.894  12.224   8.582 -0.2694 -0.3818  0.3370
  335loPI   C5A 5355  17.027  12.229   8.184  0.0924  0.3134 -0.1258
  335loPI   C6A 5356  17.021  11.785   7.964 -0.0840  0.0477  0.2066
  335loPI   C1B 5357  17.055  12.204   9.673  0.0877  0.3657  0.1321
  335loPI   C2B 5358  17.106  12.472   9.375 -0.1776  0.0806  0.0747
  335loPI   C3B 5359  17.451  12.486   9.159 -0.2208  0.2880  0.0896
  335loPI   C4B 5360  17.637  12.731   8.762  0.1673  0.0525  0.2253
  336loPI    C1 5361   5.178  13.383   9.597 -0.0521 -0.3972 -0.3566
  336loPI    C2 5362   5.286  13.529   9.954  0.3415 -0.0961 -0.5906
  336loPI    C3 5363   5.084  13.185   9.932 -0.0203  0.0693 -0.0616
  336loPI   PO4 5364   5.035  13.588   9.469  0.0956 -0.3466 -0.3485
  336loPI   GL1 5365   4.834  13.720   9.244 -0.1126 -0.1462  0.2199
  336loPI   GL2 5366   4.535  13.816   9.266 -0.1900  0.3269  0.0053
  336loPI   C1A 5367   4.861  13.709   8.806  0.1528  0.1218  0.3373
  336loPI   C2A 5368   4.975  13.878   8.400 -0.2434  0.1966  0.1088
  336loPI   C3A 5369   5.056  13.895   7.938  0.0421  0.0791 -0.1821
  336loPI   C4A 5370   4.930  13.824   7.543 -0.2919 -0.0510 -0.0275
  336loPI   C5A 5371   4.610  13.768   7.321  0.0654  0.2579  0.1662
  336loPI   C6A 5372   4.232  13.979   7.236  0.1032  0.3144  0.1927
  336loPI   C1B 5373   4.369  13.623   8.980 -0.0394  0.1104 -0.1039
  336loPI   C2B 5374   4.483  13.732   8.466 -0.1941  0.2324  0.0151
  336loPI   C3B 5375   4.460  13.760   8.049 -0.0492 -0.0135  0.0495
  336loPI   C4B 5376   4.330  13.758   7.732 -0.3601  0.0492  0.3591
  337loPI    C1 5377   8.942   4.468   9.714  0.2061  0.0966 -0.0218
  337loPI    C2 5378   9.263   4.423   9.949  0.1466  0.1509  0.0705
  337loPI    C3 5379   8.933   4.209  10.018  0.0619  0.3074  0.1566
  337loPI   PO4 5380   9.011   4.418   9.481 -0.0548  0.2595 -0.1073
  337loPI   GL1 5381   8.843   4.241   9.090 -0.0710  0.0332 -0.0311
  337loPI   GL2 5382   8.719   4.482   9.101  0.0218 -0.2313  0.1124
  337loPI   C1A 5383   8.997   4.324   8.709 -0.1812 -0.1232  0.3100
  337loPI   C2A 5384   8.954   4.267   8.286 -0.1521 -0.1441 -0.1065
  337loPI   C3A 5385   8.939   4.134   7.875 -0.1613  0.2891  0.0371
  337loPI   C4A 5386   9.017   4.498   7.620  0.0199 -0.0623  0.0498
  337loPI   C5A 5387   8.891   4.874   7.407  0.0949  0.2249  0.1497
  337loPI   C6A 5388   8.915   5.303   7.394 -0.0320  0.0579 -0.0487
  337loPI   C1B 5389   8.667   4.707   8.809  0.2229  0.1882 -0.2129
  337loPI   C2B 5390   8.700   4.791   8.441 -0.0502 -0.2985 -0.1934
  337loPI   C3B 5391   8.534   4.939   8.113  0.3452 -0.0784  0.2049
  337loPI   C4B 5392   8.605   5.044   7.750 -0.0719 -0.0457  0.1418
  338loPI    C1 5393  10.900   4.702   9.888  0.0901  0.0770  0.0777
  338loPI    C2 5394  11.010   4.373  10.088  0.0188 -0.0915 -0.1546
  338loPI    C3 5395  10.813   4.666  10.277  0.0544 -0.1952  0.0469
  338loPI   PO4 5396  10.899   4.577   9.622  0.1057 -0.0069 -0.2978
  338loPI   GL1 5397  11.212   4.552   9.236  0.0846 -0.2129  0.0374
  338loPI   GL2 5398  11.285   4.818   9.375 -0.0316  0.0814 -0.0804
  338loPI   C1A 5399  11.297   4.533   8.891 -0.1004 -0.2871  0.0281
  338loPI   C2A 5400  11.166   4.442   8.495  0.1918  0.2810 -0.0577
  338loPI   C3A 5401  11.259   4.464   8.109  0.3116 -0.2473  0.2735
  338loPI   C4A 5402  11.108   4.566   7.662 -0.0322 -0.1632  0.0926
  338loPI   C5A 5403  11.087   4.773   7.306  0.0762 -0.0546  0.2277
  338loPI   C6A 5404  10.934   4.915   6.907  0.1282 -0.1309 -0.0042
  338loPI   C1B 5405  11.149   5.075   9.023 -0.0280 -0.0919 -0.1303
  338loPI   C2B 5406  11.222   4.956   8.551  0.2206  0.1879 -0.0688
  338loPI   C3B 5407  11.266   5.100   8.147  0.0076  0.1652  0.1051
  338loPI   C4B 5408  11.313   5.048   7.703  0.0849 -0.0008  0.0219
  339loPI    C1 5409   7.084  11.329   9.467  0.1661  0.1110  0.1718
  339loPI    C2 5410   6.837  11.208   9.758 -0.2067  0.1980 -0.1017
  339loPI    C3 5411   7.069  11.529   9.814  0.1124 -0.0903  0.2875
  339loPI   PO4 5412   7.025  11.318   9.255  0.3078  0.0946  0.0247
  339loPI   GL1 5413   7.103  11.433   8.725 -0.0769 -0.1612 -0.0793
  339loPI   GL2 5414   6.906  11.642   8.896 -0.0610 -0.0383  0.0270
  339loPI   C1A 5415   7.103  11.501   8.242 -0.4120 -0.3363 -0.2254
  339loPI   C2A 5416   7.062  11.536   7.834  0.2726 -0.1667  0.1437
  339loPI   C3A 5417   7.010  11.438   7.442 -0.2687 -0.3203  0.1205
  339loPI   C4A 5418   7.052  11.151   7.051  0.1538  0.0954  0.1384
  339loPI   C5A 5419   7.397  11.100   6.806 -0.0217  0.0772 -0.0838
  339loPI   C6A 5420   7.733  10.977   6.574 -0.3867  0.0525  0.1118
  339loPI   C1B 5421   6.823  11.823   8.493 -0.0521 -0.2552 -0.2948
  339loPI   C2B 5422   6.706  11.823   8.071  0.0044 -0.1760  0.0310
  339loPI   C3B 5423   6.765  11.873   7.653  0.0391  0.1768 -0.2169
  339loPI   C4B 5424   6.642  11.675   7.159 -0.1918 -0.0705  0.2996
  340loPI    C1 5425   4.623  11.224   9.636 -0.0336 -0.2435  0.1543
  340loPI    C2 5426   4.995  11.122   9.741  0.0379 -0.0895  0.0550
  340loPI    C3 5427   4.802  11.408   9.942  0.0955  0.0573 -0.0966
  340loPI   PO4 5428   4.688  11.222   9.326  0.2083  0.0817 -0.0328
  340loPI   GL1 5429   4.585  11.410   8.967 -0.0251 -0.0763  0.2296
  340loPI   GL2 5430   4.323  11.491   8.999  0.0249 -0.3435  0.1978
  340loPI   C1A 5431   4.421  11.272   8.569 -0.0899 -0.0118 -0.1701
  340loPI   C2A 5432   4.347  11.326   8.183 -0.0885  0.2874 -0.3570
  340loPI   C3A 5433   4.149  11.117   8.039  0.1121  0.3228 -0.1867
  340loPI   C4A 5434   3.731  11.020   7.843  0.2318 -0.0217  0.1240
  340loPI   C5A 5435   3.338  10.895   7.708  0.3000 -0.0698  0.0968
  340loPI   C6A 5436   3.156  10.569   7.509 -0.2063 -0.3035 -0.1694
  340loPI   C1B 5437   4.205  11.749   8.753 -0.1859  0.1292 -0.3732
  340loPI   C2B 5438   4.313  11.887   8.336  0.0641 -0.1534  0.0405
  340loPI   C3B 5439   4.268  11.770   7.955 -0.0315 -0.1175  0.3283
  340loPI   C4B 5440   4.290  11.486   7.672 -0.2949 -0.0554  0.0125
  341loPI    C1 5441  16.048  14.137  10.134  0.3863 -0.2523  0.0512
  341loPI    C2 5442  15.992  14.227  10.520 -0.0113 -0.2544 -0.0024
  341loPI    C3 5443  16.084  13.853  10.414  0.0605 -0.2622  0.0866
  341loPI   PO4 5444  15.894  14.319   9.943  0.2547  0.1290 -0.2488
  341loPI   GL1 5445  16.071  14.600   9.615  0.1050  0.1683 -0.0753
  341loPI   GL2 5446  15.814  14.699   9.623  0.2152  0.0892  0.0067
  341loPI   C1A 5447  16.462  14.663   9.365  0.1800  0.2177  0.0059
  341loPI   C2A 5448  16.652  14.967   9.036 -0.1904 -0.0789 -0.1459
  341loPI   C3A 5449  16.878  15.026   8.728 -0.3993 -0.1391 -0.1213
  341loPI   C4A 5450  16.828  15.057   8.311 -0.0307 -0.2323  0.2650
  341loPI   C5A 5451  16.627  15.037   7.905  0.0410  0.3412  0.0279
  341loPI   C6A 5452  16.441  15.252   7.536 -0.1657  0.2624  0.3983
  341loPI   C1B 5453  15.626  14.731   9.197  0.4015  0.2813  0.0768
  341loPI   C2B 5454  15.443  14.823   8.863 -0.3505  0.0833  0.0522
  341loPI   C3B 5455  15.396  15.062   8.419 -0.1817 -0.0658  0.1457
  341loPI   C4B 5456  15.323  15.340   8.092  0.2282 -0.0850  0.1034
  342loPI    C1 5457   7.469  13.848   9.822 -0.0937 -0.1871  0.1357
  342loPI    C2 5458   7.656  14.055  10.109 -0.0354 -0.0390 -0.0075
  342loPI    C3 5459   7.406  13.758  10.207  0.0242 -0.0240  0.1942
  342loPI   PO4 5460   7.468  14.026   9.574  0.2770 -0.0838  0.1401
  342loPI   GL1 5461   7.538  14.244   9.088  0.0909 -0.0176 -0.0512
  342loPI   GL2 5462   7.803  14.196   9.000 -0.0777  0.0516 -0.2573
  342loPI   C1A 5463   7.440  14.207   8.684  0.2076  0.0389 -0.0655
  342loPI   C2A 5464   7.469  14.308   8.252 -0.1503  0.1075 -0.2438
  342loPI   C3A 5465   7.578  14.401   7.808 -0.2662 -0.0895 -0.0617
  342loPI   C4A 5466   7.819  14.439   7.457  0.1271 -0.0030  0.0418
  342loPI   C5A 5467   7.924  14.475   7.031  0.1259 -0.0797  0.1157
  342loPI   C6A 5468   8.109  14.421   6.642  0.3629  0.3366 -0.1023
  342loPI   C1B 5469   7.854  13.860   8.671 -0.0563 -0.0786 -0.0357
  342loPI   C2B 5470   7.708  13.819   8.323 -0.2759  0.1280 -0.0399
  342loPI   C3B 5471   7.545  13.931   7.905  0.1114 -0.1022  0.0177
  342loPI   C4B 5472   7.872  13.884   7.466  0.0308 -0.1318 -0.0704
  343loPI    C1 5473  16.176  16.240  10.673  0.2033 -0.0258 -0.0650
  343loPI    C2 5474  15.997  16.580  10.784 -0.0056 -0.1193 -0.1107
  343loPI    C3 5475  16.024  16.274  11.041 -0.3399 -0.2760 -0.2561
  343loPI   PO4 5476  16.371  16.316  10.354  0.3765  0.2443  0.0454
  343loPI   GL1 5477  16.235  16.315   9.873 -0.0558 -0.0703 -0.2587
  343loPI   GL2 5478  16.226  16.203   9.603  0.0277 -0.0306 -0.0844
  343loPI   C1A 5479  16.101  16.735   9.781 -0.0400  0.0936  0.0957
  343loPI   C2A 5480  15.948  17.096   9.472  0.1033  0.4162  0.2125
  343loPI   C3A 5481  15.836  17.209   9.043 -0.0845 -0.1277  0.2032
  343loPI   C4A 5482  15.726  17.104   8.629  0.0728  0.3373 -0.2082
  343loPI   C5A 5483  15.883  17.021   8.163 -0.0179  0.0631  0.0974
  343loPI   C6A 5484  15.959  16.929   7.723  0.0833  0.1986  0.0091
  343loPI   C1B 5485  16.074  16.594   9.293  0.2945  0.0185 -0.1693
  343loPI   C2B 5486  16.140  16.806   8.981 -0.1635 -0.2378 -0.2170
  343loPI   C3B 5487  16.245  16.723   8.463  0.0713 -0.0093  0.0156
  343loPI   C4B 5488  16.165  16.552   8.059 -0.2132 -0.0735  0.0325
  344loPI    C1 5489   2.493  11.240   9.782  0.0100 -0.0453 -0.1187
  344loPI    C2 5490   2.793  11.064   9.979  0.0173  0.0769 -0.0196
  344loPI    C3 5491   2.753  11.462   9.990 -0.0337  0.0773 -0.1939
  344loPI   PO4 5492   2.485  11.162   9.474  0.0862  0.1694 -0.1605
  344loPI   GL1 5493   2.347  11.269   9.105 -0.0086  0.5526  0.2214
  344loPI   GL2 5494   2.624  11.431   9.085  0.0295 -0.1189  0.0603
  344loPI   C1A 5495   2.092  11.198   8.795  0.1840 -0.1191  0.0462
  344loPI   C2A 5496   1.928  10.998   8.424 -0.1727 -0.1838  0.1959
  344loPI   C3A 5497   1.714  10.898   8.019 -0.3481 -0.2571 -0.2913
  344loPI   C4A 5498   1.505  10.577   7.733  0.0070 -0.0079 -0.2376
  344loPI   C5A 5499   1.384  10.207   7.576  0.0448 -0.0813 -0.0056
  344loPI   C6A 5500   0.984   9.913   7.529 -0.0081  0.0782 -0.1966
  344loPI   C1B 5501   2.518  11.413   8.691 -0.2425  0.2582  0.2805
  344loPI   C2B 5502   2.346  11.339   8.363 -0.1697  0.0556  0.1279
  344loPI   C3B 5503   2.066  11.319   8.057  0.1018  0.2036  0.2252
  344loPI   C4B 5504   1.848  11.656   7.709  0.1037 -0.0875  0.3832
  345loPI    C1 5505  17.775   2.161  10.439  0.2732  0.3446  0.0948
  345loPI    C2 5506  18.099   1.946  10.343  0.1166  0.2134 -0.1490
  345loPI    C3 5507  17.932   1.904  10.704  0.1108 -0.0480 -0.1799
  345loPI   PO4 5508  17.624   2.119  10.154  0.0260 -0.2351  0.4553
  345loPI   GL1 5509  17.530   2.393   9.807 -0.1703  0.0759 -0.1773
  345loPI   GL2 5510  17.413   2.666   9.789 -0.2794  0.0225  0.7964
  345loPI   C1A 5511  17.468   2.325   9.418  0.2109 -0.2241 -0.1552
  345loPI   C2A 5512  17.694   2.282   8.981  0.2738  0.0555  0.0065
  345loPI   C3A 5513  17.947   2.284   8.620  0.2366 -0.1929 -0.0032
  345loPI   C4A 5514  18.093   2.637   8.302  0.0197 -0.2333  0.0216
  345loPI   C5A 5515  18.399   2.917   8.031  0.2990 -0.0933  0.0522
  345loPI   C6A 5516  18.724   3.028   7.944 -0.3576  0.0522  0.1621
  345loPI   C1B 5517  17.467   2.877   9.478  0.1582 -0.0317  0.0856
  345loPI   C2B 5518  17.705   2.758   9.158  0.0349 -0.1661 -0.0304
  345loPI   C3B 5519  17.567   2.801   8.685  0.2529  0.2358  0.1706
  345loPI   C4B 5520  17.568   2.696   8.232  0.2197 -0.3380 -0.2772
  346loPI    C1 5521   3.567  12.057   9.848  0.0513 -0.0253 -0.0593
  346loPI    C2 5522   3.614  11.977  10.237 -0.0809  0.1171 -0.0130
  346loPI    C3 5523   3.896  12.179  10.039  0.1754 -0.3026 -0.0902
  346loPI   PO4 5524   3.381  12.126   9.823 -0.1967 -0.0446 -0.1184
  346loPI   GL1 5525   3.086  12.286   9.458 -0.4360 -0.0239 -0.3660
  346loPI   GL2 5526   2.734  12.450   9.327 -0.2592  0.1030  0.1810
  346loPI   C1A 5527   3.302  12.530   9.236  0.3154 -0.1040  0.0010
  346loPI   C2A 5528   3.153  12.778   8.977  0.4021  0.0226 -0.0025
  346loPI   C3A 5529   3.187  12.921   8.549  0.0646 -0.2780 -0.4570
  346loPI   C4A 5530   3.234  12.840   8.160  0.0227 -0.0874  0.1356
  346loPI   C5A 5531   3.335  12.868   7.704 -0.1688 -0.1612 -0.0253
  346loPI   C6A 5532   3.230  12.973   7.330 -0.0645  0.1009  0.2229
  346loPI   C1B 5533   2.813  12.353   8.967 -0.0730  0.0595  0.3645
  346loPI   C2B 5534   2.503  12.358   8.567 -0.3728 -0.1533 -0.0697
  346loPI   C3B 5535   2.380  12.336   8.158  0.0121 -0.0794  0.0069
  346loPI   C4B 5536   2.334  12.369   7.718  0.2105  0.3578 -0.1064
  347loPI    C1 5537   3.389   3.692   9.771 -0.1719  0.0453 -0.0348
  347loPI    C2 5538   3.234   4.043   9.659  0.0546  0.1807  0.0672
  347loPI    C3 5539   3.170   3.905  10.029  0.0511  0.1637  0.0603
  347loPI   PO4 5540   3.502   3.642   9.501 -0.1231  0.0824  0.0387
  347loPI   GL1 5541   3.368   3.556   9.120 -0.0525  0.0777 -0.0406
  347loPI   GL2 5542   3.098   3.783   9.194  0.4148 -0.0314 -0.0260
  347loPI   C1A 5543   3.281   3.619   8.729  0.0667 -0.0804  0.0920
  347loPI   C2A 5544   3.340   3.889   8.373 -0.0100 -0.1703  0.2435
  347loPI   C3A 5545   3.190   4.065   8.102 -0.1953  0.1850  0.0955
  347loPI   C4A 5546   2.999   4.448   7.856 -0.1006  0.1491  0.2759
  347loPI   C5A 5547   2.849   4.709   7.631 -0.1116  0.1648 -0.3177
  347loPI   C6A 5548   2.775   5.000   7.310 -0.1548 -0.2471 -0.0635
  347loPI   C1B 5549   3.455   4.099   8.973 -0.1061  0.0026  0.2603
  347loPI   C2B 5550   3.325   4.368   8.508  0.0413 -0.0488  0.1138
  347loPI   C3B 5551   3.197   4.680   8.219  0.0764 -0.0049 -0.0120
  347loPI   C4B 5552   3.072   4.990   8.059  0.0986  0.3508 -0.2262
  348loPI    C1 5553   0.535   5.612   9.922  0.1696 -0.2747  0.1410
  348loPI    C2 5554   0.168   5.579  10.077 -0.1145 -0.1001 -0.4665
  348loPI    C3 5555   0.488   5.563  10.316 -0.5239  0.0536  0.1132
  348loPI   PO4 5556   0.491   5.740   9.732  0.0754 -0.1657  0.1402
  348loPI   GL1 5557   0.460   5.650   9.399 -0.7219 -0.1739 -0.0128
  348loPI   GL2 5558   0.639   5.630   9.135 -0.0294  0.0063 -0.0671
  348loPI   C1A 5559   0.141   5.449   9.122  0.0695 -0.0334  0.2404
  348loPI   C2A 5560   0.072   5.503   8.692  0.1075 -0.1149  0.0703
  348loPI   C3A 5561   0.194   5.719   8.414  0.1491  0.1452  0.1479
  348loPI   C4A 5562   0.024   5.927   8.042 -0.2110  0.1911  0.3433
  348loPI   C5A 5563  -0.267   5.956   7.596 -0.0946 -0.2566  0.2211
  348loPI   C6A 5564  -0.561   6.072   7.359 -0.0061  0.0042 -0.0565
  348loPI   C1B 5565   0.700   5.604   8.705 -0.2208  0.3033 -0.0016
  348loPI   C2B 5566   0.767   5.385   8.237  0.1562  0.0527  0.1441
  348loPI   C3B 5567   0.627   5.154   7.851 -0.1236 -0.2214  0.0608
  348loPI   C4B 5568   0.679   4.882   7.485  0.1588  0.0142 -0.0410
  349loPI    C1 5569   6.236   7.554   9.949  0.1280  0.0904  0.0206
  349loPI    C2 5570   6.621   7.541  10.056  0.1679  0.1751 -0.1103
  349loPI    C3 5571   6.414   7.201  10.015  0.1385  0.1421  0.2774
  349loPI   PO4 5572   6.216   7.680   9.740 -0.1256  0.0690  0.1810
  349loPI   GL1 5573   6.209   7.594   9.329 -0.0415  0.1978 -0.0648
  349loPI   GL2 5574   6.010   7.883   9.213 -0.1821  0.1764 -0.0858
  349loPI   C1A 5575   6.412   7.594   8.981 -0.0393 -0.3542  0.0113
  349loPI   C2A 5576   6.402   7.723   8.519  0.1496 -0.1461  0.0593
  349loPI   C3A 5577   6.487   7.699   8.097 -0.0959 -0.1241  0.0669
  349loPI   C4A 5578   6.812   7.785   7.808 -0.2264  0.0290  0.0631
  349loPI   C5A 5579   6.914   7.866   7.400  0.0844 -0.0066  0.0988
  349loPI   C6A 5580   6.742   8.171   7.070  0.0969  0.1202 -0.1623
  349loPI   C1B 5581   5.963   7.585   8.815 -0.0907 -0.1384 -0.1427
  349loPI   C2B 5582   5.900   7.363   8.422  0.0625 -0.0553 -0.1490
  349loPI   C3B 5583   5.932   7.454   7.968 -0.0126 -0.2198 -0.0032
  349loPI   C4B 5584   5.782   7.525   7.551 -0.0765 -0.4293 -0.3164
  350loPI    C1 5585  11.910   8.019   9.924 -0.0417 -0.0574 -0.1394
  350loPI    C2 5586  12.122   8.020  10.264 -0.0146 -0.1644 -0.1559
  350loPI    C3 5587  11.747   7.880  10.262 -0.0774  0.0014 -0.1322
  350loPI   PO4 5588  12.017   8.232   9.819  0.0484  0.1497 -0.2069
  350loPI   GL1 5589  12.212   8.255   9.484  0.0099 -0.1403 -0.1079
  350loPI   GL2 5590  11.911   8.498   9.365 -0.1705  0.2729 -0.1862
  350loPI   C1A 5591  12.457   8.330   9.163  0.1236  0.0078  0.0987
  350loPI   C2A 5592  12.363   8.305   8.705  0.1709  0.2619  0.2923
  350loPI   C3A 5593  12.485   8.138   8.361 -0.0755 -0.0454 -0.0877
  350loPI   C4A 5594  12.431   7.981   7.914  0.1709 -0.0275  0.2899
  350loPI   C5A 5595  12.123   8.102   7.546 -0.0243 -0.1847 -0.3557
  350loPI   C6A 5596  11.742   8.276   7.561  0.3461  0.2394  0.0901
  350loPI   C1B 5597  12.124   8.640   8.982  0.0115  0.5494  0.0908
  350loPI   C2B 5598  12.083   8.944   8.562  0.1609  0.0560  0.3967
  350loPI   C3B 5599  11.956   9.049   8.118  0.0782 -0.1487 -0.3125
  350loPI   C4B 5600  12.077   9.002   7.699 -0.0636  0.0919 -0.2551
  351loPI    C1 5601  12.003  11.925   9.586  0.0731 -0.1695 -0.1649
  351loPI    C2 5602  11.745  12.221   9.509  0.1067 -0.0754  0.0751
  351loPI    C3 5603  12.108  12.223   9.340  0.0305 -0.0930 -0.0909
  351loPI   PO4 5604  11.837  11.682   9.546 -0.1579  0.0350  0.2800
  351loPI   GL1 5605  11.645  11.548   9.202  0.0176  0.1564  0.0294
  351loPI   GL2 5606  11.606  11.280   9.095 -0.4557 -0.1438  0.2148
  351loPI   C1A 5607  11.238  11.598   8.959 -0.1946 -0.1752 -0.1564
  351loPI   C2A 5608  11.094  11.574   8.626  0.0163 -0.2095 -0.0190
  351loPI   C3A 5609  10.920  11.564   8.134 -0.0287  0.0303  0.4191
  351loPI   C4A 5610  10.590  11.612   7.868 -0.2243  0.1433 -0.1257
  351loPI   C5A 5611  10.416  11.585   7.467  0.0488  0.0721 -0.0504
  351loPI   C6A 5612  10.460  11.661   6.988  0.3826  0.2155 -0.1127
  351loPI   C1B 5613  11.635  11.475   8.701  0.0079 -0.1343 -0.1347
  351loPI   C2B 5614  11.445  11.631   8.290  0.0114 -0.0137  0.0505
  351loPI   C3B 5615  11.369  11.758   7.804 -0.0736 -0.0082 -0.0781
  351loPI   C4B 5616  10.964  11.705   7.621  0.0811  0.2003 -0.1650
  352loPI    C1 5617  17.861  14.703  10.485 -0.2166 -0.1872 -0.1299
  352loPI    C2 5618  17.946  14.734  10.875 -0.0824 -0.0856 -0.1666
  352loPI    C3 5619  17.648  14.496  10.754 -0.2993  0.0868  0.0195
  352loPI   PO4 5620  18.054  14.607  10.359 -0.2725  0.1187  0.0280
  352loPI   GL1 5621  18.399  14.777  10.193 -0.1718  0.0827  0.3316
  352loPI   GL2 5622  18.490  14.877   9.971 -0.0176  0.1553 -0.2229
  352loPI   C1A 5623  18.065  14.950   9.797  0.0262  0.0260  0.0111
  352loPI   C2A 5624  17.919  15.222   9.475 -0.2704  0.0327 -0.1418
  352loPI   C3A 5625  17.779  15.261   8.962 -0.1568  0.1386  0.0694
  352loPI   C4A 5626  17.978  15.345   8.662 -0.1343  0.0417 -0.0855
  352loPI   C5A 5627  17.912  15.561   8.402 -0.4269  0.3049  0.1210
  352loPI   C6A 5628  17.761  15.984   8.181 -0.1101  0.2132 -0.1594
  352loPI   C1B 5629  18.804  14.838   9.596 -0.1151 -0.0783  0.1333
  352loPI   C2B 5630  18.840  14.544   9.257  0.3404  0.4607  0.2906
  352loPI   C3B 5631  19.148  14.296   9.177 -0.0156 -0.1408 -0.2681
  352loPI   C4B 5632  19.667  14.495   9.120 -0.2102 -0.4610  0.3213
  353loPI    C1 5633   1.450  17.682  10.149 -0.0247  0.0956 -0.0528
  353loPI    C2 5634   1.065  17.618  10.062  0.0331 -0.2470 -0.0701
  353loPI    C3 5635   1.168  17.757  10.422 -0.1227  0.0863 -0.1506
  353loPI   PO4 5636   1.517  17.838   9.923 -0.0608 -0.2985  0.2607
  353loPI   GL1 5637   1.758  18.009   9.551  0.2440 -0.1067  0.1620
  353loPI   GL2 5638   1.996  18.267   9.564 -0.1748  0.0184  0.0766
  353loPI   C1A 5639   1.587  18.058   9.107 -0.1410 -0.1945  0.1089
  353loPI   C2A 5640   1.742  18.073   8.724 -0.1203  0.2720 -0.3527
  353loPI   C3A 5641   1.771  18.058   8.280  0.1213  0.1614 -0.0871
  353loPI   C4A 5642   1.702  18.043   7.879  0.1880 -0.2194 -0.0473
  353loPI   C5A 5643   1.871  18.358   7.683  0.2393 -0.0739  0.0653
  353loPI   C6A 5644   2.241  18.476   7.314  0.1934  0.0610  0.0601
  353loPI   C1B 5645   2.039  18.274   9.186 -0.1903 -0.0964  0.1838
  353loPI   C2B 5646   2.037  17.796   8.997  0.2890  0.1158  0.2122
  353loPI   C3B 5647   2.312  17.559   8.877  0.0158  0.2350 -0.2677
  353loPI   C4B 5648   2.630  17.588   8.636 -0.2060 -0.0173 -0.0696
  354loPI    C1 5649   2.610  12.396   9.818 -0.2562  0.3123  0.1672
  354loPI    C2 5650   2.754  12.111  10.058 -0.1843  0.2735  0.0785
  354loPI    C3 5651   2.990  12.410   9.939 -0.1374  0.1398 -0.1729
  354loPI   PO4 5652   2.458  12.135   9.632 -0.4043  0.1770  0.0978
  354loPI   GL1 5653   2.370  12.125   9.245 -0.0105 -0.0184  0.3147
  354loPI   GL2 5654   2.091  12.206   9.201  0.0408  0.1990 -0.4016
  354loPI   C1A 5655   2.262  11.748   9.037  0.1144  0.0400 -0.1044
  354loPI   C2A 5656   2.145  11.689   8.693  0.1743  0.0932  0.2099
  354loPI   C3A 5657   2.001  11.720   8.286 -0.2920  0.0502 -0.1819
  354loPI   C4A 5658   2.324  11.811   7.975  0.1714 -0.1569 -0.0045
  354loPI   C5A 5659   2.421  11.891   7.554  0.0628  0.2308  0.0459
  354loPI   C6A 5660   2.565  11.782   7.237  0.0780  0.4622 -0.0798
  354loPI   C1B 5661   2.059  12.176   8.808 -0.0558 -0.0038  0.3041
  354loPI   C2B 5662   1.951  12.206   8.414  0.2011  0.1584  0.1705
  354loPI   C3B 5663   1.874  12.127   7.860  0.0991 -0.1706 -0.0855
  354loPI   C4B 5664   1.930  12.224   7.469  0.0103 -0.1772  0.0937
  355loPI    C1 5665  18.840  13.625  10.170  0.0215 -0.1010  0.1482
  355loPI    C2 5666  18.643  13.403   9.902 -0.0764 -0.1290  0.2430
  355loPI    C3 5667  18.848  13.226  10.197 -0.2833 -0.0938  0.4111
  355loPI   PO4 5668  18.830  13.866  10.103 -0.2478  0.2783 -0.1674
  355loPI   GL1 5669  18.983  13.925   9.635 -0.0287 -0.0481 -0.2519
  355loPI   GL2 5670  19.124  14.149   9.733  0.2591 -0.3456 -0.1082
  355loPI   C1A 5671  18.854  13.562   9.471  0.0800 -0.2132  0.1695
  355loPI   C2A 5672  18.651  13.094   9.440  0.0110  0.0175 -0.0404
  355loPI   C3A 5673  18.427  12.843   9.178  0.0247  0.1586  0.2039
  355loPI   C4A 5674  18.202  12.883   8.749  0.1621  0.0900 -0.0526
  355loPI   C5A 5675  17.972  12.758   8.407  0.2245 -0.1536 -0.1855
  355loPI   C6A 5676  18.186  12.916   8.045  0.1154 -0.3053 -0.3735
  355loPI   C1B 5677  19.177  14.546   9.602  0.0995  0.1799 -0.1370
  355loPI   C2B 5678  19.302  14.814   9.215 -0.0203  0.2473  0.0309
  355loPI   C3B 5679  19.387  14.751   8.772 -0.0741 -0.1566 -0.1371
  355loPI   C4B 5680  19.132  14.960   8.413  0.2867  0.0199 -0.0975
  356loPI    C1 5681   2.144   2.023   9.645  0.2365  0.0651 -0.2100
  356loPI    C2 5682   2.186   2.258   9.966 -0.0704  0.1492 -0.2289
  356loPI    C3 5683   2.238   1.863  10.000 -0.0438  0.1642 -0.0887
  356loPI   PO4 5684   1.902   2.131   9.558  0.0196 -0.1200  0.0363
  356loPI   GL1 5685   1.807   2.162   9.297  0.0946  0.0992 -0.0379
  356loPI   GL2 5686   1.537   1.917   9.157  0.2575 -0.2522 -0.3746
  356loPI   C1A 5687   1.622   2.319   8.867 -0.0404 -0.2060 -0.0833
  356loPI   C2A 5688   1.669   2.283   8.369 -0.2102 -0.1012 -0.1818
  356loPI   C3A 5689   1.521   2.624   8.205 -0.0208 -0.3013  0.0188
  356loPI   C4A 5690   1.404   2.962   7.858 -0.5395  0.2360 -0.0699
  356loPI   C5A 5691   1.667   3.115   7.551  0.4000 -0.1853 -0.1577
  356loPI   C6A 5692   1.661   3.411   7.210  0.0526  0.0423 -0.1905
  356loPI   C1B 5693   1.830   1.866   8.909  0.1305 -0.4925 -0.1958
  356loPI   C2B 5694   1.938   1.850   8.426 -0.0487  0.2148 -0.0945
  356loPI   C3B 5695   2.018   1.818   7.932 -0.2223  0.1943 -0.3233
  356loPI   C4B 5696   2.396   1.778   7.699  0.1348 -0.2019  0.0736
  357loPI    C1 5697  18.849  14.726  10.373  0.0089 -0.0565 -0.2523
  357loPI    C2 5698  19.049  14.380  10.390 -0.1371 -0.1366 -0.1367
  357loPI    C3 5699  18.650  14.379  10.379 -0.1411  0.0317 -0.0379
  357loPI   PO4 5700  18.983  14.908  10.182  0.0095  0.0366 -0.0883
  357loPI   GL1 5701  19.218  14.993   9.815 -0.0303 -0.0538 -0.1531
  357loPI   GL2 5702  19.535  14.903   9.683 -0.0346 -0.0471 -0.0540
  357loPI   C1A 5703  19.049  15.309   9.521 -0.2090  0.0558  0.1277
  357loPI   C2A 5704  18.844  15.142   9.240 -0.3055  0.2105  0.1203
  357loPI   C3A 5705  18.722  14.884   8.823 -0.1345  0.1974 -0.2195
  357loPI   C4A 5706  18.962  14.597   8.681  0.1204 -0.2221  0.1184
  357loPI   C5A 5707  18.805  14.144   8.474 -0.1847 -0.1362 -0.0542
  357loPI   C6A 5708  18.918  13.837   8.148  0.2194  0.2214  0.0320
  357loPI   C1B 5709  19.756  14.984   9.321  0.0164 -0.0046  0.2676
  357loPI   C2B 5710  19.870  14.885   8.881  0.0150  0.5023 -0.2502
  357loPI   C3B 5711  20.028  14.650   8.526 -0.0334  0.0906  0.1397
  357loPI   C4B 5712  20.376  14.523   8.218 -0.3812 -0.3945  0.0173
  358loPI    C1 5713  10.001   4.616  10.025 -0.1857 -0.1024 -0.0901
  358loPI    C2 5714   9.618   4.719  10.081 -0.0722  0.2044  0.1505
  358loPI    C3 5715   9.778   4.422  10.295 -0.2617 -0.1468 -0.1843
  358loPI   PO4 5716  10.042   4.594   9.780 -0.0946 -0.0315  0.1046
  358loPI   GL1 5717   9.978   4.420   9.372 -0.0807 -0.0907 -0.0260
  358loPI   GL2 5718  10.309   4.324   9.432 -0.1848  0.2961 -0.0356
  358loPI   C1A 5719  10.108   4.690   9.063  0.1236 -0.1794 -0.1705
  358loPI   C2A 5720  10.180   4.829   8.619  0.2067 -0.2569 -0.0219
  358loPI   C3A 5721  10.412   5.052   8.359 -0.0202  0.2460  0.1316
  358loPI   C4A 5722  10.519   5.031   8.009 -0.1051  0.0177 -0.1089
  358loPI   C5A 5723  10.783   5.006   7.688  0.2266 -0.1301 -0.1663
  358loPI   C6A 5724  10.881   5.286   7.288 -0.1642 -0.0489 -0.0293
  358loPI   C1B 5725  10.499   4.322   9.026  0.1771  0.0178  0.1217
  358loPI   C2B 5726  10.429   4.419   8.589 -0.2541  0.0538 -0.1465
  358loPI   C3B 5727  10.360   4.554   8.160 -0.0396  0.2821 -0.0940
  358loPI   C4B 5728  10.035   4.345   7.912 -0.0436 -0.1134 -0.1866
  359loPI    C1 5729  14.505  13.984  10.073  0.0726 -0.1221  0.0227
  359loPI    C2 5730  14.310  13.665  10.216  0.3252 -0.2555  0.0753
  359loPI    C3 5731  14.397  13.971  10.458 -0.0023 -0.1005  0.0026
  359loPI   PO4 5732  14.656  13.848   9.923  0.0221 -0.1537  0.2030
  359loPI   GL1 5733  14.619  13.600   9.518  0.1084  0.2692 -0.0748
  359loPI   GL2 5734  14.488  13.980   9.360 -0.0402 -0.2558 -0.3096
  359loPI   C1A 5735  14.634  13.586   9.058  0.1160  0.2734  0.1124
  359loPI   C2A 5736  14.702  13.560   8.657  0.1360 -0.1959 -0.0562
  359loPI   C3A 5737  14.745  13.263   8.276  0.0220 -0.1175 -0.3110
  359loPI   C4A 5738  14.585  13.096   7.867  0.0757 -0.0496 -0.0812
  359loPI   C5A 5739  14.598  13.375   7.573  0.3560  0.1773  0.0595
  359loPI   C6A 5740  14.472  13.800   7.731 -0.2270 -0.1828  0.0792
  359loPI   C1B 5741  14.522  14.063   9.019 -0.1146  0.0266  0.0351
  359loPI   C2B 5742  14.552  14.019   8.607  0.1167  0.4121 -0.2035
  359loPI   C3B 5743  14.385  14.290   8.347  0.0289  0.1607  0.0991
  359loPI   C4B 5744  14.343  14.231   8.001  0.0480 -0.5393  0.1955
  360loPI    C1 5745   7.318  18.229   9.134 -0.0163  0.4425 -0.0199
  360loPI    C2 5746   7.497  18.130   9.477  0.0157  0.1041 -0.1307
  360loPI    C3 5747   7.717  18.206   9.152 -0.0269  0.0797 -0.1652
  360loPI   PO4 5748   7.167  18.338   9.158  0.0783  0.0469 -0.0087
  360loPI   GL1 5749   7.226  18.551   8.760  0.1353 -0.2870  0.1484
  360loPI   GL2 5750   6.998  18.521   8.630  0.0729  0.2952  0.0887
  360loPI   C1A 5751   7.606  18.299   8.658 -0.1464 -0.0714 -0.4226
  360loPI   C2A 5752   7.798  18.248   8.223 -0.0690  0.2002  0.1149
  360loPI   C3A 5753   7.674  18.051   7.820 -0.0307  0.4022 -0.0725
  360loPI   C4A 5754   7.345  17.960   7.583 -0.1758 -0.1341 -0.0959
  360loPI   C5A 5755   7.051  17.575   7.478  0.3930  0.0667 -0.5448
  360loPI   C6A 5756   7.060  17.166   7.671  0.0079 -0.4700  0.0489
  360loPI   C1B 5757   6.880  18.599   8.216 -0.0548  0.2830 -0.2479
  360loPI   C2B 5758   7.053  18.828   7.965 -0.3021  0.1661  0.1266
  360loPI   C3B 5759   7.365  19.037   7.593 -0.3037  0.0621  0.2687
  360loPI   C4B 5760   7.625  18.997   7.244  0.0661  0.3302 -0.1402
  361loPI    C1 5761  12.194  10.377  10.297 -0.4798 -0.0453 -0.1518
  361loPI    C2 5762  12.329  10.326   9.923 -0.1330  0.0535 -0.0443
  361loPI    C3 5763  12.127  10.032  10.105 -0.0875 -0.0886 -0.2204
  361loPI   PO4 5764  12.017  10.603  10.233  0.1412  0.1999 -0.1148
  361loPI   GL1 5765  11.721  10.541   9.860  0.0496 -0.1483 -0.1962
  361loPI   GL2 5766  11.806  10.210   9.732  0.0974 -0.2513 -0.1319
  361loPI   C1A 5767  11.617  10.673   9.498 -0.0480 -0.1548 -0.1520
  361loPI   C2A 5768  11.781  10.842   9.042 -0.0298  0.1192 -0.0880
  361loPI   C3A 5769  11.716  11.006   8.570 -0.0791  0.0409 -0.2294
  361loPI   C4A 5770  11.803  11.029   8.108 -0.1567 -0.0763  0.5111
  361loPI   C5A 5771  11.782  11.071   7.781  0.0633 -0.0566  0.0674
  361loPI   C6A 5772  11.904  11.424   7.506 -0.0630 -0.3587  0.0396
  361loPI   C1B 5773  12.131  10.113   9.489  0.2062 -0.0335  0.4683
  361loPI   C2B 5774  12.320  10.316   9.151  0.1921 -0.2276  0.1658
  361loPI   C3B 5775  12.223  10.509   8.719  0.0418  0.0743 -0.2475
  361loPI   C4B 5776  12.154  10.745   8.340 -0.3174 -0.4932  0.0624
  362loPI    C1 5777   8.799  16.689  10.034 -0.0050 -0.1525  0.0561
  362loPI    C2 5778   8.851  16.789  10.417 -0.1956  0.3288 -0.0372
  362loPI    C3 5779   9.143  16.854  10.153 -0.1457  0.1994 -0.0145
  362loPI   PO4 5780   8.639  16.901   9.886 -0.1180  0.1384  0.2745
  362loPI   GL1 5781   8.550  17.024   9.502 -0.0532 -0.0145 -0.1530
  362loPI   GL2 5782   8.774  16.956   9.237  0.2620  0.1522  0.1853
  362loPI   C1A 5783   8.357  17.106   8.988 -0.2506 -0.0707  0.1020
  362loPI   C2A 5784   8.465  17.218   8.539  0.2877 -0.1227 -0.0199
  362loPI   C3A 5785   8.256  17.339   8.184 -0.3822  0.0280 -0.1219
  362loPI   C4A 5786   8.344  17.223   7.673  0.5909 -0.3247  0.0604
  362loPI   C5A 5787   8.082  17.363   7.488  0.2134  0.1818 -0.0227
  362loPI   C6A 5788   7.646  17.441   7.173 -0.1855 -0.1697 -0.1067
  362loPI   C1B 5789   8.910  16.729   8.844 -0.1327 -0.2691  0.1206
  362loPI   C2B 5790   8.907  16.900   8.493  0.1461 -0.0797 -0.0997
  362loPI   C3B 5791   9.072  16.748   8.151  0.1956  0.0278  0.1002
  362loPI   C4B 5792   8.934  16.832   7.823  0.1194  0.2443  0.4923
  363loPI    C1 5793  10.155   9.077   9.686  0.0205 -0.2822 -0.0603
  363loPI    C2 5794  10.125   8.812   9.984  0.3110 -0.2626 -0.0113
  363loPI    C3 5795  10.453   9.040   9.951  0.1776 -0.0960 -0.2076
  363loPI   PO4 5796  10.004   8.972   9.476  0.1194  0.0320  0.3281
  363loPI   GL1 5797   9.883   8.837   9.172  0.2049 -0.0036 -0.0860
  363loPI   GL2 5798  10.157   8.712   9.089  0.2299 -0.1447  0.1527
  363loPI   C1A 5799   9.788   8.744   8.737 -0.2727 -0.0309  0.0110
  363loPI   C2A 5800   9.689   8.453   8.350 -0.0497 -0.0668 -0.0217
  363loPI   C3A 5801   9.902   8.485   7.838  0.1013 -0.2030  0.1578
  363loPI   C4A 5802  10.087   8.621   7.430 -0.0863 -0.0257  0.1644
  363loPI   C5A 5803  10.044   8.434   7.043  0.3865  0.3887  0.1621
  363loPI   C6A 5804  10.011   8.590   6.631 -0.1338  0.0737  0.1913
  363loPI   C1B 5805  10.252   8.596   8.610 -0.0209 -0.0625 -0.3522
  363loPI   C2B 5806  10.203   8.341   8.351  0.0012  0.4411  0.0850
  363loPI   C3B 5807  10.496   7.968   8.163 -0.1952  0.0833 -0.2440
  363loPI   C4B 5808  10.461   7.732   7.757  0.0808 -0.0381 -0.1056
  364loPI    C1 5809   8.456  16.312   9.877 -0.1733 -0.1386 -0.1554
  364loPI    C2 5810   8.240  16.091  10.132 -0.1689 -0.1566 -0.1673
  364loPI    C3 5811   8.059  16.356   9.894 -0.1189  0.2774  0.2608
  364loPI   PO4 5812   8.627  16.130   9.709  0.0876 -0.0954 -0.1148
  364loPI   GL1 5813   8.702  15.972   9.320  0.4712 -0.0051 -0.0041
  364loPI   GL2 5814   9.019  16.077   9.397  0.1102  0.1273  0.1167
  364loPI   C1A 5815   8.472  15.932   9.020 -0.0911  0.2783 -0.4252
  364loPI   C2A 5816   8.606  15.992   8.577  0.1143  0.3576 -0.1300
  364loPI   C3A 5817   8.372  15.880   8.241 -0.2930 -0.1103  0.0785
  364loPI   C4A 5818   8.345  15.679   7.920 -0.1999  0.0100  0.1653
  364loPI   C5A 5819   7.926  15.605   7.565  0.0803  0.1848  0.0427
  364loPI   C6A 5820   7.907  15.827   7.090 -0.1622  0.2078 -0.1542
  364loPI   C1B 5821   9.046  16.249   8.917 -0.0567  0.2852 -0.0696
  364loPI   C2B 5822   8.941  16.388   8.504 -0.1444  0.1869 -0.0409
  364loPI   C3B 5823   8.790  16.240   8.136 -0.2664  0.3172 -0.1491
  364loPI   C4B 5824   8.817  15.876   7.955 -0.4097 -0.0429  0.0175
  365loPI    C1 5825   0.418   1.991  10.183  0.0668  0.0047 -0.3386
  365loPI    C2 5826   0.362   2.371  10.294  0.0791 -0.0503 -0.1413
  365loPI    C3 5827   0.716   2.195  10.354  0.0045 -0.1625 -0.0221
  365loPI   PO4 5828   0.375   2.004   9.979 -0.0173  0.0710 -0.1848
  365loPI   GL1 5829   0.110   1.889   9.649 -0.0516  0.0814  0.3722
  365loPI   GL2 5830   0.226   1.624   9.521  0.1974 -0.0248  0.3973
  365loPI   C1A 5831  -0.012   2.175   9.270  0.3437 -0.3356 -0.0327
  365loPI   C2A 5832  -0.152   2.141   8.877  0.2220 -0.1977 -0.1247
  365loPI   C3A 5833  -0.123   2.280   8.458 -0.0430 -0.0372  0.3949
  365loPI   C4A 5834  -0.117   2.390   7.894  0.0663 -0.0536 -0.0145
  365loPI   C5A 5835  -0.310   2.415   7.617 -0.1192  0.3219 -0.2558
  365loPI   C6A 5836  -0.621   2.496   7.484 -0.3317  0.2066  0.1565
  365loPI   C1B 5837   0.027   1.643   9.120 -0.6281 -0.2076 -0.3479
  365loPI   C2B 5838  -0.067   1.641   8.671  0.0682  0.2262  0.1449
  365loPI   C3B 5839  -0.209   1.822   8.259  0.0424 -0.2929 -0.0450
  365loPI   C4B 5840  -0.442   2.032   7.909 -0.1438 -0.0960  0.1752
  366loPI    C1 5841  10.324  10.352   9.834  0.1035 -0.0525  0.0981
  366loPI    C2 5842  10.149  10.610  10.085  0.2319 -0.0375  0.1734
  366loPI    C3 5843   9.925  10.368   9.858  0.1113  0.1077  0.1354
  366loPI   PO4 5844  10.459  10.555   9.627 -0.2404  0.1677  0.0635
  366loPI   GL1 5845  10.414  10.553   9.213 -0.0057  0.0915 -0.4694
  366loPI   GL2 5846  10.789  10.686   9.130  0.1435  0.2138 -0.3432
  366loPI   C1A 5847  10.432  10.290   8.947  0.2952 -0.2786  0.4436
  366loPI   C2A 5848  10.259  10.123   8.500  0.3889  0.4551 -0.1035
  366loPI   C3A 5849   9.977  10.253   8.217 -0.2552 -0.1483  0.2350
  366loPI   C4A 5850   9.873  10.438   7.877  0.2757 -0.2089  0.3163
  366loPI   C5A 5851   9.556  10.506   7.511 -0.0486  0.1365  0.1288
  366loPI   C6A 5852   9.172  10.260   7.515  0.0749 -0.2425  0.2980
  366loPI   C1B 5853  10.850  10.599   8.770  0.3224  0.0850 -0.2918
  366loPI   C2B 5854  11.174  10.678   8.446 -0.1150  0.0721 -0.2057
  366loPI   C3B 5855  11.355  10.717   8.068 -0.1245  0.1618  0.3593
  366loPI   C4B 5856  11.304  10.418   7.649  0.1380  0.3922 -0.2553
  367loPI    C1 5857   0.879   3.173  10.142  0.0107 -0.0632 -0.0207
  367loPI    C2 5858   1.255   3.254  10.253 -0.0427  0.0296  0.0942
  367loPI    C3 5859   1.012   3.056  10.501  0.0063 -0.2559 -0.0804
  367loPI   PO4 5860   0.826   3.060   9.891 -0.0976 -0.0073  0.0189
  367loPI   GL1 5861   0.896   2.874   9.467 -0.1053 -0.0851  0.2241
  367loPI   GL2 5862   0.752   3.203   9.423 -0.1316 -0.1548 -0.2391
  367loPI   C1A 5863   0.654   2.549   9.243  0.4413  0.2251 -0.3581
  367loPI   C2A 5864   0.397   2.297   8.972  0.1785 -0.3490 -0.0490
  367loPI   C3A 5865   0.257   2.026   8.684 -0.2648 -0.0074 -0.1122
  367loPI   C4A 5866   0.322   1.690   8.281 -0.1860  0.0296 -0.3277
  367loPI   C5A 5867   0.138   1.502   7.908  0.1125  0.2030  0.1246
  367loPI   C6A 5868   0.040   1.191   7.687  0.1088  0.0670 -0.0508
  367loPI   C1B 5869   0.923   3.142   9.048  0.1573  0.0279 -0.0731
  367loPI   C2B 5870   0.869   3.110   8.571 -0.1471  0.1534 -0.0248
  367loPI   C3B 5871   0.565   3.019   8.305 -0.4013  0.5038 -0.0355
  367loPI   C4B 5872   0.258   3.011   8.483 -0.0365  0.3219 -0.0211
  368loPI    C1 5873  14.906   8.690   9.889 -0.4997 -0.1917  0.0296
  368loPI    C2 5874  15.127   8.781  10.210 -0.0366  0.0157 -0.3356
  368loPI    C3 5875  14.909   8.445  10.205  0.2226 -0.1655  0.0595
  368loPI   PO4 5876  14.751   8.957   9.845  0.2499  0.0363  0.0694
  368loPI   GL1 5877  14.815   8.978   9.438 -0.0545 -0.0658  0.2498
  368loPI   GL2 5878  14.598   8.788   9.333  0.0738  0.0841  0.1618
  368loPI   C1A 5879  14.985   9.172   9.045  0.1509  0.2079  0.0279
  368loPI   C2A 5880  15.191   9.147   8.648 -0.0049  0.1346  0.1266
  368loPI   C3A 5881  15.086   9.013   8.198 -0.1431  0.0334 -0.1071
  368loPI   C4A 5882  14.758   9.158   7.917 -0.0464 -0.1732 -0.1150
  368loPI   C5A 5883  14.519   9.514   7.664  0.0758 -0.0429  0.1590
  368loPI   C6A 5884  14.361   9.775   7.773 -0.2701  0.1773 -0.0545
  368loPI   C1B 5885  14.797   8.754   8.837  0.3922  0.3377 -0.2229
  368loPI   C2B 5886  15.045   8.673   8.504 -0.3223 -0.3801  0.1441
  368loPI   C3B 5887  14.968   8.581   7.990  0.1415 -0.1607 -0.3097
  368loPI   C4B 5888  15.024   8.835   7.654 -0.3123 -0.3297  0.2513
  369loPI    C1 5889  11.838  10.053  10.460  0.5364  0.0564 -0.1164
  369loPI    C2 5890  11.787  10.394  10.663 -0.1117 -0.1330  0.0646
  369loPI    C3 5891  11.898  10.061  10.855  0.0181 -0.1424 -0.0253
  369loPI   PO4 5892  11.603  10.078  10.241 -0.5029  0.0743 -0.0176
  369loPI   GL1 5893  11.274  10.073   9.914  0.0820  0.0276  0.1534
  369loPI   GL2 5894  11.274   9.733   9.911 -0.3462 -0.1947 -0.1721
  369loPI   C1A 5895  11.259  10.327   9.480 -0.0925  0.1999  0.0269
  369loPI   C2A 5896  11.305  10.500   9.076  0.1379 -0.1476  0.0474
  369loPI   C3A 5897  11.593  10.560   8.683  0.0122 -0.0199 -0.0761
  369loPI   C4A 5898  11.893  10.316   8.364 -0.3862 -0.1069  0.0187
  369loPI   C5A 5899  12.058  10.153   8.016  0.1064  0.0544  0.2124
  369loPI   C6A 5900  12.414   9.887   8.038  0.0899  0.2673  0.0612
  369loPI   C1B 5901  11.196   9.767   9.423  0.3252  0.2094 -0.0976
  369loPI   C2B 5902  11.256   9.653   8.972 -0.1157  0.2094 -0.0933
  369loPI   C3B 5903  11.036   9.732   8.563  0.1242 -0.0316  0.0787
  369loPI   C4B 5904  11.077   9.846   8.101 -0.2940  0.0202  0.2472
  370loPI    C1 5905   2.101   7.508   9.989 -0.0522 -0.1162  0.0150
  370loPI    C2 5906   2.000   7.149  10.132  0.0147 -0.1316  0.0238
  370loPI    C3 5907   2.318   7.341  10.280 -0.1602  0.0380  0.1871
  370loPI   PO4 5908   2.128   7.505   9.722  0.2427  0.4610  0.0815
  370loPI   GL1 5909   2.485   7.591   9.445  0.0434  0.0165  0.2724
  370loPI   GL2 5910   2.710   7.422   9.439  0.2021 -0.3216  0.1799
  370loPI   C1A 5911   2.545   7.557   9.004 -0.1665  0.1592 -0.0304
  370loPI   C2A 5912   2.272   7.541   8.642 -0.3041  0.4205  0.2520
  370loPI   C3A 5913   2.373   7.610   8.153  0.1090 -0.1946 -0.2101
  370loPI   C4A 5914   2.338   7.753   7.831  0.3711 -0.0149  0.0980
  370loPI   C5A 5915   2.283   8.105   7.597  0.3447 -0.0199 -0.0635
  370loPI   C6A 5916   2.058   8.384   7.365  0.0518  0.2070  0.0648
  370loPI   C1B 5917   2.673   7.062   9.157  0.4703 -0.0854  0.3364
  370loPI   C2B 5918   2.527   7.059   8.691 -0.1887 -0.0375 -0.3195
  370loPI   C3B 5919   2.309   7.152   8.278  0.0696  0.1790  0.3944
  370loPI   C4B 5920   1.811   7.171   8.311 -0.2224  0.0295  0.0885
  371loPI    C1 5921  13.179  15.882  10.232 -0.0198 -0.1147 -0.2170
  371loPI    C2 5922  13.051  16.249  10.328  0.0644 -0.0183 -0.4660
  371loPI    C3 5923  13.218  16.016  10.607 -0.3228 -0.0099 -0.2205
  371loPI   PO4 5924  13.301  15.882   9.968  0.2422  0.1078 -0.0223
  371loPI   GL1 5925  13.115  15.720   9.595 -0.3121  0.0209 -0.0996
  371loPI   GL2 5926  12.778  15.749   9.623 -0.5678  0.2775  0.0427
  371loPI   C1A 5927  13.276  15.788   9.217  0.0209  0.0315 -0.0019
  371loPI   C2A 5928  13.488  15.868   8.845 -0.0339  0.1995  0.1817
  371loPI   C3A 5929  13.587  15.999   8.484  0.1549 -0.1690  0.1202
  371loPI   C4A 5930  13.553  16.003   8.076 -0.0299 -0.3699  0.2329
  371loPI   C5A 5931  13.371  16.273   7.745  0.1089  0.1886  0.3282
  371loPI   C6A 5932  13.041  16.504   7.478  0.0459  0.3247 -0.0726
  371loPI   C1B 5933  12.737  15.885   9.203 -0.2377  0.1049  0.0190
  371loPI   C2B 5934  12.907  15.841   8.827 -0.1595  0.1628  0.1227
  371loPI   C3B 5935  13.050  15.942   8.363  0.2224 -0.1119  0.0817
  371loPI   C4B 5936  13.222  15.639   8.068 -0.2627  0.0386  0.0309
  372loPI    C1 5937   3.490   0.743   9.742 -0.2410 -0.0383 -0.1280
  372loPI    C2 5938   3.531   0.420   9.975  0.1669  0.1853  0.1238
  372loPI    C3 5939   3.285   0.716  10.084 -0.1533 -0.0016 -0.0722
  372loPI   PO4 5940   3.697   0.728   9.591  0.0055 -0.0983 -0.1489
  372loPI   GL1 5941   3.824   0.582   9.222 -0.0754 -0.2011 -0.4096
  372loPI   GL2 5942   3.838   0.954   9.176  0.3012 -0.0825  0.1399
  372loPI   C1A 5943   4.066   0.600   8.844  0.0331  0.1491  0.1194
  372loPI   C2A 5944   4.413   0.668   8.755 -0.1365 -0.3860 -0.0467
  372loPI   C3A 5945   4.610   0.583   8.436  0.0496 -0.1873 -0.1476
  372loPI   C4A 5946   4.769   0.594   8.044 -0.1604 -0.1363  0.1208
  372loPI   C5A 5947   4.626   0.737   7.588 -0.0789  0.1300 -0.0420
  372loPI   C6A 5948   4.577   0.654   7.156 -0.2557 -0.2733 -0.2838
  372loPI   C1B 5949   3.898   1.052   8.723  0.1480 -0.0517 -0.3755
  372loPI   C2B 5950   3.824   1.250   8.372 -0.1141 -0.1730  0.2212
  372loPI   C3B 5951   4.112   1.216   8.066 -0.1771  0.3037 -0.1856
  372loPI   C4B 5952   4.511   1.000   8.021 -0.1269 -0.2855 -0.0990
  373loPI    C1 5953   2.603  13.142   9.988 -0.2287 -0.2309 -0.0659
  373loPI    C2 5954   2.858  13.215  10.287 -0.3622 -0.0504  0.0052
  373loPI    C3 5955   2.464  13.222  10.354 -0.3875 -0.3554 -0.0980
  373loPI   PO4 5956   2.728  12.930   9.882  0.0299  0.6698 -0.0321
  373loPI   GL1 5957   2.985  12.805   9.597  0.0102 -0.4780 -0.3227
  373loPI   GL2 5958   3.187  13.130   9.636  0.1131  0.0238 -0.2601
  373loPI   C1A 5959   2.890  13.090   9.235  0.0511 -0.0095 -0.2608
  373loPI   C2A 5960   2.925  13.318   8.834  0.0500  0.0405  0.1499
  373loPI   C3A 5961   2.759  13.278   8.395  0.3603  0.1575 -0.0320
  373loPI   C4A 5962   2.691  13.209   7.994  0.0592 -0.3603  0.1635
  373loPI   C5A 5963   2.917  13.195   7.725  0.1278 -0.1895 -0.0297
  373loPI   C6A 5964   2.942  13.448   7.299  0.0724 -0.2167 -0.1985
  373loPI   C1B 5965   3.272  13.396   9.194  0.1188  0.0066  0.1588
  373loPI   C2B 5966   3.386  13.456   8.785  0.2755 -0.0048  0.2057
  373loPI   C3B 5967   3.263  13.389   8.287  0.3616 -0.0150  0.2063
  373loPI   C4B 5968   3.147  13.616   8.007  0.1503 -0.1589  0.2044
  374loPI    C1 5969   0.836  16.928  10.473 -0.1511  0.0352  0.1005
  374loPI    C2 5970   1.164  16.702  10.509 -0.1047  0.0734 -0.0744
  374loPI    C3 5971   0.927  16.762  10.825  0.0744  0.0727  0.0613
  374loPI   PO4 5972   0.698  16.910  10.261 -0.1156  0.0592  0.0985
  374loPI   GL1 5973   0.762  17.199   9.874 -0.0585 -0.0953  0.0681
  374loPI   GL2 5974   0.732  17.476   9.693 -0.1339 -0.2362  0.0951
  374loPI   C1A 5975   0.302  17.252   9.591  0.0643  0.1765 -0.0414
  374loPI   C2A 5976   0.087  17.234   9.143 -0.0636  0.0020 -0.1966
  374loPI   C3A 5977  -0.011  17.091   8.713  0.3010  0.0164  0.0339
  374loPI   C4A 5978  -0.102  16.759   8.320  0.6257  0.0519  0.2656
  374loPI   C5A 5979   0.033  16.730   7.873  0.0748  0.1929 -0.0311
  374loPI   C6A 5980   0.156  17.044   7.513 -0.0982 -0.2341 -0.0842
  374loPI   C1B 5981   0.639  17.328   9.223 -0.0136 -0.1460 -0.2575
  374loPI   C2B 5982   0.542  17.448   8.721  0.1478 -0.3081 -0.2753
  374loPI   C3B 5983   0.343  17.194   8.412 -0.0735  0.1267 -0.1223
  374loPI   C4B 5984   0.025  17.414   8.223  0.2177  0.2240  0.0915
  375loPI    C1 5985  12.684  10.535  10.133 -0.2513 -0.0835 -0.0294
  375loPI    C2 5986  12.456  10.845  10.243  0.0858  0.0949  0.1851
  375loPI    C3 5987  12.652  10.633  10.520 -0.0444 -0.2379  0.0283
  375loPI   PO4 5988  12.729  10.699   9.859 -0.0509 -0.0232 -0.2569
  375loPI   GL1 5989  12.810  10.985   9.471  0.5538 -0.3537  0.1092
  375loPI   GL2 5990  12.657  10.690   9.393 -0.1413  0.1894 -0.0784
  375loPI   C1A 5991  12.951  11.047   9.003 -0.2008  0.0350  0.0375
  375loPI   C2A 5992  13.094  10.826   8.563 -0.0844 -0.1669  0.1760
  375loPI   C3A 5993  13.453  10.791   8.166 -0.1107 -0.0200 -0.1304
  375loPI   C4A 5994  13.655  10.882   7.788  0.0132 -0.3384 -0.2933
  375loPI   C5A 5995  13.775  10.551   7.498 -0.2520 -0.0048 -0.1325
  375loPI   C6A 5996  13.630  10.592   7.096 -0.0292 -0.0594  0.3455
  375loPI   C1B 5997  12.438  10.847   8.991  0.2294 -0.0458 -0.0914
  375loPI   C2B 5998  12.113  11.155   8.807  0.3271  0.3024 -0.0672
  375loPI   C3B 5999  12.069  11.405   8.457  0.1313 -0.2254  0.0213
  375loPI   C4B 6000  11.871  11.578   8.040 -0.2317 -0.0483 -0.0812
  376loPI    C1 6001   9.750  15.462   9.800 -0.3618 -0.1091 -0.3399
  376loPI    C2 6002   9.446  15.595  10.024 -0.1381 -0.2026  0.0290
  376loPI    C3 6003   9.593  15.227  10.083  0.0139 -0.1778 -0.1822
  376loPI   PO4 6004   9.860  15.706   9.742 -0.2347  0.0809  0.0946
  376loPI   GL1 6005  10.104  15.805   9.390 -0.1343 -0.0909  0.0469
  376loPI   GL2 6006   9.770  15.674   9.222  0.1348 -0.0754 -0.1182
  376loPI   C1A 6007  10.146  15.986   9.010 -0.2871 -0.2304 -0.0381
  376loPI   C2A 6008  10.195  16.041   8.556  0.0029 -0.1274  0.1030
  376loPI   C3A 6009  10.442  16.124   8.272  0.1404  0.0558 -0.0231
  376loPI   C4A 6010  10.572  16.289   7.907  0.1052 -0.3640 -0.0792
  376loPI   C5A 6011  10.754  16.738   7.939 -0.6096  0.1457 -0.1229
  376loPI   C6A 6012  10.908  17.060   7.852  0.0676 -0.0093 -0.0562
  376loPI   C1B 6013   9.709  15.668   8.834  0.1950 -0.1917 -0.1534
  376loPI   C2B 6014   9.957  15.547   8.424 -0.3229 -0.2645  0.2725
  376loPI   C3B 6015  10.412  15.447   8.385 -0.1727  0.0561 -0.0009
  376loPI   C4B 6016  10.860  15.282   8.485 -0.1869 -0.0938  0.2748
  377loPI    C1 6017   1.610  13.460  10.299 -0.1046 -0.1209  0.0354
  377loPI    C2 6018   1.485  13.822  10.415  0.2397 -0.0391  0.1625
  377loPI    C3 6019   1.422  13.505  10.650  0.1944 -0.0132  0.1854
  377loPI   PO4 6020   1.497  13.392   9.995  0.4764 -0.0078 -0.2825
  377loPI   GL1 6021   1.780  13.544   9.692  0.2133 -0.0720 -0.0668
  377loPI   GL2 6022   1.635  13.828   9.845 -0.2620 -0.0041  0.0887
  377loPI   C1A 6023   1.644  13.277   9.386 -0.0420 -0.5244 -0.1554
  377loPI   C2A 6024   1.753  13.311   9.037  0.1634 -0.0166 -0.1102
  377loPI   C3A 6025   2.114  13.380   8.761  0.0832  0.0285  0.1342
  377loPI   C4A 6026   2.219  13.290   8.280 -0.3112 -0.3245 -0.0266
  377loPI   C5A 6027   1.991  13.246   7.854  0.1500  0.3583 -0.1605
  377loPI   C6A 6028   1.530  13.125   7.668  0.0235  0.1909 -0.0440
  377loPI   C1B 6029   1.521  13.765   9.405 -0.1338 -0.1410  0.0707
  377loPI   C2B 6030   1.521  13.823   8.964 -0.3568 -0.0948 -0.2537
  377loPI   C3B 6031   1.614  13.586   8.603 -0.1342  0.2712  0.1687
  377loPI   C4B 6032   1.732  13.271   8.406  0.0022 -0.0467 -0.0295
  378loPI    C1 6033   2.965   2.990  10.072 -0.0346  0.0078 -0.2076
  378loPI    C2 6034   3.109   3.363  10.064 -0.0241  0.0030 -0.2435
  378loPI    C3 6035   3.197   3.121  10.370 -0.2598  0.1205 -0.0798
  378loPI   PO4 6036   3.071   2.875   9.776 -0.2163  0.0769 -0.0211
  378loPI   GL1 6037   3.031   2.564   9.487  0.1646  0.2147 -0.2258
  378loPI   GL2 6038   3.263   2.369   9.349 -0.1305 -0.4236  0.1191
  378loPI   C1A 6039   2.897   2.671   9.021 -0.0597  0.2248  0.1512
  378loPI   C2A 6040   2.930   2.804   8.647  0.0473  0.0484 -0.0907
  378loPI   C3A 6041   2.837   2.904   8.276 -0.2068 -0.1624  0.1147
  378loPI   C4A 6042   2.814   2.757   7.809 -0.0950  0.0539  0.0483
  378loPI   C5A 6043   2.890   3.053   7.557 -0.1256  0.2696  0.1369
  378loPI   C6A 6044   2.958   3.273   7.295 -0.1512  0.3207 -0.0401
  378loPI   C1B 6045   3.183   2.187   8.929  0.0094  0.0576  0.1871
  378loPI   C2B 6046   3.035   2.078   8.547 -0.3785 -0.4241 -0.1787
  378loPI   C3B 6047   3.252   2.068   8.175  0.2561 -0.2307  0.0251
  378loPI   C4B 6048   3.275   2.296   7.815 -0.0848  0.2482 -0.3187
  379loPI    C1 6049  11.272   5.055   9.813  0.1521 -0.0594  0.0586
  379loPI    C2 6050  10.991   5.207   9.572  0.2437 -0.2159 -0.1493
  379loPI    C3 6051  10.913   5.154   9.961 -0.0185 -0.2684 -0.2069
  379loPI   PO4 6052  11.473   5.125   9.722 -0.2822  0.2136  0.0804
  379loPI   GL1 6053  11.879   4.958   9.529  0.0470 -0.1376  0.0689
  379loPI   GL2 6054  11.786   4.719   9.506  0.1862  0.3016  0.0643
  379loPI   C1A 6055  11.721   5.083   9.142 -0.1791 -0.0367  0.0588
  379loPI   C2A 6056  11.646   5.151   8.722 -0.0003 -0.0129  0.1487
  379loPI   C3A 6057  11.784   5.432   8.302 -0.3849 -0.0218  0.4082
  379loPI   C4A 6058  12.136   5.530   7.937  0.1549 -0.3034  0.0363
  379loPI   C5A 6059  12.381   5.399   7.594 -0.2161 -0.4739  0.1443
  379loPI   C6A 6060  12.324   5.248   7.264  0.2415  0.1019 -0.1160
  379loPI   C1B 6061  11.766   4.546   9.042 -0.2405 -0.1565  0.0456
  379loPI   C2B 6062  11.981   4.649   8.631 -0.0254  0.0159 -0.2457
  379loPI   C3B 6063  11.665   4.826   8.371 -0.2135  0.0536 -0.0718
  379loPI   C4B 6064  11.601   4.768   7.991 -0.4534 -0.0518 -0.0586
  380loPI    C1 6065   9.816   5.784  10.226  0.1574 -0.0023  0.0974
  380loPI    C2 6066   9.738   6.005  10.550  0.1997  0.0396  0.0791
  380loPI    C3 6067   9.525   5.674  10.478  0.2165  0.0085  0.1707
  380loPI   PO4 6068   9.798   6.037   9.860 -0.0902 -0.1584 -0.1220
  380loPI   GL1 6069  10.004   5.979   9.523 -0.1066 -0.0257 -0.0384
  380loPI   GL2 6070  10.055   6.331   9.357 -0.1144  0.2198  0.1256
  380loPI   C1A 6071   9.689   5.868   9.285  0.0574 -0.0487 -0.2359
  380loPI   C2A 6072   9.694   5.709   8.895 -0.0963  0.0187  0.2031
  380loPI   C3A 6073   9.798   5.334   8.586 -0.0783  0.0309 -0.5088
  380loPI   C4A 6074   9.978   5.273   8.212  0.1307 -0.1951 -0.3280
  380loPI   C5A 6075  10.134   5.409   7.779  0.2462  0.0247 -0.0056
  380loPI   C6A 6076  10.429   5.349   7.603  0.2749  0.0244  0.2874
  380loPI   C1B 6077  10.419   6.298   9.012  0.2611 -0.0172  0.0845
  380loPI   C2B 6078  10.594   6.340   8.653  0.0256  0.0374 -0.0263
  380loPI   C3B 6079  10.784   6.431   8.314 -0.0644 -0.3261 -0.2278
  380loPI   C4B 6080  11.067   6.740   8.104  0.0092  0.2018  0.2077
  381loPI    C1 6081   7.588   3.229   9.674  0.1536 -0.0717  0.1090
  381loPI    C2 6082   7.391   3.192  10.020  0.0083 -0.0987  0.0244
  381loPI    C3 6083   7.791   3.179  10.015  0.0155  0.0141  0.2050
  381loPI   PO4 6084   7.396   3.249   9.528 -0.2805  0.1186 -0.0064
  381loPI   GL1 6085   7.471   3.259   9.085  0.4045 -0.2927  0.3043
  381loPI   GL2 6086   7.716   3.126   9.089 -0.2163 -0.0720 -0.0414
  381loPI   C1A 6087   7.600   3.402   8.638 -0.1795  0.3541 -0.0501
  381loPI   C2A 6088   7.838   3.436   8.242  0.0452 -0.0309 -0.1758
  381loPI   C3A 6089   8.076   3.509   7.892 -0.2113  0.3457 -0.1169
  381loPI   C4A 6090   8.407   3.347   7.684  0.0962  0.2989  0.2250
  381loPI   C5A 6091   8.487   3.452   7.269 -0.0495  0.0162  0.2455
  381loPI   C6A 6092   8.744   3.683   7.117  0.0457  0.1805 -0.1100
  381loPI   C1B 6093   7.606   2.697   8.892  0.1071 -0.1236 -0.1533
  381loPI   C2B 6094   7.573   2.648   8.487 -0.1635 -0.2358 -0.1812
  381loPI   C3B 6095   7.552   2.708   8.147  0.0244  0.1511 -0.0211
  381loPI   C4B 6096   7.314   2.586   7.851 -0.0924 -0.0327  0.2570
  382loPI    C1 6097  11.233  12.515   9.681  0.0813 -0.0224 -0.0269
  382loPI    C2 6098  11.434  12.327   9.971 -0.1679  0.0928  0.2249
  382loPI    C3 6099  11.034  12.313   9.963 -0.1644  0.1187 -0.0964
  382loPI   PO4 6100  11.307  12.481   9.445 -0.0219 -0.0611  0.0631
  382loPI   GL1 6101  11.517  12.411   9.014  0.1785 -0.1377 -0.1390
  382loPI   GL2 6102  11.815  12.500   9.068 -0.1666  0.0619  0.3179
  382loPI   C1A 6103  11.489  12.047   8.639 -0.0161 -0.3219 -0.0644
  382loPI   C2A 6104  11.524  12.059   8.196 -0.1121 -0.0630  0.1286
  382loPI   C3A 6105  11.495  12.226   7.707 -0.2821 -0.2291 -0.2417
  382loPI   C4A 6106  11.830  12.436   7.515  0.1147 -0.1168  0.0826
  382loPI   C5A 6107  12.162  12.640   7.355 -0.1515  0.1307 -0.0029
  382loPI   C6A 6108  12.651  12.948   7.355 -0.0170 -0.3718 -0.2359
  382loPI   C1B 6109  11.815  12.591   8.640  0.0252  0.4233 -0.0392
  382loPI   C2B 6110  11.718  12.544   8.231 -0.2301 -0.2010  0.1114
  382loPI   C3B 6111  11.916  12.655   7.906  0.0623 -0.0030 -0.0919
  382loPI   C4B 6112  11.974  13.020   7.624 -0.2027 -0.0121 -0.0694
  383loPI    C1 6113   8.554   3.602   9.907  0.0599  0.2592 -0.2131
  383loPI    C2 6114   8.433   3.964  10.027  0.1046  0.1010  0.3387
  383loPI    C3 6115   8.695   3.758  10.248  0.0880 -0.2669  0.0255
  383loPI   PO4 6116   8.591   3.500   9.655 -0.1479 -0.0821 -0.1694
  383loPI   GL1 6117   8.618   3.655   9.177  0.0431  0.0164  0.0323
  383loPI   GL2 6118   8.810   3.371   9.193  0.3774 -0.0963  0.1368
  383loPI   C1A 6119   8.718   3.817   8.766  0.2145  0.3619  0.2749
  383loPI   C2A 6120   8.583   3.894   8.441  0.1193 -0.1316 -0.1065
  383loPI   C3A 6121   8.592   3.802   8.055  0.3152 -0.3691 -0.3405
  383loPI   C4A 6122   8.574   3.859   7.604  0.3118  0.1993  0.0725
  383loPI   C5A 6123   8.277   4.000   7.267 -0.0523  0.2322  0.4029
  383loPI   C6A 6124   7.906   4.220   7.246  0.0458 -0.2357  0.0501
  383loPI   C1B 6125   8.966   3.359   8.812  0.3262 -0.2321  0.2082
  383loPI   C2B 6126   8.959   3.393   8.496  0.0413  0.1086 -0.1362
  383loPI   C3B 6127   8.977   3.546   8.018  0.1384  0.0181  0.0254
  383loPI   C4B 6128   8.979   3.488   7.542  0.0967  0.2611  0.0393
  384loPI    C1 6129  12.530  18.357  10.473 -0.2722  0.3110  0.4781
  384loPI    C2 6130  12.139  18.270  10.471 -0.2031 -0.0271  0.0152
  384loPI    C3 6131  12.402  18.007  10.618 -0.1265  0.0901  0.0893
  384loPI   PO4 6132  12.600  18.389  10.224  0.1605 -0.0384  0.0903
  384loPI   GL1 6133  12.777  18.160   9.926 -0.1460 -0.0053 -0.0516
  384loPI   GL2 6134  12.823  18.467   9.778  0.1319 -0.2658 -0.3063
  384loPI   C1A 6135  12.597  18.065   9.509 -0.2107  0.2193  0.3221
  384loPI   C2A 6136  12.657  18.164   9.013 -0.2377  0.4014  0.1852
  384loPI   C3A 6137  12.532  17.829   8.619 -0.1484  0.1591  0.1915
  384loPI   C4A 6138  12.233  17.875   8.225  0.2170  0.2378  0.1967
  384loPI   C5A 6139  11.924  17.801   8.000 -0.0734  0.1713 -0.2510
  384loPI   C6A 6140  11.699  17.391   7.920 -0.0481  0.2817 -0.1744
  384loPI   C1B 6141  12.917  18.394   9.402 -0.3387 -0.0517 -0.3603
  384loPI   C2B 6142  13.009  18.615   9.067 -0.0721 -0.0058  0.0000
  384loPI   C3B 6143  13.197  18.785   8.724 -0.1480 -0.1569 -0.3401
  384loPI   C4B 6144  13.338  18.990   8.248 -0.2037 -0.4063  0.6070
  385loPI    C1 6145  11.425   0.984  10.076 -0.0276 -0.0359  0.1243
  385loPI    C2 6146  11.507   1.104  10.448 -0.1170  0.0836  0.1057
  385loPI    C3 6147  11.173   0.896  10.374 -0.0290 -0.0620  0.1155
  385loPI   PO4 6148  11.569   0.806   9.973  0.3078  0.0997 -0.1301
  385loPI   GL1 6149  11.344   0.786   9.540 -0.1763 -0.2862 -0.0205
  385loPI   GL2 6150  11.396   0.519   9.650  0.0687  0.1166  0.0439
  385loPI   C1A 6151  11.359   0.879   9.159 -0.2206  0.0645 -0.2238
  385loPI   C2A 6152  11.580   0.777   8.734 -0.2718  0.3541 -0.0657
  385loPI   C3A 6153  11.672   0.730   8.279  0.0901  0.2136 -0.3165
  385loPI   C4A 6154  11.682   0.458   7.899 -0.1833 -0.0411 -0.0395
  385loPI   C5A 6155  11.738   0.115   7.631 -0.0205  0.3007  0.5314
  385loPI   C6A 6156  12.111  -0.102   7.651  0.7016  0.0413 -0.2638
  385loPI   C1B 6157  11.711   0.452   9.350 -0.0287  0.1708 -0.0242
  385loPI   C2B 6158  11.788   0.333   8.938 -0.3393 -0.4873  0.1410
  385loPI   C3B 6159  11.785   0.310   8.526  0.1248  0.3963  0.1943
  385loPI   C4B 6160  11.968   0.140   8.124  0.0947 -0.0880 -0.3035
  386loPI    C1 6161   5.870   8.883   9.517 -0.1490 -0.0678 -0.0772
  386loPI    C2 6162   6.119   8.630   9.702 -0.3101 -0.1708  0.0018
  386loPI    C3 6163   5.856   8.842   9.915 -0.2554 -0.0231 -0.0761
  386loPI   PO4 6164   6.005   8.961   9.315  0.3572 -0.1086  0.2896
  386loPI   GL1 6165   5.778   9.221   8.948 -0.2208  0.0175  0.1830
  386loPI   GL2 6166   5.790   9.099   8.637  0.1735 -0.2972 -0.0048
  386loPI   C1A 6167   5.405   9.435   8.691  0.3618 -0.0948  0.1764
  386loPI   C2A 6168   5.089   9.479   8.390 -0.0978 -0.0539 -0.2445
  386loPI   C3A 6169   5.037   9.186   8.022  0.0544 -0.3147 -0.3526
  386loPI   C4A 6170   5.051   9.350   7.583 -0.0215  0.3062 -0.5950
  386loPI   C5A 6171   5.405   9.453   7.247  0.2152  0.1642 -0.0160
  386loPI   C6A 6172   5.688   9.402   6.983  0.1967 -0.0133 -0.2439
  386loPI   C1B 6173   5.931   8.897   8.366 -0.1603  0.3150 -0.0673
  386loPI   C2B 6174   6.141   8.916   7.902  0.2813  0.0248 -0.0631
  386loPI   C3B 6175   6.187   8.683   7.553 -0.2632  0.0196  0.0974
  386loPI   C4B 6176   6.156   8.347   7.381 -0.0077 -0.0296  0.0373
  387loPI    C1 6177  17.062   2.370  10.237 -0.1146  0.2158 -0.1260
  387loPI    C2 6178  17.252   2.722  10.239  0.2574  0.0212 -0.1566
  387loPI    C3 6179  17.352   2.440  10.504 -0.1946  0.0147  0.0160
  387loPI   PO4 6180  17.059   2.331  10.048  0.3091  0.2146 -0.1467
  387loPI   GL1 6181  16.851   2.650   9.773 -0.2879 -0.1315  0.0635
  387loPI   GL2 6182  16.964   2.960   9.778  0.0689  0.0674 -0.1719
  387loPI   C1A 6183  16.977   2.577   9.363 -0.1004 -0.0901  0.1251
  387loPI   C2A 6184  17.206   2.499   8.988  0.1849  0.0785  0.0047
  387loPI   C3A 6185  17.261   2.325   8.558  0.1367 -0.0654 -0.1385
  387loPI   C4A 6186  17.304   2.218   8.091 -0.2174 -0.0144  0.4640
  387loPI   C5A 6187  17.486   1.976   7.856  0.0274 -0.1167  0.4407
  387loPI   C6A 6188  17.944   1.923   7.704  0.0092 -0.0262 -0.1648
  387loPI   C1B 6189  17.004   3.053   9.299  0.0701  0.2284  0.0072
  387loPI   C2B 6190  17.149   2.962   8.868 -0.0569 -0.0850  0.0097
  387loPI   C3B 6191  17.193   3.020   8.418  0.0711 -0.0490  0.0387
  387loPI   C4B 6192  17.015   2.686   8.115 -0.0315 -0.0325  0.0061
  388loPI    C1 6193   3.393   6.405   9.899  0.2447  0.1627  0.1186
  388loPI    C2 6194   3.547   6.121  10.135  0.2832  0.0626 -0.0257
  388loPI    C3 6195   3.158   6.214  10.160  0.2770  0.0188  0.0430
  388loPI   PO4 6196   3.543   6.366   9.644  0.0965 -0.0971  0.4431
  388loPI   GL1 6197   3.470   6.357   9.198  0.0915 -0.2570 -0.2646
  388loPI   GL2 6198   3.850   6.213   9.145 -0.2513 -0.2177 -0.0253
  388loPI   C1A 6199   3.727   6.532   8.813  0.0790  0.1384 -0.0295
  388loPI   C2A 6200   3.867   6.615   8.383 -0.1896 -0.1758 -0.1069
  388loPI   C3A 6201   3.760   6.405   8.070  0.3319 -0.1292  0.0352
  388loPI   C4A 6202   3.829   6.284   7.665  0.0437  0.1671  0.2708
  388loPI   C5A 6203   3.806   6.040   7.304 -0.1366  0.0471 -0.0924
  388loPI   C6A 6204   3.653   5.922   6.867  0.0517 -0.0254  0.0530
  388loPI   C1B 6205   3.662   6.013   8.842  0.0922  0.0993  0.0194
  388loPI   C2B 6206   3.634   6.038   8.379  0.0279 -0.4538 -0.0012
  388loPI   C3B 6207   3.625   5.931   7.941 -0.1471  0.0414 -0.2665
  388loPI   C4B 6208   3.628   5.562   7.730  0.1916 -0.1111 -0.2580
  389loPI    C1 6209   4.488  11.786   9.709 -0.0672  0.0021  0.1738
  389loPI    C2 6210   4.255  12.099   9.620 -0.0412 -0.0074  0.0713
  389loPI    C3 6211   4.339  12.014  10.002 -0.1815  0.0138  0.1071
  389loPI   PO4 6212   4.525  11.720   9.464 -0.3514  0.1951  0.0063
  389loPI   GL1 6213   4.519  11.945   9.151  0.0815  0.0976  0.0930
  389loPI   GL2 6214   4.712  11.941   8.896 -0.2667  0.2628  0.1111
  389loPI   C1A 6215   4.227  12.223   8.871  0.0977 -0.1393 -0.0303
  389loPI   C2A 6216   4.013  12.533   8.611 -0.0147  0.1798  0.0792
  389loPI   C3A 6217   4.199  12.747   8.292 -0.2887 -0.0840  0.0199
  389loPI   C4A 6218   4.320  13.207   8.182 -0.0423 -0.2233  0.0423
  389loPI   C5A 6219   4.083  13.419   7.970 -0.0736 -0.0712 -0.1756
  389loPI   C6A 6220   3.972  13.482   7.584  0.2224  0.4308 -0.3409
  389loPI   C1B 6221   4.782  12.001   8.474  0.1562  0.0931  0.0834
  389loPI   C2B 6222   4.715  11.971   8.000 -0.1253 -0.2674  0.0676
  389loPI   C3B 6223   4.758  11.661   7.704 -0.0243 -0.0998  0.0917
  389loPI   C4B 6224   4.668  11.523   7.321  0.1604  0.1120 -0.0000
  390loPI    C1 6225   8.713   2.467   9.981 -0.1163  0.0234  0.0318
  390loPI    C2 6226   8.878   2.797  10.136  0.1025  0.0315 -0.2122
  390loPI    C3 6227   8.795   2.485  10.372 -0.0885  0.2516  0.0166
  390loPI   PO4 6228   8.583   2.606   9.746 -0.1169  0.0204  0.2514
  390loPI   GL1 6229   8.390   2.924   9.417 -0.0079  0.1290 -0.0641
  390loPI   GL2 6230   8.730   2.785   9.301 -0.1730  0.0379  0.0009
  390loPI   C1A 6231   8.167   2.810   9.033 -0.1316  0.1132  0.0297
  390loPI   C2A 6232   7.949   2.993   8.607  0.1994  0.3212  0.2739
  390loPI   C3A 6233   7.989   3.010   8.071 -0.1275 -0.0063  0.1160
  390loPI   C4A 6234   7.644   3.055   7.789 -0.0633 -0.1336 -0.0701
  390loPI   C5A 6235   7.440   3.436   7.574 -0.3217  0.2601 -0.0197
  390loPI   C6A 6236   7.258   3.777   7.267 -0.0843  0.2933 -0.3658
  390loPI   C1B 6237   8.656   2.935   8.950  0.0353 -0.0348  0.4180
  390loPI   C2B 6238   8.862   2.892   8.524 -0.1836 -0.2782 -0.0991
  390loPI   C3B 6239   9.107   2.827   8.098 -0.1270  0.3027  0.2578
  390loPI   C4B 6240   9.231   2.907   7.631 -0.2943  0.4149 -0.1416
  391loPI    C1 6241   5.176   3.870  10.067 -0.1418  0.4029 -0.0792
  391loPI    C2 6242   5.562   3.817  10.156 -0.2419 -0.0632  0.1081
  391loPI    C3 6243   5.454   4.101   9.895  0.2134  0.1441  0.1348
  391loPI   PO4 6244   5.104   3.532  10.019  0.1497  0.1075  0.2487
  391loPI   GL1 6245   5.175   3.415   9.637 -0.0093  0.2108  0.0781
  391loPI   GL2 6246   5.109   3.260   9.497  0.4420  0.4137  0.3105
  391loPI   C1A 6247   5.511   3.491   9.270  0.0826 -0.0682 -0.0461
  391loPI   C2A 6248   5.451   3.488   8.784  0.3347 -0.0650  0.0595
  391loPI   C3A 6249   5.213   3.143   8.520 -0.1957  0.1450 -0.0140
  391loPI   C4A 6250   5.206   3.130   8.107 -0.2362 -0.2304  0.1798
  391loPI   C5A 6251   5.132   3.119   7.589 -0.1084  0.1923 -0.1494
  391loPI   C6A 6252   4.781   3.309   7.256  0.2026  0.1769 -0.2779
  391loPI   C1B 6253   4.840   3.273   9.118 -0.0062  0.5156  0.0378
  391loPI   C2B 6254   4.768   3.285   8.680  0.3944  0.1730  0.1878
  391loPI   C3B 6255   4.771   3.359   8.200  0.0028  0.2122  0.1052
  391loPI   C4B 6256   4.747   3.586   7.764 -0.1390  0.1099  0.0837
  392loPI    C1 6257  17.420   3.755  10.471  0.2457 -0.0023 -0.0721
  392loPI    C2 6258  17.771   3.772  10.663  0.2992 -0.0322 -0.1665
  392loPI    C3 6259  17.430   3.747  10.871  0.3530 -0.0030 -0.0745
  392loPI   PO4 6260  17.432   3.627  10.222 -0.0451 -0.1695  0.4575
  392loPI   GL1 6261  17.189   3.658   9.823 -0.1008 -0.0990 -0.1193
  392loPI   GL2 6262  17.079   3.980   9.730  0.2935  0.1895 -0.1163
  392loPI   C1A 6263  17.326   3.280   9.634 -0.0321 -0.1142 -0.4309
  392loPI   C2A 6264  17.447   3.232   9.171 -0.2933 -0.3527  0.1058
  392loPI   C3A 6265  17.557   3.306   8.716  0.0292 -0.0521  0.0914
  392loPI   C4A 6266  17.675   3.271   8.245 -0.0993 -0.0809  0.1508
  392loPI   C5A 6267  17.931   3.131   7.925  0.1225  0.1262 -0.0747
  392loPI   C6A 6268  18.270   3.380   7.901 -0.0598 -0.0051  0.1497
  392loPI   C1B 6269  17.129   4.026   9.188 -0.0430  0.1650  0.1582
  392loPI   C2B 6270  17.062   3.981   8.734  0.3151 -0.0173  0.2333
  392loPI   C3B 6271  17.046   3.986   8.282  0.0921  0.1343  0.1317
  392loPI   C4B 6272  17.248   3.958   7.828 -0.2491 -0.0238 -0.2002
  393loPI    C1 6273  10.643  17.648  10.299  0.1193 -0.0560  0.0792
  393loPI    C2 6274  10.265  17.557  10.393  0.0380  0.1997  0.0099
  393loPI    C3 6275  10.491  17.762  10.651  0.1263  0.0600  0.0451
  393loPI   PO4 6276  10.618  17.741   9.979 -0.2908  0.1480 -0.0640
  393loPI   GL1 6277  10.727  17.632   9.651  0.0651 -0.2381 -0.0241
  393loPI   GL2 6278  10.391  17.413   9.506 -0.0079 -0.2406 -0.1747
  393loPI   C1A 6279  10.834  17.865   9.233  0.0430 -0.2026  0.2121
  393loPI   C2A 6280  10.820  17.922   8.825 -0.1301 -0.1109  0.0233
  393loPI   C3A 6281  10.847  17.854   8.400 -0.0405 -0.0200  0.0915
  393loPI   C4A 6282  10.946  17.925   8.035 -0.0212 -0.2359  0.1072
  393loPI   C5A 6283  11.052  18.040   7.662 -0.1624  0.3060 -0.0349
  393loPI   C6A 6284  11.383  18.185   7.303 -0.0216  0.1388 -0.0759
  393loPI   C1B 6285  10.591  17.355   9.062 -0.2820  0.0068 -0.0329
  393loPI   C2B 6286  10.485  17.124   8.689 -0.1520  0.0145  0.1553
  393loPI   C3B 6287  10.634  17.005   8.347  0.0413  0.1978 -0.0202
  393loPI   C4B 6288  10.457  17.165   8.033  0.2253 -0.1132  0.1781
  394loPI    C1 6289   9.647   9.256  10.117  0.0657  0.2190 -0.0205
  394loPI    C2 6290  10.043   9.300  10.155  0.0868  0.1840 -0.1888
  394loPI    C3 6291   9.841   9.072  10.414  0.2214 -0.0336 -0.2735
  394loPI   PO4 6292   9.593   9.448   9.843 -0.3919  0.4715 -0.2094
  394loPI   GL1 6293   9.853   9.440   9.465 -0.0590  0.2995  0.0544
  394loPI   GL2 6294  10.197   9.427   9.289  0.0632  0.2927  0.1171
  394loPI   C1A 6295   9.842   9.448   8.961  0.3646  0.1130 -0.3072
  394loPI   C2A 6296  10.020   9.196   8.570  0.3996  0.0263 -0.0177
  394loPI   C3A 6297  10.230   9.342   8.215 -0.2904 -0.0532 -0.2403
  394loPI   C4A 6298  10.220   9.790   8.030 -0.4014  0.2461  0.1419
  394loPI   C5A 6299  10.144  10.020   7.702  0.1718 -0.1652  0.1085
  394loPI   C6A 6300   9.971  10.234   7.419 -0.4766 -0.0538  0.1742
  394loPI   C1B 6301  10.427   9.191   8.912  0.0822  0.1466  0.1189
  394loPI   C2B 6302  10.609   9.378   8.591 -0.1562  0.1253 -0.3444
  394loPI   C3B 6303  10.636   9.685   8.250  0.0802 -0.1549 -0.0672
  394loPI   C4B 6304  10.646   9.980   7.846  0.2366  0.3173  0.1325
  395loPI    C1 6305  16.612   2.112  10.489  0.2987 -0.1189  0.2177
  395loPI    C2 6306  16.425   2.454  10.579 -0.0206 -0.2709  0.1441
  395loPI    C3 6307  16.813   2.410  10.665  0.0766  0.1860 -0.0321
  395loPI   PO4 6308  16.411   2.035  10.256 -0.0074 -0.2201 -0.0238
  395loPI   GL1 6309  16.643   2.079   9.874  0.0519 -0.0539 -0.2131
  395loPI   GL2 6310  16.732   1.840   9.813  0.1376  0.0316 -0.2335
  395loPI   C1A 6311  16.653   2.225   9.492  0.0997  0.1325 -0.1744
  395loPI   C2A 6312  16.748   2.157   9.019 -0.0313  0.3531 -0.0179
  395loPI   C3A 6313  16.604   2.005   8.689 -0.4358 -0.2052  0.2877
  395loPI   C4A 6314  16.563   1.569   8.471  0.0031 -0.4121  0.0531
  395loPI   C5A 6315  16.681   1.301   8.082  0.1618  0.1712 -0.0514
  395loPI   C6A 6316  16.486   1.033   7.796 -0.3465 -0.0468  0.1333
  395loPI   C1B 6317  16.505   1.775   9.447 -0.1921 -0.1797  0.0240
  395loPI   C2B 6318  16.395   1.773   9.090  0.0306  0.1890 -0.0262
  395loPI   C3B 6319  16.143   1.624   8.773 -0.1019  0.0686  0.0231
  395loPI   C4B 6320  15.773   1.392   8.617 -0.1387 -0.0391  0.2004
  396loPI    C1 6321   6.388  11.970   9.565  0.0775  0.0621  0.0966
  396loPI    C2 6322   6.161  11.653   9.656  0.0959 -0.0135 -0.1166
  396loPI    C3 6323   6.549  11.655   9.753  0.0711 -0.0088 -0.0162
  396loPI   PO4 6324   6.310  12.066   9.349 -0.0174  0.0292 -0.0736
  396loPI   GL1 6325   6.388  12.086   8.934 -0.0497 -0.3297  0.0786
  396loPI   GL2 6326   6.405  11.829   8.726 -0.1983  0.2429 -0.1586
  396loPI   C1A 6327   6.176  12.502   8.730 -0.1595 -0.2300 -0.3805
  396loPI   C2A 6328   6.063  12.768   8.375  0.0996  0.1966  0.2614
  396loPI   C3A 6329   6.005  12.717   8.005  0.2060  0.5296  0.3646
  396loPI   C4A 6330   5.936  12.627   7.620 -0.1677 -0.0709  0.0931
  396loPI   C5A 6331   5.820  12.884   7.334  0.4541 -0.2408 -0.2127
  396loPI   C6A 6332   5.607  13.307   7.227  0.2730  0.0206  0.2269
  396loPI   C1B 6333   6.414  12.135   8.319 -0.1267 -0.3433  0.2485
  396loPI   C2B 6334   6.432  12.530   8.185  0.2041  0.0434  0.0831
  396loPI   C3B 6335   6.437  12.703   7.793  0.0968 -0.0330  0.1164
  396loPI   C4B 6336   6.771  12.743   7.485 -0.4716  0.0994 -0.1615
  397loPI    C1 6337  10.516   6.366   9.523  0.0453  0.3378  0.1682
  397loPI    C2 6338  10.673   6.069   9.739  0.1791  0.2100 -0.1006
  397loPI    C3 6339  10.316   6.220   9.837  0.0400 -0.1423 -0.0499
  397loPI   PO4 6340  10.784   6.559   9.469  0.2241 -0.0471  0.2556
  397loPI   GL1 6341  10.753   6.876   9.222 -0.1195 -0.2383  0.2161
  397loPI   GL2 6342  10.422   6.930   9.367  0.3189 -0.2380 -0.2015
  397loPI   C1A 6343  10.940   6.733   8.796 -0.3218  0.3176  0.1985
  397loPI   C2A 6344  11.299   6.671   8.621 -0.2035 -0.2481  0.1037
  397loPI   C3A 6345  11.664   6.457   8.701 -0.0615 -0.1377 -0.2954
  397loPI   C4A 6346  12.042   6.314   8.523  0.0692 -0.0141 -0.2530
  397loPI   C5A 6347  12.122   6.345   8.122 -0.1324 -0.1676  0.0934
  397loPI   C6A 6348  12.321   6.387   7.710 -0.5676 -0.0998 -0.2320
  397loPI   C1B 6349  10.381   6.788   8.865 -0.0044  0.1500 -0.0521
  397loPI   C2B 6350  10.259   6.659   8.475  0.0735  0.0760  0.1540
  397loPI   C3B 6351   9.928   6.421   8.327  0.1902  0.0686 -0.0241
  397loPI   C4B 6352   9.652   6.496   7.904 -0.1932  0.2462 -0.4872
  398loPI    C1 6353  15.649  15.540  10.283 -0.1330 -0.1280 -0.2439
  398loPI    C2 6354  15.486  15.853  10.472  0.1740 -0.0859 -0.0415
  398loPI    C3 6355  15.275  15.517  10.423  0.0671 -0.0758  0.3249
  398loPI   PO4 6356  15.715  15.616  10.074 -0.1570  0.4400  0.1641
  398loPI   GL1 6357  15.834  15.922   9.750 -0.0532 -0.1074  0.0051
  398loPI   GL2 6358  15.625  15.852   9.636 -0.0265  0.0319  0.1070
  398loPI   C1A 6359  16.098  15.769   9.440 -0.0216  0.0024 -0.0095
  398loPI   C2A 6360  16.112  15.478   9.052  0.1556  0.2203  0.0100
  398loPI   C3A 6361  16.381  15.266   8.714 -0.1025 -0.0790 -0.1771
  398loPI   C4A 6362  16.401  15.357   8.273  0.1930  0.3847 -0.0979
  398loPI   C5A 6363  16.389  15.471   7.963  0.3897 -0.1671 -0.1856
  398loPI   C6A 6364  16.471  15.720   7.660 -0.0975  0.0708 -0.0007
  398loPI   C1B 6365  15.620  15.751   9.227  0.2038  0.0960  0.3605
  398loPI   C2B 6366  15.819  15.817   8.836 -0.0115 -0.2102 -0.1826
  398loPI   C3B 6367  16.046  15.675   8.372  0.3963 -0.1713 -0.3677
  398loPI   C4B 6368  15.696  15.689   7.980 -0.0689  0.2946  0.1261
  399loPI    C1 6369  18.210  12.562  10.348  0.1087  0.0847  0.2996
  399loPI    C2 6370  17.834  12.665  10.259  0.1185 -0.2310 -0.1475
  399loPI    C3 6371  17.945  12.622  10.641 -0.2767 -0.0664 -0.0083
  399loPI   PO4 6372  18.386  12.352  10.153 -0.0311  0.2208  0.0965
  399loPI   GL1 6373  18.402  12.265   9.766 -0.0856 -0.1251  0.0080
  399loPI   GL2 6374  18.746  12.368   9.795 -0.2384 -0.0179  0.0530
  399loPI   C1A 6375  18.312  12.439   9.432  0.0508  0.0423 -0.1995
  399loPI   C2A 6376  17.995  12.522   9.023  0.1290 -0.0338  0.0846
  399loPI   C3A 6377  17.914  12.261   8.584  0.2604 -0.2215  0.0475
  399loPI   C4A 6378  18.026  12.031   8.213 -0.0651 -0.2163 -0.0596
  399loPI   C5A 6379  18.278  11.718   8.152  0.0362  0.0902  0.0635
  399loPI   C6A 6380  18.203  11.278   8.192  0.2862  0.0605 -0.0424
  399loPI   C1B 6381  18.790  12.533   9.378 -0.3422  0.3743  0.1705
  399loPI   C2B 6382  18.907  12.721   8.907  0.4049 -0.0094 -0.0171
  399loPI   C3B 6383  19.069  12.976   8.580 -0.2174  0.1120 -0.0006
  399loPI   C4B 6384  18.937  13.308   8.459 -0.2287 -0.1841  0.2800
  400loPI    C1 6385   7.477   9.329   9.196  0.0213  0.0842 -0.1955
  400loPI    C2 6386   7.323   9.639   9.397  0.0661  0.0541 -0.1141
  400loPI    C3 6387   7.418   9.303   9.591 -0.0694 -0.0448 -0.2171
  400loPI   PO4 6388   7.603   9.459   8.997  0.2690  0.0950  0.0767
  400loPI   GL1 6389   7.528   9.396   8.617 -0.0728 -0.0937  0.2125
  400loPI   GL2 6390   7.539   9.115   8.451  0.2526  0.3479 -0.0180
  400loPI   C1A 6391   7.887   9.572   8.451  0.1156  0.2163 -0.4696
  400loPI   C2A 6392   8.155   9.907   8.259 -0.1837  0.1375  0.1960
  400loPI   C3A 6393   8.214   9.934   7.953 -0.1440 -0.1023  0.0896
  400loPI   C4A 6394   8.099   9.695   7.560 -0.2131 -0.1336 -0.0463
  400loPI   C5A 6395   8.427   9.532   7.294 -0.2171 -0.1764  0.2439
  400loPI   C6A 6396   8.920   9.619   7.252  0.3069  0.1590 -0.1896
  400loPI   C1B 6397   7.588   8.674   8.269  0.3151 -0.1168 -0.2797
  400loPI   C2B 6398   7.533   8.487   7.882 -0.0484 -0.1154  0.0357
  400loPI   C3B 6399   7.542   8.067   7.763  0.0734  0.0601  0.0154
  400loPI   C4B 6400   7.738   7.747   7.394 -0.1266 -0.0926  0.0942
  401loPI    C1 6401   3.255  16.054   9.662 -0.0474  0.0549 -0.1623
  401loPI    C2 6402   3.582  16.171   9.861 -0.1260  0.0469 -0.0272
  401loPI    C3 6403   3.404  16.421   9.605  0.1051 -0.0209 -0.2585
  401loPI   PO4 6404   3.286  15.763   9.586 -0.0791 -0.0338  0.0217
  401loPI   GL1 6405   3.558  15.765   9.200 -0.2838 -0.4090  0.1388
  401loPI   GL2 6406   3.595  16.120   9.281  0.4267 -0.0155 -0.1375
  401loPI   C1A 6407   3.372  15.997   8.825  0.0314  0.2440 -0.0954
  401loPI   C2A 6408   3.198  16.008   8.291 -0.0044 -0.0657  0.2757
  401loPI   C3A 6409   3.104  16.050   7.893 -0.2885 -0.1335  0.0066
  401loPI   C4A 6410   2.966  16.415   7.776 -0.2545 -0.2719 -0.0820
  401loPI   C5A 6411   2.691  16.310   7.554 -0.0398 -0.0325  0.3149
  401loPI   C6A 6412   2.259  16.286   7.503 -0.1970  0.3378 -0.0210
  401loPI   C1B 6413   3.803  16.266   8.928  0.2169  0.0653  0.1835
  401loPI   C2B 6414   3.635  16.293   8.471 -0.1224 -0.0314  0.2337
  401loPI   C3B 6415   3.555  16.277   7.994 -0.3624 -0.1238  0.3118
  401loPI   C4B 6416   3.489  16.300   7.523  0.1308 -0.0044  0.2690
  402loPI    C1 6417   1.968   2.706   9.824 -0.0750  0.3160  0.0384
  402loPI    C2 6418   1.765   2.618  10.157  0.0418 -0.2247 -0.0249
  402loPI    C3 6419   1.618   2.513   9.800  0.0374  0.1289 -0.1305
  402loPI   PO4 6420   2.082   2.960   9.711 -0.1033 -0.2320 -0.2515
  402loPI   GL1 6421   1.976   3.113   9.269  0.2079  0.2822 -0.1364
  402loPI   GL2 6422   1.797   3.421   9.183  0.2263 -0.0697  0.3424
  402loPI   C1A 6423   2.023   3.148   8.869  0.1184  0.2855 -0.2702
  402loPI   C2A 6424   1.932   3.196   8.434 -0.1233  0.5396  0.1229
  402loPI   C3A 6425   1.800   3.084   8.081 -0.0286  0.1584 -0.1473
  402loPI   C4A 6426   2.110   3.044   7.744 -0.1268  0.0576 -0.0440
  402loPI   C5A 6427   2.288   2.711   7.509  0.0280 -0.0666  0.0538
  402loPI   C6A 6428   2.174   2.239   7.520 -0.0362  0.2679  0.4791
  402loPI   C1B 6429   1.690   3.616   8.785 -0.1435  0.2124  0.1840
  402loPI   C2B 6430   1.607   3.593   8.361 -0.1213  0.1733 -0.3031
  402loPI   C3B 6431   1.415   3.469   7.953  0.0563  0.0253 -0.2080
  402loPI   C4B 6432   1.155   3.558   7.644 -0.2474  0.0079 -0.2556
  403loPI    C1 6433  14.442  14.349   9.753 -0.0455 -0.1543 -0.2387
  403loPI    C2 6434  14.741  14.405   9.493  0.0597  0.1896 -0.0502
  403loPI    C3 6435  14.821  14.353   9.881 -0.1171  0.0754 -0.0276
  403loPI   PO4 6436  14.186  14.273   9.614 -0.3257 -0.3609 -0.0790
  403loPI   GL1 6437  14.108  14.354   9.242  0.0364  0.0498  0.0145
  403loPI   GL2 6438  13.775  14.520   9.326 -0.0522 -0.0254  0.2520
  403loPI   C1A 6439  14.003  14.139   8.827  0.1159 -0.2510  0.1544
  403loPI   C2A 6440  14.064  13.945   8.493 -0.0447  0.2444 -0.1322
  403loPI   C3A 6441  14.348  13.694   8.241 -0.2894 -0.0165  0.1667
  403loPI   C4A 6442  14.744  13.800   8.165  0.2863  0.0471  0.1171
  403loPI   C5A 6443  15.034  13.944   7.944 -0.1203 -0.4148  0.1842
  403loPI   C6A 6444  15.400  13.954   7.626  0.1015 -0.2675 -0.0059
  403loPI   C1B 6445  13.687  14.548   8.888 -0.1016 -0.2528  0.1445
  403loPI   C2B 6446  13.936  14.545   8.462 -0.2192 -0.0747  0.2088
  403loPI   C3B 6447  14.102  14.843   8.078  0.0855  0.1529  0.0136
  403loPI   C4B 6448  14.303  14.702   7.733 -0.1558 -0.0404  0.0861
  404loPI    C1 6449  17.910  10.718  10.668  0.1144  0.1127 -0.0612
  404loPI    C2 6450  18.164  11.025  10.698  0.1183  0.0999  0.0371
  404loPI    C3 6451  17.858  10.992  10.953  0.2904 -0.1377  0.2177
  404loPI   PO4 6452  17.886  10.695  10.340 -0.0031  0.2635  0.0922
  404loPI   GL1 6453  18.142  10.727   9.912  0.2461  0.0298 -0.2638
  404loPI   GL2 6454  18.072  10.432   9.960 -0.3127 -0.0664  0.4647
  404loPI   C1A 6455  17.924  10.952   9.609 -0.2807  0.1781  0.0689
  404loPI   C2A 6456  17.891  10.898   9.273 -0.1190  0.0907 -0.1080
  404loPI   C3A 6457  17.874  10.955   8.932 -0.0724  0.1492 -0.0514
  404loPI   C4A 6458  17.956  10.935   8.508 -0.1283  0.1016  0.2466
  404loPI   C5A 6459  17.773  10.953   8.052  0.1402 -0.1391 -0.1902
  404loPI   C6A 6460  17.396  11.033   7.900 -0.0318 -0.2916 -0.0390
  404loPI   C1B 6461  18.284  10.394   9.578 -0.0467  0.0551 -0.0811
  404loPI   C2B 6462  18.317  10.619   9.207 -0.2776  0.3925 -0.0917
  404loPI   C3B 6463  18.355  10.810   8.795 -0.1158 -0.0773  0.2035
  404loPI   C4B 6464  18.367  10.735   8.288  0.1278  0.2235  0.2244
  405loPI    C1 6465   9.173   3.598  10.205 -0.2064  0.1400 -0.0529
  405loPI    C2 6466   8.899   3.313  10.150  0.0154 -0.1073  0.0989
  405loPI    C3 6467   8.989   3.435  10.520 -0.1772  0.2623  0.0285
  405loPI   PO4 6468   9.142   3.697   9.975  0.2741  0.1755  0.2075
  405loPI   GL1 6469   9.251   3.921   9.612 -0.0029 -0.4624 -0.2390
  405loPI   GL2 6470   9.462   4.097   9.442  0.2022 -0.1325  0.1307
  405loPI   C1A 6471   9.138   3.807   9.190 -0.0759  0.1047 -0.0707
  405loPI   C2A 6472   9.209   3.868   8.755 -0.1260 -0.2029 -0.2983
  405loPI   C3A 6473   9.230   3.824   8.378  0.0563  0.0500  0.0901
  405loPI   C4A 6474   9.498   3.844   8.069 -0.3558 -0.3512 -0.4127
  405loPI   C5A 6475   9.611   4.208   7.749  0.2169 -0.0525 -0.0742
  405loPI   C6A 6476   9.541   4.288   7.281 -0.1783  0.0981  0.0926
  405loPI   C1B 6477   9.634   3.790   9.044  0.1806 -0.1914 -0.2573
  405loPI   C2B 6478   9.704   3.914   8.595  0.0647  0.1451 -0.0967
  405loPI   C3B 6479   9.449   4.242   8.474 -0.3661 -0.2832  0.1047
  405loPI   C4B 6480   9.337   4.564   8.220  0.1345 -0.0261  0.2699
  406loPI    C1 6481  17.866   6.431   9.636 -0.3199 -0.0197 -0.2722
  406loPI    C2 6482  17.660   6.131   9.801  0.2304 -0.2094  0.0980
  406loPI    C3 6483  17.955   6.052   9.543  0.0577  0.0434 -0.1829
  406loPI   PO4 6484  17.664   6.605   9.605 -0.0380 -0.0781 -0.1882
  406loPI   GL1 6485  17.171   6.438   9.507 -0.0278 -0.2530 -0.1055
  406loPI   GL2 6486  17.178   6.163   9.656 -0.1983 -0.2035 -0.0856
  406loPI   C1A 6487  17.321   6.207   9.132  0.2972 -0.1171  0.0043
  406loPI   C2A 6488  17.464   6.318   8.776  0.1045  0.1338 -0.1330
  406loPI   C3A 6489  17.259   6.408   8.501 -0.1849 -0.0059  0.1876
  406loPI   C4A 6490  16.911   6.627   8.268 -0.0570 -0.1896 -0.1191
  406loPI   C5A 6491  16.471   6.701   8.146  0.3190  0.2845 -0.0551
  406loPI   C6A 6492  16.138   6.497   8.010 -0.2914 -0.0480  0.1471
  406loPI   C1B 6493  16.687   6.330   9.426  0.3348 -0.1350  0.0690
  406loPI   C2B 6494  16.333   6.468   9.288 -0.0451  0.0025 -0.2347
  406loPI   C3B 6495  16.006   6.329   9.004  0.1437  0.0255 -0.1755
  406loPI   C4B 6496  15.768   6.014   8.875  0.0488  0.2732  0.0813
  407loPI    C1 6497  13.699  15.684  10.128 -0.0187  0.0524  0.0683
  407loPI    C2 6498  13.712  15.710  10.527 -0.1310  0.2229  0.0619
  407loPI    C3 6499  13.627  15.360  10.351 -0.0148  0.1318  0.1854
  407loPI   PO4 6500  13.861  15.805  10.000 -0.0548 -0.3781  0.1875
  407loPI   GL1 6501  13.943  16.023   9.590 -0.4201 -0.3006  0.2588
  407loPI   GL2 6502  13.612  15.935   9.556 -0.2371 -0.1885 -0.0269
  407loPI   C1A 6503  14.086  16.086   9.273  0.0403  0.1372  0.2351
  407loPI   C2A 6504  13.909  16.085   8.877 -0.1334 -0.0812  0.0221
  407loPI   C3A 6505  13.735  16.453   8.416  0.0497  0.3114 -0.1882
  407loPI   C4A 6506  13.716  16.571   7.956 -0.1632  0.3630 -0.0102
  407loPI   C5A 6507  13.950  16.554   7.623  0.1188 -0.1141 -0.0478
  407loPI   C6A 6508  14.304  16.807   7.520  0.3115 -0.2864 -0.2435
  407loPI   C1B 6509  13.788  15.709   9.242  0.2119 -0.0849  0.0330
  407loPI   C2B 6510  13.907  15.519   8.761 -0.1750 -0.0375 -0.0909
  407loPI   C3B 6511  13.922  15.699   8.322  0.2283 -0.2246  0.0907
  407loPI   C4B 6512  13.783  15.538   7.895 -0.4686  0.0890 -0.1716
  408loPI    C1 6513   2.547  13.729  10.413  0.0647  0.0656  0.0729
  408loPI    C2 6514   2.827  13.555  10.639 -0.1126  0.0422  0.2775
  408loPI    C3 6515   2.744  13.944  10.686  0.1060  0.1267 -0.0045
  408loPI   PO4 6516   2.534  13.644  10.136 -0.0038 -0.0034  0.3964
  408loPI   GL1 6517   2.387  13.722   9.818  0.0373  0.1465  0.3343
  408loPI   GL2 6518   2.270  13.956   9.676 -0.0174  0.0224 -0.2418
  408loPI   C1A 6519   2.589  13.520   9.429  0.2823 -0.0743  0.1656
  408loPI   C2A 6520   2.577  13.588   8.999  0.0629 -0.3045 -0.2443
  408loPI   C3A 6521   2.507  13.658   8.593  0.0930  0.2535 -0.4761
  408loPI   C4A 6522   2.594  13.661   8.106  0.1594 -0.0495  0.0796
  408loPI   C5A 6523   2.489  13.662   7.766 -0.0869  0.0338  0.0491
  408loPI   C6A 6524   2.173  13.628   7.485  0.2754  0.1903  0.1293
  408loPI   C1B 6525   2.508  14.014   9.289 -0.3312 -0.2028  0.1640
  408loPI   C2B 6526   2.452  14.124   8.888 -0.0718 -0.1040  0.0083
  408loPI   C3B 6527   2.506  14.189   8.451 -0.1120 -0.1522  0.2098
  408loPI   C4B 6528   2.282  14.056   8.104 -0.1935 -0.0105 -0.0083
  409loPI    C1 6529   0.964   5.260   9.621 -0.0364 -0.0276 -0.1529
  409loPI    C2 6530   0.904   5.321  10.011 -0.0156 -0.0205 -0.1507
  409loPI    C3 6531   0.779   4.982   9.840 -0.2342  0.0760 -0.1860
  409loPI   PO4 6532   0.917   5.492   9.539 -0.1623 -0.3040  0.4040
  409loPI   GL1 6533   1.118   5.686   9.207  0.0590  0.2194  0.1537
  409loPI   GL2 6534   1.081   5.340   9.106 -0.1212  0.0568  0.0334
  409loPI   C1A 6535   1.222   5.847   8.780 -0.1799 -0.0865 -0.1549
  409loPI   C2A 6536   0.946   5.947   8.380  0.0637 -0.1123 -0.1385
  409loPI   C3A 6537   1.166   6.079   8.009  0.1199 -0.2287 -0.3842
  409loPI   C4A 6538   1.398   6.222   7.591  0.1268  0.1374 -0.0740
  409loPI   C5A 6539   1.602   6.052   7.137  0.0933 -0.0137  0.0777
  409loPI   C6A 6540   1.649   5.940   6.701 -0.2233  0.0453 -0.0894
  409loPI   C1B 6541   1.180   5.349   8.675 -0.0174 -0.0556  0.3549
  409loPI   C2B 6542   1.320   5.510   8.294  0.0142 -0.2227 -0.0331
  409loPI   C3B 6543   1.084   5.521   7.828  0.1752  0.2844  0.0616
  409loPI   C4B 6544   0.887   5.322   7.481  0.1663 -0.1339  0.0716
  410loPI    C1 6545   7.772  13.215   9.642 -0.0533 -0.1120 -0.0718
  410loPI    C2 6546   8.100  13.367   9.813  0.0718 -0.3597 -0.0863
  410loPI    C3 6547   7.738  13.456   9.959  0.1648 -0.3881  0.1665
  410loPI   PO4 6548   7.807  13.185   9.421 -0.1306  0.0337 -0.0733
  410loPI   GL1 6549   7.816  12.809   8.986  0.1852 -0.1531 -0.1358
  410loPI   GL2 6550   8.124  13.063   8.984 -0.0386 -0.1388  0.0635
  410loPI   C1A 6551   7.609  12.833   8.566  0.1782 -0.0757  0.2948
  410loPI   C2A 6552   7.631  12.851   8.156  0.2345 -0.0847 -0.1157
  410loPI   C3A 6553   7.759  13.051   7.826 -0.3757 -0.0667 -0.1854
  410loPI   C4A 6554   7.765  13.134   7.436 -0.2827  0.0392  0.1563
  410loPI   C5A 6555   8.045  13.202   7.070  0.1955 -0.1394 -0.0077
  410loPI   C6A 6556   7.980  13.130   6.597 -0.1229 -0.1409 -0.0216
  410loPI   C1B 6557   8.313  12.839   8.678  0.0727 -0.0179 -0.1215
  410loPI   C2B 6558   8.577  12.654   8.512 -0.2346 -0.1225  0.0655
  410loPI   C3B 6559   8.923  12.555   8.261  0.1311 -0.1117  0.0523
  410loPI   C4B 6560   8.906  12.558   7.773 -0.0998 -0.1925 -0.1020
  411loPI    C1 6561  15.739   4.794  10.721  0.0416 -0.0791  0.2032
  411loPI    C2 6562  15.340   4.773  10.725  0.0450 -0.2619 -0.1152
  411loPI    C3 6563  15.530   5.006  10.988 -0.2703 -0.1677  0.0343
  411loPI   PO4 6564  15.809   4.848  10.388  0.3618  0.1395  0.1787
  411loPI   GL1 6565  15.948   4.803   9.859  0.1344  0.0786 -0.2130
  411loPI   GL2 6566  16.165   5.018   9.655  0.3187  0.1179 -0.0054
  411loPI   C1A 6567  15.727   4.572   9.450  0.1006  0.0774 -0.0196
  411loPI   C2A 6568  15.631   4.583   8.957  0.1537  0.0389 -0.0647
  411loPI   C3A 6569  15.566   4.377   8.623 -0.1964  0.0215 -0.0712
  411loPI   C4A 6570  15.456   4.315   8.158 -0.1937 -0.0336  0.0907
  411loPI   C5A 6571  15.597   4.112   7.830  0.1869 -0.1485 -0.1245
  411loPI   C6A 6572  15.800   3.678   7.839  0.0728 -0.0054  0.1595
  411loPI   C1B 6573  15.948   4.955   9.182 -0.4621  0.1128 -0.2745
  411loPI   C2B 6574  15.991   4.979   8.801 -0.0204  0.2229 -0.0457
  411loPI   C3B 6575  15.960   5.103   8.480  0.3490 -0.1105  0.1383
  411loPI   C4B 6576  15.691   5.391   8.179  0.1459  0.0026 -0.2188
  412loPI    C1 6577   2.137  15.436  10.102  0.0566 -0.0680  0.2683
  412loPI    C2 6578   1.744  15.434  10.174  0.0148  0.0926  0.0540
  412loPI    C3 6579   1.954  15.095  10.201 -0.1499 -0.0061  0.1064
  412loPI   PO4 6580   2.195  15.764  10.024  0.0806  0.3904  0.0198
  412loPI   GL1 6581   2.131  15.905   9.578 -0.0144  0.0794 -0.0072
  412loPI   GL2 6582   2.056  16.248   9.538  0.0415  0.0446  0.0888
  412loPI   C1A 6583   2.444  15.891   9.295  0.0697  0.2819 -0.0098
  412loPI   C2A 6584   2.649  16.177   8.993 -0.4250  0.2794 -0.2849
  412loPI   C3A 6585   2.939  16.247   8.642 -0.0702  0.1161  0.1633
  412loPI   C4A 6586   3.158  16.516   8.310  0.0293  0.0292  0.0973
  412loPI   C5A 6587   2.949  16.822   8.016 -0.0222  0.1060  0.0605
  412loPI   C6A 6588   2.726  16.952   7.677  0.1952 -0.2209  0.0376
  412loPI   C1B 6589   1.912  16.171   9.123  0.2161 -0.2517 -0.4285
  412loPI   C2B 6590   1.815  16.012   8.620 -0.1805  0.1853 -0.0701
  412loPI   C3B 6591   2.100  15.795   8.235 -0.1302 -0.1195 -0.0971
  412loPI   C4B 6592   2.193  15.337   8.314  0.0559 -0.1365 -0.0799
  413loPI    C1 6593   4.946   2.811   9.699  0.1011 -0.4011 -0.2823
  413loPI    C2 6594   4.954   2.587  10.030 -0.2647  0.1607  0.1261
  413loPI    C3 6595   5.092   2.963  10.039 -0.3807  0.2204 -0.3346
  413loPI   PO4 6596   4.705   2.640   9.579  0.0040 -0.2279 -0.1794
  413loPI   GL1 6597   4.781   2.406   9.173  0.0798 -0.1753 -0.3366
  413loPI   GL2 6598   4.590   2.728   9.128  0.1022 -0.0617 -0.4033
  413loPI   C1A 6599   4.562   2.445   8.747 -0.0131  0.0214 -0.0654
  413loPI   C2A 6600   4.654   2.446   8.189  0.1156  0.0871 -0.0832
  413loPI   C3A 6601   4.712   1.971   8.008 -0.2115 -0.0532 -0.1998
  413loPI   C4A 6602   4.746   1.762   7.529 -0.2350 -0.0168 -0.2367
  413loPI   C5A 6603   5.108   1.585   7.404 -0.1511  0.0754  0.4300
  413loPI   C6A 6604   5.118   1.256   7.072 -0.1454 -0.2325 -0.5328
  413loPI   C1B 6605   4.421   2.983   8.819  0.1491  0.1206 -0.3198
  413loPI   C2B 6606   4.357   3.101   8.347 -0.0729 -0.2642  0.1698
  413loPI   C3B 6607   4.407   3.162   7.923  0.0534 -0.0035 -0.1285
  413loPI   C4B 6608   4.351   3.366   7.570  0.2732  0.2282 -0.0493
  414loPI    C1 6609   0.579  14.270  10.264 -0.0438 -0.2260  0.1623
  414loPI    C2 6610   0.784  14.451  10.557 -0.1918  0.0258  0.1133
  414loPI    C3 6611   0.410  14.566  10.474 -0.2268 -0.1889 -0.0343
  414loPI   PO4 6612   0.763  14.131  10.092 -0.1756  0.1901  0.2341
  414loPI   GL1 6613   0.758  14.004   9.609  0.1404  0.0841 -0.0614
  414loPI   GL2 6614   0.517  14.170   9.493  0.3503  0.3303  0.1866
  414loPI   C1A 6615   1.046  14.042   9.325 -0.0711  0.0002 -0.3662
  414loPI   C2A 6616   1.020  13.782   9.040 -0.0070  0.1810  0.2487
  414loPI   C3A 6617   1.162  13.711   8.667 -0.3110  0.1177  0.0325
  414loPI   C4A 6618   1.343  13.670   8.218 -0.1991  0.2004  0.0460
  414loPI   C5A 6619   1.236  13.658   7.793 -0.0253 -0.4254  0.0092
  414loPI   C6A 6620   0.974  13.826   7.491  0.3335 -0.5886 -0.2805
  414loPI   C1B 6621   0.579  14.000   9.087  0.0956  0.3447 -0.1425
  414loPI   C2B 6622   0.783  14.177   8.669 -0.1981  0.4637  0.0107
  414loPI   C3B 6623   1.020  14.081   8.305  0.0247  0.1424 -0.0559
  414loPI   C4B 6624   1.018  14.179   7.840 -0.0288 -0.0528  0.1461
  415loPI    C1 6625  10.375  16.368   9.987  0.0515  0.0006  0.0078
  415loPI    C2 6626  10.724  16.380  10.181 -0.0366 -0.0067  0.1689
  415loPI    C3 6627  10.524  16.719  10.109  0.1360  0.0274 -0.1701
  415loPI   PO4 6628  10.446  16.275   9.740  0.3632 -0.2014  0.0883
  415loPI   GL1 6629  10.506  16.164   9.318 -0.1790 -0.1647 -0.0050
  415loPI   GL2 6630  10.754  16.533   9.443 -0.3275  0.1731  0.0560
  415loPI   C1A 6631  10.813  15.831   9.210  0.1622 -0.0272 -0.3063
  415loPI   C2A 6632  11.019  15.494   9.173  0.1077  0.1574 -0.1323
  415loPI   C3A 6633  10.707  15.357   8.995  0.1915  0.2168  0.0011
  415loPI   C4A 6634  10.429  15.025   8.694  0.1092 -0.0187  0.0727
  415loPI   C5A 6635  10.477  14.862   8.182  0.1489 -0.0071  0.0883
  415loPI   C6A 6636  10.392  14.959   7.839  0.1524 -0.0175 -0.0899
  415loPI   C1B 6637  10.840  16.427   9.099  0.1851  0.2645  0.2561
  415loPI   C2B 6638  10.746  16.130   8.774  0.3767  0.0515  0.4552
  415loPI   C3B 6639  10.577  15.764   8.746 -0.0983 -0.1025 -0.0737
  415loPI   C4B 6640  10.213  15.481   8.858 -0.0677  0.1782 -0.3470
  416loPI    C1 6641   2.034  10.069   9.773  0.1100 -0.1573 -0.1268
  416loPI    C2 6642   2.381  10.231   9.886  0.1333 -0.0819 -0.3033
  416loPI    C3 6643   2.084  10.465   9.758 -0.0328 -0.1349 -0.0217
  416loPI   PO4 6644   2.199   9.793   9.655 -0.1747  0.0526  0.1852
  416loPI   GL1 6645   2.303   9.769   9.281  0.1376  0.0914  0.2550
  416loPI   GL2 6646   2.256  10.159   9.380  0.0209 -0.3350  0.0672
  416loPI   C1A 6647   2.280   9.760   8.861  0.5911 -0.3285  0.0598
  416loPI   C2A 6648   2.318   9.745   8.398 -0.4196  0.2131  0.1505
  416loPI   C3A 6649   2.143   9.547   8.161  0.2884 -0.2930  0.2787
  416loPI   C4A 6650   1.946   9.503   7.769  0.0475  0.1529 -0.1423
  416loPI   C5A 6651   1.655   9.248   7.439  0.1213 -0.1975 -0.1754
  416loPI   C6A 6652   1.249   9.222   7.405  0.3783  0.1637 -0.2047
  416loPI   C1B 6653   2.244  10.259   8.923 -0.3519 -0.0183 -0.4982
  416loPI   C2B 6654   2.290  10.181   8.511 -0.0750  0.2256  0.0036
  416loPI   C3B 6655   2.204  10.062   8.039 -0.0772 -0.0006  0.1897
  416loPI   C4B 6656   2.525   9.810   7.907  0.3060  0.0379  0.0606
  417loPI    C1 6657   4.699  16.889   9.727  0.0316  0.0641  0.2749
  417loPI    C2 6658   5.067  16.934   9.877  0.1269  0.0207  0.0570
  417loPI    C3 6659   4.750  17.070  10.080  0.2741  0.1830  0.1804
  417loPI   PO4 6660   4.708  16.920   9.517 -0.0129  0.1609  0.2854
  417loPI   GL1 6661   4.649  17.223   9.270  0.2440  0.0589 -0.2025
  417loPI   GL2 6662   4.852  17.235   9.078 -0.3005  0.1344  0.1360
  417loPI   C1A 6663   4.327  17.017   8.931  0.0011  0.0762  0.0105
  417loPI   C2A 6664   4.293  16.970   8.524  0.2029  0.0318  0.0809
  417loPI   C3A 6665   4.146  17.045   8.109 -0.4476 -0.1196 -0.0649
  417loPI   C4A 6666   3.952  17.061   7.652 -0.2324 -0.2047  0.1941
  417loPI   C5A 6667   3.585  17.284   7.732 -0.5545  0.2183  0.2166
  417loPI   C6A 6668   3.086  17.311   7.804  0.0561  0.1726  0.1805
  417loPI   C1B 6669   4.736  17.190   8.678 -0.0634  0.3415  0.0910
  417loPI   C2B 6670   4.720  17.225   8.240  0.2755 -0.1842  0.1162
  417loPI   C3B 6671   4.678  17.397   7.896  0.2148 -0.1814  0.7300
  417loPI   C4B 6672   4.858  17.498   7.460  0.1876  0.1698 -0.4061
  418loPI    C1 6673   5.350   2.098   9.894 -0.2283 -0.2160 -0.0250
  418loPI    C2 6674   5.644   2.039  10.159 -0.1408  0.1872 -0.0256
  418loPI    C3 6675   5.318   1.807  10.165  0.2379 -0.3654 -0.1215
  418loPI   PO4 6676   5.596   2.163   9.637  0.1936  0.1558 -0.0766
  418loPI   GL1 6677   5.859   2.074   9.266  0.2076 -0.1977 -0.0155
  418loPI   GL2 6678   5.988   2.327   9.211  0.0953 -0.1212 -0.1871
  418loPI   C1A 6679   5.955   2.079   8.774  0.1599  0.0205 -0.2306
  418loPI   C2A 6680   5.939   1.838   8.451  0.1224  0.0698 -0.0702
  418loPI   C3A 6681   5.997   1.726   7.999  0.1072  0.1860  0.1504
  418loPI   C4A 6682   6.014   1.533   7.699 -0.3612 -0.0655  0.1690
  418loPI   C5A 6683   6.043   1.413   7.185 -0.1685  0.2121  0.1288
  418loPI   C6A 6684   6.132   1.370   6.703  0.1088 -0.4200  0.2217
  418loPI   C1B 6685   5.792   2.546   8.818  0.0203  0.3693 -0.1291
  418loPI   C2B 6686   5.879   2.541   8.379 -0.1704 -0.0571 -0.2187
  418loPI   C3B 6687   5.811   2.579   7.974 -0.1129 -0.2008  0.3203
  418loPI   C4B 6688   5.522   2.474   7.651  0.1358  0.1233 -0.2858
  419loPI    C1 6689  15.559   8.613  10.026 -0.0032  0.1975  0.0967
  419loPI    C2 6690  15.310   8.350   9.855 -0.0758  0.3146  0.0212
  419loPI    C3 6691  15.372   8.339  10.250  0.0018  0.1183  0.0046
  419loPI   PO4 6692  15.672   8.730   9.777 -0.0568  0.1422  0.0508
  419loPI   GL1 6693  15.954   8.790   9.454 -0.0456 -0.0528  0.0875
  419loPI   GL2 6694  15.810   9.001   9.365  0.0886 -0.1519  0.0949
  419loPI   C1A 6695  15.803   8.651   9.040 -0.0068 -0.1887  0.1559
  419loPI   C2A 6696  15.529   8.730   8.710  0.2245  0.0098 -0.1393
  419loPI   C3A 6697  15.544   8.935   8.364  0.4930  0.0009 -0.0383
  419loPI   C4A 6698  15.483   8.792   7.939 -0.1336 -0.3656 -0.3012
  419loPI   C5A 6699  15.505   8.618   7.514 -0.1203  0.1879 -0.0982
  419loPI   C6A 6700  15.487   8.661   7.096 -0.1156 -0.2886  0.3757
  419loPI   C1B 6701  15.560   9.170   9.015  0.1697  0.2862 -0.1885
  419loPI   C2B 6702  15.681   9.311   8.651 -0.0127 -0.0068 -0.1783
  419loPI   C3B 6703  15.520   9.416   8.186 -0.1497 -0.2241 -0.0731
  419loPI   C4B 6704  15.316   9.372   7.797  0.3019 -0.1862  0.3177
  420loPI    C1 6705  12.482   4.866   9.883 -0.1744  0.1584 -0.0930
  420loPI    C2 6706  12.544   4.718   9.516 -0.0792  0.0716 -0.0424
  420loPI    C3 6707  12.842   4.723   9.783 -0.2098 -0.0788  0.1087
  420loPI   PO4 6708  12.252   4.998   9.853 -0.0736 -0.0437 -0.0284
  420loPI   GL1 6709  12.309   5.196   9.437 -0.0277  0.1064 -0.0538
  420loPI   GL2 6710  12.133   5.539   9.402  0.0670 -0.4551  0.1522
  420loPI   C1A 6711  12.711   5.113   9.211 -0.0090  0.0643  0.2245
  420loPI   C2A 6712  12.979   4.919   9.005 -0.0929 -0.2792  0.1547
  420loPI   C3A 6713  13.199   4.623   8.682  0.0508 -0.0977  0.2973
  420loPI   C4A 6714  13.200   4.369   8.354  0.0189 -0.5887 -0.3198
  420loPI   C5A 6715  13.160   4.477   7.915 -0.0165 -0.1395  0.1036
  420loPI   C6A 6716  13.130   4.693   7.509 -0.1408  0.0779  0.1337
  420loPI   C1B 6717  11.962   5.548   9.004 -0.1187  0.0840  0.1364
  420loPI   C2B 6718  12.081   5.728   8.606  0.0722 -0.0742 -0.0342
  420loPI   C3B 6719  12.356   5.877   8.188 -0.3906 -0.1624  0.0156
  420loPI   C4B 6720  12.614   5.875   7.901  0.1483 -0.0857 -0.0760
  421loPI    C1 6721  18.920   7.189   9.985 -0.0051  0.0874  0.0742
  421loPI    C2 6722  19.200   6.905   9.948  0.1462  0.2582 -0.1135
  421loPI    C3 6723  19.037   6.980  10.306  0.0883 -0.0786 -0.0662
  421loPI   PO4 6724  18.966   7.319   9.828 -0.0438 -0.3660 -0.0053
  421loPI   GL1 6725  18.906   7.431   9.371 -0.1155  0.0148  0.0464
  421loPI   GL2 6726  18.572   7.415   9.512  0.1626 -0.0694  0.2073
  421loPI   C1A 6727  18.696   7.444   9.020 -0.3176  0.1520 -0.4859
  421loPI   C2A 6728  18.676   7.417   8.588  0.3229 -0.0362 -0.0342
  421loPI   C3A 6729  18.639   7.260   8.177 -0.1306 -0.0264 -0.0388
  421loPI   C4A 6730  18.857   7.215   7.806 -0.2248  0.1147 -0.2354
  421loPI   C5A 6731  19.208   6.888   7.986 -0.2517 -0.1654 -0.1112
  421loPI   C6A 6732  19.226   6.640   8.366 -0.1431 -0.0971  0.2628
  421loPI   C1B 6733  18.418   7.781   9.379  0.0423 -0.0953 -0.1340
  421loPI   C2B 6734  18.277   8.092   9.124 -0.2761  0.0198  0.0786
  421loPI   C3B 6735  18.284   8.082   8.710  0.1638  0.0338  0.1631
  421loPI   C4B 6736  18.018   8.147   8.408 -0.1246 -0.1387 -0.1481
  422loPI    C1 6737   4.416   7.359   9.708  0.0654  0.1531 -0.0316
  422loPI    C2 6738   4.629   7.134   9.961 -0.0269  0.1886  0.0790
  422loPI    C3 6739   4.232   7.159  10.001 -0.0769 -0.0270 -0.2410
  422loPI   PO4 6740   4.501   7.358   9.451 -0.1064 -0.2072 -0.0498
  422loPI   GL1 6741   4.366   7.154   9.042 -0.1646 -0.0640 -0.0441
  422loPI   GL2 6742   4.188   7.427   8.929  0.0202 -0.0511 -0.0049
  422loPI   C1A 6743   4.409   6.777   8.723  0.2128 -0.1614 -0.2569
  422loPI   C2A 6744   4.359   6.638   8.335 -0.0203  0.0988  0.1804
  422loPI   C3A 6745   4.192   6.607   7.983  0.2346  0.2370  0.1384
  422loPI   C4A 6746   3.923   6.759   7.691 -0.0054 -0.1730 -0.1228
  422loPI   C5A 6747   3.521   6.628   7.680  0.0092  0.3166  0.1514
  422loPI   C6A 6748   3.322   6.227   7.727 -0.0109 -0.0785 -0.0318
  422loPI   C1B 6749   3.949   7.682   8.682 -0.1821 -0.1102 -0.1216
  422loPI   C2B 6750   3.973   7.771   8.241  0.3008 -0.0611 -0.5384
  422loPI   C3B 6751   4.060   7.612   7.824  0.0116 -0.3917 -0.0609
  422loPI   C4B 6752   4.214   7.436   7.394  0.2083  0.0333  0.1007
  423loPI    C1 6753  17.062   9.417  10.244 -0.0131 -0.0202  0.1294
  423loPI    C2 6754  17.359   9.187  10.381 -0.1959 -0.3192  0.0359
  423loPI    C3 6755  17.128   9.390  10.637  0.2789  0.1686  0.0958
  423loPI   PO4 6756  17.098   9.615  10.133  0.0146  0.2427  0.3903
  423loPI   GL1 6757  17.112   9.876   9.827 -0.2402 -0.2003  0.1873
  423loPI   GL2 6758  16.945   9.873   9.547  0.0966 -0.3540 -0.0393
  423loPI   C1A 6759  17.252  10.242   9.512  0.2381 -0.3009  0.1763
  423loPI   C2A 6760  17.247  10.400   9.170  0.1000  0.1064  0.0684
  423loPI   C3A 6761  17.170  10.468   8.779  0.0263  0.0898  0.0426
  423loPI   C4A 6762  17.061  10.450   8.459  0.0346 -0.2624  0.1283
  423loPI   C5A 6763  17.178  10.394   8.064  0.1744 -0.3041  0.0734
  423loPI   C6A 6764  17.367  10.307   7.626  0.0249  0.1385  0.0174
  423loPI   C1B 6765  16.859   9.606   9.148  0.0903  0.2979  0.0190
  423loPI   C2B 6766  16.514   9.581   8.811 -0.1880 -0.0091  0.1653
  423loPI   C3B 6767  16.473   9.703   8.362 -0.1409  0.0625  0.4427
  423loPI   C4B 6768  16.390   9.690   7.968  0.0246 -0.2229  0.1609
  424loPI    C1 6769  10.480   1.156  10.100 -0.0601  0.0669 -0.1183
  424loPI    C2 6770  10.731   0.870   9.975 -0.1337  0.0128 -0.1434
  424loPI    C3 6771  10.687   0.941  10.366 -0.0624  0.0378 -0.1398
  424loPI   PO4 6772  10.501   1.323   9.892 -0.0766 -0.1761  0.0608
  424loPI   GL1 6773  10.294   1.447   9.562  0.1745 -0.0570  0.0909
  424loPI   GL2 6774  10.409   1.792   9.749 -0.1613  0.0453  0.1713
  424loPI   C1A 6775  10.093   1.570   9.242  0.0697 -0.0181  0.0627
  424loPI   C2A 6776  10.043   1.714   8.791  0.1474 -0.1076 -0.0156
  424loPI   C3A 6777  10.127   1.787   8.412  0.1433 -0.2084 -0.3006
  424loPI   C4A 6778   9.922   2.061   8.193 -0.1668  0.0610 -0.0903
  424loPI   C5A 6779   9.661   2.213   7.823  0.0651 -0.3364  0.2341
  424loPI   C6A 6780   9.666   2.619   7.633  0.0959 -0.1258  0.4542
  424loPI   C1B 6781  10.570   1.884   9.346  0.2444  0.1413 -0.1287
  424loPI   C2B 6782  10.600   1.999   8.915 -0.4057 -0.3478  0.1344
  424loPI   C3B 6783  10.586   1.980   8.520  0.0224  0.0264 -0.1369
  424loPI   C4B 6784  10.621   1.841   8.080  0.2883 -0.0967  0.2776
  425loPI    C1 6785   9.493   8.185   9.950  0.0223 -0.0294  0.0863
  425loPI    C2 6786   9.264   7.867   9.873  0.0244 -0.0103 -0.0008
  425loPI    C3 6787   9.268   8.026  10.240 -0.0148 -0.0798  0.0301
  425loPI   PO4 6788   9.407   8.416   9.699  0.3420  0.0383 -0.1491
  425loPI   GL1 6789   9.363   8.276   9.332 -0.2617 -0.1271  0.1479
  425loPI   GL2 6790   9.430   8.581   9.096  0.1187  0.0765 -0.0316
  425loPI   C1A 6791   9.602   8.098   8.993  0.0984  0.1612  0.0669
  425loPI   C2A 6792   9.728   7.997   8.557 -0.3121  0.2533  0.3753
  425loPI   C3A 6793   9.815   7.965   8.135 -0.0364  0.0170  0.0677
  425loPI   C4A 6794   9.960   7.719   7.897  0.0869 -0.2885 -0.1536
  425loPI   C5A 6795   9.624   7.584   7.658  0.1107  0.0926 -0.4711
  425loPI   C6A 6796   9.219   7.663   7.473 -0.1740 -0.0040 -0.0006
  425loPI   C1B 6797   9.317   8.683   8.618  0.2188 -0.2286  0.0175
  425loPI   C2B 6798   9.082   8.973   8.340  0.3631  0.0213 -0.1803
  425loPI   C3B 6799   8.915   9.018   7.930  0.0762 -0.4110 -0.0860
  425loPI   C4B 6800   8.861   9.261   7.541  0.0255 -0.0457  0.0018
  426loPI    C1 6801   8.964  18.847  10.085 -0.0356 -0.2492  0.0495
  426loPI    C2 6802   9.039  18.985   9.717  0.1103 -0.1222  0.1255
  426loPI    C3 6803   9.292  19.065  10.016 -0.1622  0.0332  0.3190
  426loPI   PO4 6804   8.708  18.680  10.057 -0.2181  0.0092  0.0511
  426loPI   GL1 6805   8.577  18.493   9.678  0.0826  0.0604  0.1698
  426loPI   GL2 6806   8.601  18.839   9.574 -0.3275  0.0952  0.2202
  426loPI   C1A 6807   8.715  18.162   9.408  0.0359 -0.0914  0.0692
  426loPI   C2A 6808   8.709  17.929   9.025 -0.1203  0.2257 -0.1836
  426loPI   C3A 6809   8.569  18.163   8.729  0.1522  0.2529  0.1843
  426loPI   C4A 6810   8.333  18.227   8.321  0.4837 -0.1319 -0.2483
  426loPI   C5A 6811   8.165  18.136   7.786  0.1115 -0.1100  0.0954
  426loPI   C6A 6812   8.074  17.885   7.452  0.0476  0.1902 -0.3357
  426loPI   C1B 6813   8.671  18.547   9.120  0.1185 -0.1273  0.4130
  426loPI   C2B 6814   8.929  18.552   8.839  0.2463 -0.0175 -0.0289
  426loPI   C3B 6815   8.915  18.404   8.420  0.2064  0.0123  0.0888
  426loPI   C4B 6816   8.990  18.030   8.313  0.0899  0.1171  0.1474
  427loPI    C1 6817   8.460   4.479   9.764  0.2012  0.0727  0.0270
  427loPI    C2 6818   8.292   4.431  10.124  0.3418 -0.0725  0.0747
  427loPI    C3 6819   8.502   4.762  10.044  0.0661  0.0939  0.0266
  427loPI   PO4 6820   8.310   4.329   9.503 -0.3803 -0.3152 -0.0348
  427loPI   GL1 6821   8.394   4.091   9.186 -0.1028 -0.1313  0.1379
  427loPI   GL2 6822   8.165   3.932   9.060  0.2281  0.2253 -0.2512
  427loPI   C1A 6823   8.380   4.245   8.721 -0.2178 -0.2458 -0.2313
  427loPI   C2A 6824   8.341   4.272   8.278 -0.1216  0.2138  0.0546
  427loPI   C3A 6825   8.571   4.449   7.915  0.0196 -0.1370  0.2548
  427loPI   C4A 6826   8.599   4.383   7.408  0.0614  0.0591 -0.0868
  427loPI   C5A 6827   8.875   4.134   7.310  0.1649 -0.1160  0.1144
  427loPI   C6A 6828   9.199   3.907   7.480 -0.1163 -0.0840  0.0233
  427loPI   C1B 6829   7.939   3.830   8.783 -0.1352 -0.1455 -0.2126
  427loPI   C2B 6830   8.121   3.816   8.339  0.0646 -0.1355  0.0469
  427loPI   C3B 6831   8.054   3.989   8.003 -0.0571 -0.0818 -0.1195
  427loPI   C4B 6832   8.187   4.246   7.689 -0.1038  0.2293  0.3514
  428loPI    C1 6833   4.328  17.454  10.015  0.0236 -0.1544 -0.2104
  428loPI    C2 6834   4.340  17.333  10.396 -0.0493 -0.0869 -0.1863
  428loPI    C3 6835   4.660  17.507  10.231 -0.0185 -0.1136 -0.1552
  428loPI   PO4 6836   4.229  17.255   9.909 -0.0730 -0.3540 -0.2292
  428loPI   GL1 6837   3.916  17.334   9.542  0.2979 -0.1931 -0.1283
  428loPI   GL2 6838   4.147  17.220   9.332 -0.0890  0.1337 -0.0739
  428loPI   C1A 6839   3.783  17.697   9.175 -0.0600 -0.0754  0.1281
  428loPI   C2A 6840   3.968  17.807   8.773 -0.0806 -0.1004 -0.0632
  428loPI   C3A 6841   3.778  17.982   8.507  0.1006  0.0913 -0.1794
  428loPI   C4A 6842   3.467  17.843   8.277 -0.1039  0.0904  0.3062
  428loPI   C5A 6843   3.397  17.703   7.888 -0.1444  0.0262  0.1154
  428loPI   C6A 6844   3.500  17.931   7.491 -0.3457 -0.0664  0.0196
  428loPI   C1B 6845   3.910  17.289   8.947 -0.0629 -0.2881 -0.1518
  428loPI   C2B 6846   3.758  17.373   8.525  0.2612  0.0188  0.0850
  428loPI   C3B 6847   3.835  17.561   8.190 -0.1969  0.0168 -0.1837
  428loPI   C4B 6848   4.169  17.510   7.849  0.0292  0.0027 -0.3486
  429loPI    C1 6849  10.163   2.301  10.195 -0.2197 -0.0345 -0.0793
  429loPI    C2 6850  10.006   2.488  10.512  0.2062  0.1764  0.0146
  429loPI    C3 6851  10.244   2.171  10.564  0.2423  0.1848 -0.0958
  429loPI   PO4 6852  10.124   2.493  10.020 -0.3120 -0.2640 -0.0986
  429loPI   GL1 6853  10.321   2.606   9.582  0.1053  0.1461  0.0853
  429loPI   GL2 6854  10.004   2.697   9.395 -0.3746  0.0585  0.1068
  429loPI   C1A 6855  10.294   2.359   9.181 -0.1823  0.2885 -0.1997
  429loPI   C2A 6856  10.212   2.243   8.726 -0.0526  0.1199  0.2987
  429loPI   C3A 6857  10.311   2.404   8.337  0.1700  0.1811 -0.0996
  429loPI   C4A 6858  10.180   2.610   7.988 -0.0683 -0.1264  0.1936
  429loPI   C5A 6859  10.313   2.937   7.872  0.0169  0.0213  0.0719
  429loPI   C6A 6860  10.276   3.314   7.678 -0.0083  0.2573 -0.1218
  429loPI   C1B 6861   9.668   2.495   9.113  0.0985 -0.1621 -0.2417
  429loPI   C2B 6862   9.344   2.248   8.942 -0.0466  0.3175  0.1108
  429loPI   C3B 6863   9.199   1.842   8.755  0.4758 -0.1803 -0.0482
  429loPI   C4B 6864   9.089   1.461   8.473  0.5810  0.1761  0.0283
  430loPI    C1 6865   3.818  13.404   9.886 -0.0520 -0.4594 -0.1079
  430loPI    C2 6866   4.141  13.183   9.969 -0.0045 -0.2567  0.2692
  430loPI    C3 6867   3.838  13.201  10.229 -0.1922 -0.2101  0.0508
  430loPI   PO4 6868   3.889  13.445   9.624  0.3351  0.2354  0.3352
  430loPI   GL1 6869   4.069  13.778   9.356  0.1704  0.1328 -0.2389
  430loPI   GL2 6870   3.975  14.065   9.149 -0.1662 -0.1415  0.0953
  430loPI   C1A 6871   3.885  13.623   8.907  0.0706 -0.2906  0.2080
  430loPI   C2A 6872   3.976  13.594   8.509  0.3050 -0.2446  0.2521
  430loPI   C3A 6873   3.689  13.646   8.269 -0.3693 -0.1049 -0.2242
  430loPI   C4A 6874   3.677  13.708   7.904  0.0811 -0.2540 -0.2846
  430loPI   C5A 6875   3.598  13.768   7.377 -0.0329  0.1469 -0.1597
  430loPI   C6A 6876   3.649  13.916   6.914 -0.0382 -0.0628 -0.0475
  430loPI   C1B 6877   4.135  14.077   8.708 -0.1277 -0.2127  0.1740
  430loPI   C2B 6878   4.063  14.060   8.151  0.5648  0.2401 -0.3141
  430loPI   C3B 6879   3.945  14.067   7.660  0.1661  0.1960  0.1228
  430loPI   C4B 6880   3.798  14.214   7.350 -0.1086 -0.3194  0.0523
  431loPI    C1 6881   4.096   9.759   9.719 -0.0866  0.0466 -0.0137
  431loPI    C2 6882   4.169   9.600  10.079 -0.1355 -0.2532 -0.1339
  431loPI    C3 6883   3.886   9.880  10.038  0.0729 -0.0017  0.1108
  431loPI   PO4 6884   4.283   9.842   9.585 -0.1428 -0.1226  0.0769
  431loPI   GL1 6885   4.340   9.900   9.149  0.3762 -0.0744 -0.1800
  431loPI   GL2 6886   4.306   9.721   9.114 -0.0015  0.2444 -0.0332
  431loPI   C1A 6887   4.361  10.009   8.613 -0.1756  0.1155 -0.0943
  431loPI   C2A 6888   4.566  10.304   8.342 -0.4217 -0.2584 -0.2871
  431loPI   C3A 6889   4.589  10.311   7.928 -0.2042 -0.0382 -0.0563
  431loPI   C4A 6890   4.620  10.124   7.520  0.0588  0.0865 -0.2197
  431loPI   C5A 6891   4.296  10.167   7.163 -0.1480  0.1645  0.1766
  431loPI   C6A 6892   3.823  10.110   7.274  0.2365  0.1417 -0.0011
  431loPI   C1B 6893   4.038   9.731   8.836 -0.1748  0.3442 -0.0912
  431loPI   C2B 6894   3.903   9.800   8.362 -0.3646  0.1472  0.0097
  431loPI   C3B 6895   3.907   9.695   7.988  0.1323  0.1436 -0.1019
  431loPI   C4B 6896   3.876   9.735   7.645 -0.3864 -0.1767  0.0831
  432loPI    C1 6897  11.051   1.428  10.351 -0.1102 -0.0707 -0.2017
  432loPI    C2 6898  10.694   1.386  10.526 -0.0035 -0.2012 -0.0116
  432loPI    C3 6899  10.934   1.689  10.631 -0.1488  0.0185 -0.3004
  432loPI   PO4 6900  11.021   1.306  10.180 -0.2283 -0.2182  0.0742
  432loPI   GL1 6901  11.101   1.185   9.762 -0.3012 -0.1269 -0.0518
  432loPI   GL2 6902  10.827   1.081   9.525 -0.1808 -0.1644  0.2448
  432loPI   C1A 6903  11.420   1.318   9.398 -0.1583 -0.2017  0.2118
  432loPI   C2A 6904  11.657   1.260   8.973 -0.0080 -0.1098 -0.1863
  432loPI   C3A 6905  11.791   1.225   8.501 -0.3499  0.1057  0.0238
  432loPI   C4A 6906  11.746   1.369   8.055 -0.1729 -0.6888 -0.0043
  432loPI   C5A 6907  11.821   1.591   7.645 -0.0819  0.1940  0.0754
  432loPI   C6A 6908  11.589   1.934   7.541 -0.3408  0.2363  0.0433
  432loPI   C1B 6909  10.546   1.065   9.177 -0.3278  0.1385  0.0706
  432loPI   C2B 6910  10.560   1.312   8.749  0.0657 -0.1517  0.0655
  432loPI   C3B 6911  10.431   1.419   8.268  0.2688 -0.3279  0.1843
  432loPI   C4B 6912  10.761   1.371   7.929  0.0867 -0.4239 -0.1132
  433loPI    C1 6913   2.414   8.320  10.078 -0.0523  0.1015 -0.3041
  433loPI    C2 6914   2.178   8.642  10.057 -0.1192  0.0784  0.0494
  433loPI    C3 6915   2.021   8.284  10.143  0.0177  0.0304  0.1018
  433loPI   PO4 6916   2.571   8.359   9.806 -0.0384  0.0225 -0.1499
  433loPI   GL1 6917   2.517   8.496   9.404  0.4193 -0.0951  0.0679
  433loPI   GL2 6918   2.343   8.746   9.491  0.0170  0.1250  0.0078
  433loPI   C1A 6919   2.473   8.447   9.014 -0.1112 -0.0451  0.5164
  433loPI   C2A 6920   2.173   8.476   8.696 -0.1559 -0.1529  0.2288
  433loPI   C3A 6921   2.020   8.465   8.316  0.2974 -0.0517  0.0033
  433loPI   C4A 6922   1.772   8.381   7.886 -0.2225 -0.1841  0.1592
  433loPI   C5A 6923   1.553   8.584   7.498 -0.0486  0.3332 -0.1311
  433loPI   C6A 6924   1.545   8.798   7.166 -0.1806  0.3568 -0.0447
  433loPI   C1B 6925   2.387   8.969   9.081 -0.4911  0.0118 -0.1929
  433loPI   C2B 6926   2.146   9.001   8.740  0.2143 -0.0268  0.1040
  433loPI   C3B 6927   2.126   9.065   8.245  0.0051 -0.0955  0.4503
  433loPI   C4B 6928   2.298   9.150   7.878  0.3251 -0.0749  0.1013
  434loPI    C1 6929   0.135   2.887  10.199  0.1715  0.1354 -0.0874
  434loPI    C2 6930  -0.121   2.598  10.094  0.1695 -0.0574  0.4196
  434loPI    C3 6931  -0.235   2.882  10.352  0.3235  0.1232  0.2916
  434loPI   PO4 6932   0.327   2.767  10.012 -0.2532  0.1443 -0.0659
  434loPI   GL1 6933   0.427   2.794   9.560  0.0541 -0.0330 -0.2330
  434loPI   GL2 6934   0.303   3.031   9.588 -0.1451  0.0800 -0.5055
  434loPI   C1A 6935   0.130   2.657   9.218  0.3412  0.1090 -0.1746
  434loPI   C2A 6936   0.041   2.615   8.766 -0.0412  0.0171  0.0493
  434loPI   C3A 6937   0.323   2.449   8.280  0.2603 -0.4636 -0.0401
  434loPI   C4A 6938   0.616   2.583   7.929  0.3394 -0.0648 -0.2899
  434loPI   C5A 6939   0.805   2.660   7.574  0.2866 -0.1943 -0.1883
  434loPI   C6A 6940   0.677   2.583   7.199 -0.0748 -0.2339  0.3700
  434loPI   C1B 6941   0.393   3.042   9.130 -0.1653  0.0223 -0.1121
  434loPI   C2B 6942   0.557   2.733   8.790  0.1230  0.2902 -0.2408
  434loPI   C3B 6943   0.803   2.605   8.443  0.1799 -0.1381 -0.1504
  434loPI   C4B 6944   1.025   2.697   8.113 -0.1526 -0.1146  0.1841
  435loPI    C1 6945  13.605  17.429  10.258 -0.0135  0.1833  0.2204
  435loPI    C2 6946  13.402  17.292  10.574 -0.0130 -0.3053  0.0180
  435loPI    C3 6947  13.725  17.095  10.443  0.1108  0.0105 -0.1620
  435loPI   PO4 6948  13.476  17.419  10.009 -0.0868  0.2246  0.3897
  435loPI   GL1 6949  13.370  17.502   9.659 -0.3159  0.0785 -0.1707
  435loPI   GL2 6950  13.203  17.256   9.544  0.0722 -0.0741  0.1933
  435loPI   C1A 6951  13.443  17.639   9.288  0.4008  0.3606  0.1576
  435loPI   C2A 6952  13.247  17.450   9.018 -0.0287  0.3378 -0.1074
  435loPI   C3A 6953  13.270  17.188   8.716  0.2295 -0.0790  0.1394
  435loPI   C4A 6954  13.248  17.109   8.295  0.0871 -0.1140  0.0284
  435loPI   C5A 6955  13.097  17.343   7.891  0.1233 -0.1116 -0.0645
  435loPI   C6A 6956  12.756  17.320   7.730 -0.1157  0.0089 -0.1980
  435loPI   C1B 6957  12.950  17.130   9.164 -0.1455 -0.1091  0.0025
  435loPI   C2B 6958  12.914  16.823   8.820  0.1026  0.3693  0.1391
  435loPI   C3B 6959  12.854  16.768   8.446  0.0724  0.2384 -0.0922
  435loPI   C4B 6960  12.852  16.779   7.929  0.1714 -0.0731  0.0866
  436loPI    C1 6961  15.435   0.321  10.155  0.1745  0.2226  0.0037
  436loPI    C2 6962  15.620   0.077   9.898 -0.1064  0.0442 -0.0338
  436loPI    C3 6963  15.692   0.046  10.291  0.1962  0.2046 -0.0736
  436loPI   PO4 6964  15.096   0.349  10.015  0.3266  0.0912 -0.0378
  436loPI   GL1 6965  15.123   0.288   9.558 -0.1416  0.0928 -0.0328
  436loPI   GL2 6966  14.970   0.086   9.388  0.1697 -0.0574  0.0175
  436loPI   C1A 6967  15.170   0.309   9.052 -0.0124 -0.0381 -0.2076
  436loPI   C2A 6968  15.326   0.053   8.730 -0.6709  0.0977 -0.0616
  436loPI   C3A 6969  15.611   0.037   8.592  0.2107  0.0315 -0.0730
  436loPI   C4A 6970  15.941   0.138   8.558  0.1326  0.2506  0.0899
  436loPI   C5A 6971  16.205   0.005   8.743  0.1436 -0.3029 -0.1654
  436loPI   C6A 6972  16.441   0.181   8.668 -0.1403 -0.2231 -0.0170
  436loPI   C1B 6973  15.048  -0.203   9.051 -0.0077 -0.0893  0.0094
  436loPI   C2B 6974  15.309  -0.426   8.680  0.0489  0.2098  0.0478
  436loPI   C3B 6975  15.469  -0.872   8.455 -0.2138  0.1376 -0.2849
  436loPI   C4B 6976  15.538  -1.164   8.180  0.1361 -0.2486 -0.5328
  437loPI    C1 6977   6.366  18.895   9.248  0.0400  0.1398  0.1674
  437loPI    C2 6978   6.058  18.666   9.361  0.0738 -0.1210 -0.2491
  437loPI    C3 6979   6.422  18.601   9.514  0.0241 -0.1491 -0.1420
  437loPI   PO4 6980   6.265  19.035   9.113 -0.1237  0.0796  0.1712
  437loPI   GL1 6981   6.152  19.137   8.727  0.1334 -0.4934  0.2305
  437loPI   GL2 6982   5.847  19.253   8.809 -0.2907  0.0416 -0.1338
  437loPI   C1A 6983   6.032  19.350   8.348 -0.0266  0.0040  0.1715
  437loPI   C2A 6984   5.990  19.262   7.931  0.0383  0.1475  0.0997
  437loPI   C3A 6985   5.893  19.206   7.516 -0.1137 -0.2804 -0.3749
  437loPI   C4A 6986   5.766  19.389   7.195 -0.1314  0.0145 -0.2478
  437loPI   C5A 6987   5.690  19.369   6.818  0.3113 -0.0912  0.1259
  437loPI   C6A 6988   5.432  19.377   6.509 -0.4334  0.0168  0.0271
  437loPI   C1B 6989   5.620  19.106   8.559  0.2334 -0.2105 -0.1931
  437loPI   C2B 6990   5.592  19.056   8.242  0.2253 -0.0765  0.0102
  437loPI   C3B 6991   5.503  19.076   7.791  0.0238  0.1216  0.1204
  437loPI   C4B 6992   5.352  19.141   7.361  0.2200 -0.1115 -0.1234
  438loPI    C1 6993   1.233  15.973  10.457 -0.0112 -0.0017 -0.0751
  438loPI    C2 6994   1.439  16.011  10.798  0.1048 -0.3870 -0.0971
  438loPI    C3 6995   1.068  16.158  10.771  0.2851  0.1102  0.0182
  438loPI   PO4 6996   1.437  15.877  10.223 -0.1042 -0.0491 -0.0853
  438loPI   GL1 6997   1.440  15.695   9.818 -0.2137  0.4131 -0.3919
  438loPI   GL2 6998   1.067  15.895   9.690 -0.0488  0.1705  0.2254
  438loPI   C1A 6999   1.418  15.648   9.381  0.1840  0.2711  0.2945
  438loPI   C2A 7000   1.412  15.749   8.946  0.2581  0.2710  0.1808
  438loPI   C3A 7001   1.417  15.708   8.584  0.0163  0.2821  0.0206
  438loPI   C4A 7002   1.573  15.675   8.286  0.0699  0.2576  0.1432
  438loPI   C5A 7003   1.641  15.675   7.987  0.0355  0.2535  0.0188
  438loPI   C6A 7004   1.963  15.544   7.735  0.1759 -0.0337 -0.1007
  438loPI   C1B 7005   1.046  16.093   9.341  0.2478 -0.0155  0.0405
  438loPI   C2B 7006   0.913  16.454   9.067 -0.1447  0.1610  0.1956
  438loPI   C3B 7007   0.902  16.572   8.628  0.2581 -0.2407  0.1356
  438loPI   C4B 7008   1.286  16.727   8.453  0.2752  0.0136 -0.1174
  439loPI    C1 7009  17.547  12.343  10.496 -0.1252  0.0626 -0.0128
  439loPI    C2 7010  17.415  12.092  10.779  0.0033  0.0944  0.0759
  439loPI    C3 7011  17.361  12.486  10.820  0.1809  0.1129  0.1445
  439loPI   PO4 7012  17.481  12.266  10.308 -0.1120  0.2112  0.0505
  439loPI   GL1 7013  17.627  12.245   9.868 -0.3405  0.3505  0.0112
  439loPI   GL2 7014  17.900  12.393   9.882  0.0139 -0.0057  0.0257
  439loPI   C1A 7015  17.364  12.642   9.806 -0.3022 -0.2085  0.0166
  439loPI   C2A 7016  17.123  12.921   9.537 -0.0486  0.0552 -0.1404
  439loPI   C3A 7017  17.211  12.909   9.139  0.0456  0.0385  0.1807
  439loPI   C4A 7018  17.064  12.714   8.850 -0.1902 -0.1766  0.2173
  439loPI   C5A 7019  17.306  12.461   8.555  0.1096  0.0876  0.1765
  439loPI   C6A 7020  17.575  12.351   8.162 -0.3854  0.4440 -0.0660
  439loPI   C1B 7021  17.806  12.607   9.523  0.0634 -0.2005 -0.1359
  439loPI   C2B 7022  18.019  12.974   9.358 -0.0132 -0.3136 -0.0632
  439loPI   C3B 7023  18.170  13.261   9.056 -0.0747 -0.0020 -0.0968
  439loPI   C4B 7024  18.292  13.375   8.535 -0.0097 -0.1784 -0.2851
  440loPI    C1 7025   1.248   2.213  10.122 -0.0037  0.2020  0.0161
  440loPI    C2 7026   1.201   1.959  10.428  0.1517  0.0630 -0.0738
  440loPI    C3 7027   1.183   2.354  10.491  0.0614  0.0332  0.0932
  440loPI   PO4 7028   1.045   2.091   9.954 -0.2381 -0.0662  0.1445
  440loPI   GL1 7029   0.754   2.034   9.550  0.1037  0.1316 -0.1174
  440loPI   GL2 7030   0.976   1.913   9.388  0.0582  0.1030 -0.1565
  440loPI   C1A 7031   0.561   1.872   9.129 -0.0053  0.0313  0.1591
  440loPI   C2A 7032   0.634   1.602   8.791 -0.1609  0.3582  0.1482
  440loPI   C3A 7033   0.570   1.359   8.491  0.1115 -0.0543 -0.0056
  440loPI   C4A 7034   0.597   1.291   8.085  0.2978 -0.2355  0.0123
  440loPI   C5A 7035   0.943   1.325   7.775  0.0942 -0.1952  0.0168
  440loPI   C6A 7036   1.117   1.330   7.360 -0.0645 -0.0781 -0.0005
  440loPI   C1B 7037   0.949   2.218   8.979  0.0445 -0.0541  0.1126
  440loPI   C2B 7038   0.814   2.002   8.600 -0.0794  0.2847 -0.1147
  440loPI   C3B 7039   0.632   2.113   8.214  0.0994 -0.1737  0.0483
  440loPI   C4B 7040   0.182   2.009   7.946  0.1235 -0.1356  0.0615
  441loPI    C1 7041  14.384   1.429  10.441  0.1556 -0.0297  0.0502
  441loPI    C2 7042  14.002   1.388  10.553  0.0824  0.2082 -0.1044
  441loPI    C3 7043  14.285   1.449  10.828  0.0021  0.0880  0.0063
  441loPI   PO4 7044  14.312   1.362  10.180 -0.2728 -0.1765  0.0948
  441loPI   GL1 7045  14.517   1.451   9.880  0.1529  0.0291 -0.3188
  441loPI   GL2 7046  14.824   1.541   9.739  0.0881 -0.0850  0.1320
  441loPI   C1A 7047  14.377   1.554   9.420  0.1453 -0.1119 -0.0282
  441loPI   C2A 7048  14.319   1.584   9.019 -0.2668  0.0883  0.0528
  441loPI   C3A 7049  14.318   1.647   8.601  0.1583  0.2244  0.0807
  441loPI   C4A 7050  14.258   1.571   8.186  0.0406 -0.1551 -0.1141
  441loPI   C5A 7051  14.403   1.310   7.896  0.1053  0.1488 -0.0639
  441loPI   C6A 7052  14.238   0.862   7.943 -0.3175  0.0588  0.0200
  441loPI   C1B 7053  14.993   1.229   9.409 -0.0535  0.1325  0.0680
  441loPI   C2B 7054  15.156   1.156   8.974 -0.1296  0.1786  0.1537
  441loPI   C3B 7055  15.247   1.356   8.657  0.5140  0.2345  0.1726
  441loPI   C4B 7056  15.408   1.335   8.237 -0.1988 -0.0790  0.0128
  442loPI    C1 7057  15.035   4.262  10.471 -0.1079 -0.2331  0.0819
  442loPI    C2 7058  15.268   3.948  10.386  0.2679  0.0553  0.0179
  442loPI    C3 7059  15.067   3.960  10.732  0.0818 -0.3468 -0.0699
  442loPI   PO4 7060  15.008   4.436  10.213  0.2527  0.3135  0.1120
  442loPI   GL1 7061  15.000   4.250   9.814 -0.2211  0.1787 -0.0169
  442loPI   GL2 7062  15.283   4.368   9.762 -0.1632 -0.0004  0.3203
  442loPI   C1A 7063  15.110   4.194   9.367  0.1556  0.1140 -0.0023
  442loPI   C2A 7064  15.183   4.323   8.930 -0.0864  0.3491  0.2661
  442loPI   C3A 7065  15.074   4.151   8.438  0.1158 -0.3188 -0.2984
  442loPI   C4A 7066  15.031   3.981   7.984  0.4420  0.1818 -0.0585
  442loPI   C5A 7067  15.248   3.769   7.666 -0.1490  0.1331 -0.7106
  442loPI   C6A 7068  15.436   3.331   7.661  0.4201  0.3391 -0.2056
  442loPI   C1B 7069  15.190   4.646   9.395  0.3461 -0.0035  0.0884
  442loPI   C2B 7070  15.148   4.869   8.941 -0.3643 -0.0308 -0.3397
  442loPI   C3B 7071  15.035   4.706   8.515 -0.1557  0.0249 -0.1154
  442loPI   C4B 7072  15.153   4.839   8.069  0.1887 -0.1450  0.1055
  443loPI    C1 7073   9.366   1.896  10.069 -0.2940 -0.2625 -0.2455
  443loPI    C2 7074   9.121   2.207  10.013 -0.1015 -0.0755 -0.0691
  443loPI    C3 7075   9.186   2.068  10.383 -0.1105 -0.2643 -0.1376
  443loPI   PO4 7076   9.520   1.922   9.868 -0.0860 -0.2932 -0.3034
  443loPI   GL1 7077   9.484   1.708   9.454  0.2446 -0.4517 -0.1860
  443loPI   GL2 7078   9.230   1.717   9.233 -0.1653 -0.1105  0.1855
  443loPI   C1A 7079   9.701   1.947   9.129 -0.4242 -0.0661  0.1284
  443loPI   C2A 7080   9.681   2.025   8.666 -0.6385  0.2394  0.2927
  443loPI   C3A 7081   9.358   2.084   8.300 -0.0338  0.2796  0.1327
  443loPI   C4A 7082   9.203   2.363   7.898  0.1793 -0.1055  0.3051
  443loPI   C5A 7083   8.811   2.607   7.740 -0.0370 -0.2363  0.2505
  443loPI   C6A 7084   8.704   2.956   7.371  0.0720  0.0389 -0.1972
  443loPI   C1B 7085   9.173   1.265   8.955 -0.0161  0.0952 -0.1034
  443loPI   C2B 7086   8.863   1.112   8.778  0.0893 -0.0579  0.0328
  443loPI   C3B 7087   8.963   0.938   8.353  0.0459  0.3051 -0.1566
  443loPI   C4B 7088   9.059   0.770   8.092 -0.1224 -0.3248 -0.1626
  444loPI    C1 7089   5.347  14.091   9.891 -0.0465 -0.1301  0.0508
  444loPI    C2 7090   5.207  13.941  10.234 -0.1105  0.0598  0.1090
  444loPI    C3 7091   5.030  14.259  10.068  0.0804  0.1299  0.0365
  444loPI   PO4 7092   5.325  13.987   9.694 -0.2090 -0.2332  0.2933
  444loPI   GL1 7093   5.205  14.055   9.241  0.2870 -0.1111  0.0783
  444loPI   GL2 7094   5.402  13.699   9.157  0.2434  0.1501  0.1057
  444loPI   C1A 7095   5.172  14.136   8.813  0.1131 -0.0344 -0.0901
  444loPI   C2A 7096   5.210  14.394   8.258  0.1267 -0.1130 -0.0487
  444loPI   C3A 7097   5.043  14.459   7.848 -0.1584  0.0613  0.0651
  444loPI   C4A 7098   5.249  14.244   7.496 -0.0266 -0.0205  0.1676
  444loPI   C5A 7099   5.147  14.037   7.080 -0.0833 -0.2401  0.0241
  444loPI   C6A 7100   4.868  13.792   6.781  0.0498 -0.0326 -0.3067
  444loPI   C1B 7101   5.323  13.623   8.714 -0.1300  0.1817 -0.0496
  444loPI   C2B 7102   5.402  13.542   8.258  0.0888 -0.0320 -0.0102
  444loPI   C3B 7103   5.485  13.616   7.891 -0.0485 -0.4208 -0.1593
  444loPI   C4B 7104   5.471  13.801   7.477 -0.1150 -0.1201  0.1262
  445loPI    C1 7105   3.941  18.577   9.885 -0.0452 -0.0569  0.0435
  445loPI    C2 7106   4.080  18.687  10.244 -0.0228  0.1677 -0.0329
  445loPI    C3 7107   3.701  18.564  10.205  0.0102  0.0263  0.0888
  445loPI   PO4 7108   4.057  18.802   9.654 -0.1932  0.2818 -0.1844
  445loPI   GL1 7109   4.164  18.615   9.323  0.0066  0.2442 -0.2514
  445loPI   GL2 7110   4.388  18.451   9.114 -0.1393 -0.1617  0.0226
  445loPI   C1A 7111   4.079  18.802   8.905  0.1503  0.1399 -0.1348
  445loPI   C2A 7112   4.138  18.841   8.473 -0.3886 -0.1715 -0.1934
  445loPI   C3A 7113   4.190  18.899   8.010  0.0034 -0.1153 -0.0976
  445loPI   C4A 7114   4.116  18.993   7.596  0.2041 -0.0287 -0.3234
  445loPI   C5A 7115   4.209  19.326   7.319 -0.1229 -0.3665 -0.3625
  445loPI   C6A 7116   4.075  19.512   7.027  0.1617  0.1121 -0.0448
  445loPI   C1B 7117   4.037  18.310   8.759  0.0754 -0.3841  0.1387
  445loPI   C2B 7118   3.853  18.448   8.266 -0.3501 -0.2086  0.0568
  445loPI   C3B 7119   3.779  18.587   7.817 -0.0188 -0.1202 -0.4420
  445loPI   C4B 7120   3.538  18.437   7.573  0.1906  0.2444  0.0320
  446loPI    C1 7121   0.101  17.829  10.129 -0.1412  0.0341  0.1368
  446loPI    C2 7122  -0.103  17.992  10.432  0.0378  0.1763  0.1823
  446loPI    C3 7123   0.253  17.822  10.499  0.0476  0.1489  0.0626
  446loPI   PO4 7124   0.177  18.030   9.969 -0.1073  0.0009 -0.0460
  446loPI   GL1 7125   0.257  18.171   9.547 -0.0507  0.5183  0.1023
  446loPI   GL2 7126   0.205  17.766   9.513  0.0575 -0.0346 -0.0988
  446loPI   C1A 7127   0.331  18.225   9.157 -0.1654  0.2075  0.0843
  446loPI   C2A 7128   0.252  18.213   8.705  0.0778 -0.0501 -0.1621
  446loPI   C3A 7129   0.391  18.204   8.275 -0.1241  0.0996 -0.2494
  446loPI   C4A 7130   0.339  18.358   7.918 -0.1628 -0.2276  0.0923
  446loPI   C5A 7131   0.056  18.411   7.510  0.4248 -0.0180 -0.1661
  446loPI   C6A 7132  -0.158  18.146   7.259 -0.0233 -0.2210  0.0934
  446loPI   C1B 7133   0.329  17.736   9.109  0.3014 -0.0161 -0.0814
  446loPI   C2B 7134   0.098  17.611   8.747  0.0451 -0.2211  0.0060
  446loPI   C3B 7135   0.042  17.859   8.433 -0.1427  0.2034 -0.0548
  446loPI   C4B 7136   0.269  17.719   7.892  0.2796 -0.0595  0.1983
  447loPI    C1 7137  10.654  10.301  10.199 -0.0128 -0.1191  0.1862
  447loPI    C2 7138  10.690   9.997  10.457 -0.1601 -0.1891  0.1249
  447loPI    C3 7139  10.353  10.041  10.245 -0.0172 -0.1674 -0.1008
  447loPI   PO4 7140  10.824  10.257  10.027 -0.1774  0.0106 -0.0551
  447loPI   GL1 7141  10.802  10.173   9.517 -0.2810 -0.0887 -0.0192
  447loPI   GL2 7142  10.539  10.039   9.450  0.0948 -0.0670 -0.1476
  447loPI   C1A 7143  10.955  10.158   9.111  0.3237 -0.0346  0.0432
  447loPI   C2A 7144  11.295  10.145   8.771 -0.2248  0.1629 -0.0435
  447loPI   C3A 7145  11.332  10.215   8.352 -0.0002  0.1376 -0.0632
  447loPI   C4A 7146  11.510   9.977   7.918  0.1691  0.0326  0.1871
  447loPI   C5A 7147  11.661  10.038   7.486  0.2888  0.0912 -0.0301
  447loPI   C6A 7148  11.767   9.969   7.030  0.0948  0.1411 -0.0291
  447loPI   C1B 7149  10.274   9.854   9.160 -0.3046 -0.0662 -0.0082
  447loPI   C2B 7150  10.314   9.725   8.789  0.0192 -0.1823 -0.2588
  447loPI   C3B 7151   9.916   9.748   8.612 -0.0900  0.2024 -0.2226
  447loPI   C4B 7152   9.662  10.093   8.736 -0.0034 -0.1324  0.3241
  448loPI    C1 7153   1.144  13.239  10.317 -0.1296  0.1675  0.1886
  448loPI    C2 7154   0.792  13.106  10.455 -0.0148  0.0475  0.3696
  448loPI    C3 7155   0.921  13.472  10.555 -0.2866  0.2661 -0.0509
  448loPI   PO4 7156   1.122  12.985   9.965  0.0855 -0.0912 -0.1422
  448loPI   GL1 7157   0.960  12.825   9.621 -0.4587 -0.0235 -0.1056
  448loPI   GL2 7158   0.903  13.081   9.500 -0.2416 -0.0646  0.0629
  448loPI   C1A 7159   1.240  12.707   9.250  0.2565  0.4485  0.1155
  448loPI   C2A 7160   1.131  12.473   8.826  0.0114 -0.0064 -0.3482
  448loPI   C3A 7161   0.887  12.211   8.557 -0.0713  0.0945 -0.2840
  448loPI   C4A 7162   0.572  12.371   8.140 -0.0882 -0.1436 -0.2388
  448loPI   C5A 7163   0.301  12.765   8.256  0.5315  0.1284 -0.2240
  448loPI   C6A 7164   0.351  13.291   8.293 -0.1542  0.0134  0.2135
  448loPI   C1B 7165   1.236  13.201   9.174 -0.2042 -0.5402 -0.1152
  448loPI   C2B 7166   1.241  13.308   8.904  0.1302 -0.3496 -0.0778
  448loPI   C3B 7167   1.227  13.247   8.448 -0.2098 -0.3080 -0.0838
  448loPI   C4B 7168   1.164  13.191   8.007 -0.0734  0.0312 -0.0819
  449loPI    C1 7169   1.672   4.373  10.025 -0.1586 -0.0233  0.0325
  449loPI    C2 7170   1.986   4.127  10.056 -0.0996  0.0300 -0.1341
  449loPI    C3 7171   2.006   4.497  10.208 -0.0450  0.0674 -0.2309
  449loPI   PO4 7172   1.477   4.187  10.029  0.0095  0.1451  0.2263
  449loPI   GL1 7173   1.154   3.937   9.811 -0.1850  0.1586 -0.1802
  449loPI   GL2 7174   1.293   3.865   9.550  0.0332  0.0053  0.1493
  449loPI   C1A 7175   0.973   4.154   9.357  0.0200 -0.3763  0.2066
  449loPI   C2A 7176   0.859   4.062   8.971  0.1532  0.0511 -0.0946
  449loPI   C3A 7177   0.768   3.681   8.720 -0.0160 -0.1628 -0.1281
  449loPI   C4A 7178   0.509   3.563   8.527 -0.0036  0.0261 -0.0174
  449loPI   C5A 7179   0.314   3.412   8.154  0.0501 -0.0249  0.1509
  449loPI   C6A 7180   0.247   3.592   7.744  0.0723  0.3549  0.0358
  449loPI   C1B 7181   1.186   3.674   9.151  0.2301 -0.2043  0.1902
  449loPI   C2B 7182   1.197   3.488   8.774 -0.0298  0.2938 -0.0409
  449loPI   C3B 7183   1.073   3.556   8.297  0.3745 -0.1210  0.1589
  449loPI   C4B 7184   0.793   3.657   8.042 -0.1606  0.0746 -0.0929
  450loPI    C1 7185  12.743  15.657  10.153  0.2282  0.2613  0.0472
  450loPI    C2 7186  12.464  15.913  10.024  0.1104  0.2354  0.2469
  450loPI    C3 7187  12.632  15.965  10.383  0.1941  0.1177  0.2251
  450loPI   PO4 7188  12.625  15.412   9.998 -0.0378 -0.1301 -0.0365
  450loPI   GL1 7189  12.789  15.262   9.640 -0.1060 -0.0555  0.3089
  450loPI   GL2 7190  13.040  15.169   9.692  0.1977  0.0801  0.0197
  450loPI   C1A 7191  12.611  15.399   9.270  0.1300 -0.0897 -0.0041
  450loPI   C2A 7192  12.595  15.316   8.880  0.3032 -0.1047 -0.0417
  450loPI   C3A 7193  12.503  15.274   8.490  0.3122 -0.1287  0.0145
  450loPI   C4A 7194  12.302  15.179   8.148  0.0068 -0.1528  0.1822
  450loPI   C5A 7195  12.060  14.977   7.909  0.4064  0.1512  0.0776
  450loPI   C6A 7196  12.159  14.690   7.615 -0.3214 -0.1375  0.0607
  450loPI   C1B 7197  13.224  15.320   9.321  0.3421 -0.0356 -0.0958
  450loPI   C2B 7198  13.137  15.399   8.938  0.0918 -0.0260 -0.0705
  450loPI   C3B 7199  13.007  15.440   8.528 -0.1304 -0.1109  0.1845
  450loPI   C4B 7200  12.834  15.270   8.069  0.1269  0.0803 -0.2723
  451loPI    C1 7201   6.290   4.485   9.868 -0.1942 -0.0771 -0.0224
  451loPI    C2 7202   6.649   4.492  10.043 -0.0613  0.2105 -0.2970
  451loPI    C3 7203   6.320   4.556  10.260  0.0847  0.3586 -0.1155
  451loPI   PO4 7204   6.329   4.602   9.642  0.0761 -0.0535  0.2068
  451loPI   GL1 7205   6.367   4.466   9.337  0.3333  0.0249 -0.0287
  451loPI   GL2 7206   6.077   4.293   9.303  0.0261  0.0298  0.2284
  451loPI   C1A 7207   6.106   4.765   8.999  0.0518 -0.0757  0.2256
  451loPI   C2A 7208   6.042   4.776   8.536 -0.0674  0.3345 -0.2162
  451loPI   C3A 7209   6.124   4.885   8.096 -0.2140 -0.4342 -0.3073
  451loPI   C4A 7210   6.261   4.747   7.775  0.0250 -0.0645  0.1338
  451loPI   C5A 7211   6.142   4.795   7.431  0.1159 -0.2049  0.4039
  451loPI   C6A 7212   6.080   4.640   7.022  0.0276  0.2721  0.1134
  451loPI   C1B 7213   6.281   4.221   8.826 -0.0318 -0.0094 -0.2711
  451loPI   C2B 7214   6.300   3.974   8.406 -0.0609 -0.0731  0.0336
  451loPI   C3B 7215   6.143   3.858   8.006 -0.0037  0.1398  0.2129
  451loPI   C4B 7216   5.843   3.676   7.560  0.1554 -0.7963 -0.1306
  452loPI    C1 7217   5.664   5.707  10.088  0.1662  0.0963  0.2453
  452loPI    C2 7218   5.758   5.323  10.028  0.1863  0.1440 -0.0440
  452loPI    C3 7219   5.408   5.419  10.197  0.0412  0.0062 -0.2619
  452loPI   PO4 7220   5.614   5.868   9.806 -0.1196 -0.1795  0.1025
  452loPI   GL1 7221   5.915   5.872   9.342 -0.0872 -0.2793 -0.3248
  452loPI   GL2 7222   6.111   6.120   9.128 -0.2395 -0.1962 -0.0254
  452loPI   C1A 7223   5.600   5.629   9.143 -0.0260  0.0794 -0.2515
  452loPI   C2A 7224   5.530   5.705   8.622  0.1375 -0.1066  0.1961
  452loPI   C3A 7225   5.500   5.724   8.213 -0.0795 -0.1113  0.0067
  452loPI   C4A 7226   5.333   5.909   7.862 -0.0457 -0.0778  0.1994
  452loPI   C5A 7227   5.517   6.116   7.504 -0.0785  0.3973  0.1361
  452loPI   C6A 7228   5.602   6.482   7.251  0.2688  0.1160  0.0618
  452loPI   C1B 7229   6.188   6.220   8.730 -0.0708  0.1063 -0.0849
  452loPI   C2B 7230   6.219   6.218   8.385  0.0735  0.2406 -0.1697
  452loPI   C3B 7231   6.115   6.407   8.164  0.0838 -0.0004  0.0464
  452loPI   C4B 7232   5.879   6.283   7.780  0.3368  0.1022  0.0191
  453loPI    C1 7233  17.231   4.403   9.926 -0.2029 -0.0800  0.0418
  453loPI    C2 7234  17.041   4.409  10.278 -0.1619 -0.2983  0.0688
  453loPI    C3 7235  17.278   4.101  10.183  0.1789 -0.0317  0.0346
  453loPI   PO4 7236  17.458   4.662   9.988  0.3900 -0.2201 -0.1971
  453loPI   GL1 7237  17.795   4.883   9.778 -0.0730 -0.2733  0.0490
  453loPI   GL2 7238  17.635   5.058   9.843  0.2537  0.1192  0.0039
  453loPI   C1A 7239  17.725   4.748   9.314  0.0890 -0.0549 -0.0474
  453loPI   C2A 7240  17.728   4.790   8.808  0.0099 -0.1259  0.1683
  453loPI   C3A 7241  17.895   4.626   8.313 -0.0376  0.1940  0.0124
  453loPI   C4A 7242  17.979   4.562   7.874 -0.4014  0.1762 -0.4622
  453loPI   C5A 7243  18.146   4.197   7.586 -0.2309 -0.0673  0.0480
  453loPI   C6A 7244  18.156   3.981   7.319 -0.1651 -0.1959  0.7125
  453loPI   C1B 7245  17.669   5.182   9.432  0.0425 -0.1508  0.0047
  453loPI   C2B 7246  17.780   5.260   8.954 -0.0046  0.0360 -0.0963
  453loPI   C3B 7247  17.389   5.362   8.635 -0.0731  0.0499 -0.0767
  453loPI   C4B 7248  16.943   5.398   8.777 -0.1770  0.1128  0.1231
  454loPI    C1 7249  17.191  16.617  10.516  0.0750  0.1534  0.1191
  454loPI    C2 7250  17.165  16.326  10.789 -0.0981  0.0736  0.0198
  454loPI    C3 7251  16.859  16.577  10.735 -0.0038  0.1871  0.0067
  454loPI   PO4 7252  17.318  16.479  10.363 -0.4149  0.1597 -0.0055
  454loPI   GL1 7253  17.242  16.314   9.930  0.1424  0.2640 -0.2439
  454loPI   GL2 7254  17.098  16.623   9.916  0.1405 -0.0186  0.2373
  454loPI   C1A 7255  16.999  16.390   9.540  0.1481  0.2765  0.1529
  454loPI   C2A 7256  17.197  16.408   9.090 -0.0488 -0.0632 -0.0221
  454loPI   C3A 7257  16.983  16.538   8.666  0.3418 -0.4234  0.0285
  454loPI   C4A 7258  17.088  16.495   8.224 -0.1542  0.0601  0.0951
  454loPI   C5A 7259  17.278  16.363   7.759 -0.0596  0.0190 -0.0162
  454loPI   C6A 7260  17.238  16.488   7.440  0.0550 -0.0872 -0.3661
  454loPI   C1B 7261  17.224  16.835   9.466  0.0056 -0.1948 -0.1429
  454loPI   C2B 7262  17.182  16.896   9.018  0.1397 -0.0893  0.3479
  454loPI   C3B 7263  17.275  16.918   8.550 -0.3628  0.4580  0.1672
  454loPI   C4B 7264  17.205  16.969   8.253  0.3097 -0.1299  0.1557
  455loPI    C1 7265   2.568  16.731  10.038 -0.2249  0.0774 -0.1110
  455loPI    C2 7266   2.471  16.800  10.420 -0.1133 -0.0814 -0.0531
  455loPI    C3 7267   2.626  16.447  10.313  0.2048  0.0926 -0.1794
  455loPI   PO4 7268   2.748  16.883   9.977 -0.0724  0.3010 -0.0364
  455loPI   GL1 7269   2.561  17.271   9.832  0.4375  0.1312  0.2396
  455loPI   GL2 7270   2.366  17.128   9.671 -0.1336  0.0499 -0.2041
  455loPI   C1A 7271   2.790  17.120   9.365 -0.2960 -0.2173  0.0254
  455loPI   C2A 7272   2.496  17.048   9.048 -0.1923  0.2390  0.0416
  455loPI   C3A 7273   2.388  17.156   8.594  0.1285  0.0198  0.0521
  455loPI   C4A 7274   2.331  16.817   8.404 -0.2189 -0.0803 -0.2130
  455loPI   C5A 7275   2.314  16.705   7.898  0.2904  0.0533 -0.1571
  455loPI   C6A 7276   2.368  16.755   7.431  0.1404 -0.3106 -0.0495
  455loPI   C1B 7277   2.188  17.270   9.419 -0.5159 -0.0189 -0.0638
  455loPI   C2B 7278   2.056  17.171   9.141 -0.0306  0.0360  0.3220
  455loPI   C3B 7279   1.873  17.173   8.780 -0.0811  0.1199  0.0548
  455loPI   C4B 7280   1.958  17.086   8.312  0.1202 -0.1955  0.0920
  456loPI    C1 7281  15.516   4.408  10.447 -0.0616  0.1000  0.0320
  456loPI    C2 7282  15.776   4.148  10.604 -0.0804  0.1130  0.0851
  456loPI    C3 7283  15.481   4.296  10.830 -0.1213  0.1143  0.0308
  456loPI   PO4 7284  15.567   4.286  10.174  0.0845  0.0735 -0.2834
  456loPI   GL1 7285  15.703   4.187   9.935  0.1639  0.3302  0.0703
  456loPI   GL2 7286  15.920   4.254   9.823  0.0724 -0.0229  0.2998
  456loPI   C1A 7287  15.555   4.035   9.576 -0.4881 -0.0215  0.0717
  456loPI   C2A 7288  15.554   4.074   9.153 -0.1648 -0.1704  0.2262
  456loPI   C3A 7289  15.605   3.865   8.751 -0.0242  0.0863  0.0497
  456loPI   C4A 7290  15.803   3.633   8.568 -0.0335  0.2525  0.0819
  456loPI   C5A 7291  15.875   3.334   8.186 -0.3990 -0.1054 -0.0349
  456loPI   C6A 7292  16.028   2.899   7.995 -0.3657 -0.1013  0.1424
  456loPI   C1B 7293  16.036   4.187   9.355  0.1744  0.2596 -0.1308
  456loPI   C2B 7294  16.037   4.312   8.823  0.0549  0.0022 -0.4179
  456loPI   C3B 7295  16.000   4.563   8.523  0.3204  0.1951  0.5074
  456loPI   C4B 7296  16.306   4.785   8.272  0.0807  0.1159  0.0593
  457loPI    C1 7297   7.681  15.353   9.854  0.1263  0.1949 -0.1629
  457loPI    C2 7298   7.510  15.679  10.011 -0.1799 -0.0014 -0.0792
  457loPI    C3 7299   7.735  15.440  10.240 -0.2459 -0.0385 -0.0531
  457loPI   PO4 7300   7.831  15.467   9.643  0.1064  0.0877  0.3313
  457loPI   GL1 7301   7.633  15.616   9.327  0.2108  0.0272 -0.0483
  457loPI   GL2 7302   7.607  15.310   9.243  0.1676 -0.3495 -0.0697
  457loPI   C1A 7303   7.506  15.751   8.904  0.1317 -0.1036  0.2401
  457loPI   C2A 7304   7.596  15.758   8.523  0.0324  0.2504  0.3685
  457loPI   C3A 7305   7.860  15.735   8.218  0.1534  0.1514  0.0206
  457loPI   C4A 7306   7.856  15.971   7.923 -0.1798 -0.1883 -0.0794
  457loPI   C5A 7307   8.211  16.034   7.557 -0.1002 -0.1062 -0.0824
  457loPI   C6A 7308   8.666  16.144   7.596  0.1040  0.0656  0.0140
  457loPI   C1B 7309   7.828  15.415   8.783 -0.1903  0.1949  0.0980
  457loPI   C2B 7310   7.773  15.250   8.372 -0.1592 -0.2352 -0.4101
  457loPI   C3B 7311   7.821  15.290   7.966  0.3291  0.2007 -0.2086
  457loPI   C4B 7312   7.889  14.919   7.700 -0.0067 -0.1464 -0.2348
  458loPI    C1 7313   4.216   3.209   9.699  0.0786  0.1668 -0.0310
  458loPI    C2 7314   4.511   3.151   9.434  0.0720  0.3922 -0.0889
  458loPI    C3 7315   4.591   3.315   9.790  0.0644  0.1799  0.0120
  458loPI   PO4 7316   4.014   3.166   9.554  0.3021 -0.1361 -0.0553
  458loPI   GL1 7317   3.847   3.207   9.180 -0.0180  0.0739 -0.0146
  458loPI   GL2 7318   3.993   2.848   9.057  0.0239  0.0258  0.3001
  458loPI   C1A 7319   3.844   3.204   8.701 -0.0181  0.4624  0.1563
  458loPI   C2A 7320   3.932   3.289   8.303 -0.2058  0.3279  0.5380
  458loPI   C3A 7321   4.107   3.553   8.020  0.4660 -0.1058  0.1774
  458loPI   C4A 7322   4.162   3.874   7.692 -0.0579  0.1174 -0.0116
  458loPI   C5A 7323   4.401   4.340   7.485  0.0067  0.0653 -0.1768
  458loPI   C6A 7324   4.867   4.577   7.460  0.0567 -0.0048 -0.0633
  458loPI   C1B 7325   3.940   2.763   8.631  0.3001  0.1038 -0.2853
  458loPI   C2B 7326   4.134   2.611   8.346  0.1200  0.2376  0.1527
  458loPI   C3B 7327   4.323   2.682   7.896  0.0064  0.4065 -0.1714
  458loPI   C4B 7328   4.597   2.336   7.679  0.1291 -0.4437  0.1321
  459loPI    C1 7329  16.930  12.447  10.298  0.1069  0.1837  0.1221
  459loPI    C2 7330  16.777  12.477  10.666  0.2059  0.1815  0.1638
  459loPI    C3 7331  16.970  12.145  10.556  0.1188  0.1557  0.0876
  459loPI   PO4 7332  16.739  12.600  10.095  0.0105 -0.2841 -0.3071
  459loPI   GL1 7333  16.686  12.591   9.678 -0.7639 -0.2716 -0.0367
  459loPI   GL2 7334  16.665  12.948   9.497  0.0869 -0.0900  0.0957
  459loPI   C1A 7335  16.647  12.355   9.279 -0.1123  0.0582  0.1360
  459loPI   C2A 7336  16.430  12.174   9.000  0.3182  0.0398  0.0569
  459loPI   C3A 7337  16.495  11.981   8.612  0.2037  0.2576 -0.3111
  459loPI   C4A 7338  16.452  12.322   8.273  0.0956  0.0384 -0.6864
  459loPI   C5A 7339  16.288  12.332   7.872  0.1538 -0.1129  0.0626
  459loPI   C6A 7340  15.833  12.453   7.658 -0.0481 -0.1145  0.2203
  459loPI   C1B 7341  16.726  13.062   9.127 -0.0954  0.0572  0.1981
  459loPI   C2B 7342  16.871  13.188   8.841 -0.2376  0.2557  0.5025
  459loPI   C3B 7343  17.228  13.128   8.633 -0.2701 -0.0577 -0.0197
  459loPI   C4B 7344  17.431  12.903   8.282  0.0655  0.3102 -0.1461
  460loPI    C1 7345   1.019  12.270   9.949  0.0351 -0.2975  0.0105
  460loPI    C2 7346   1.316  12.414   9.723 -0.0675  0.0662  0.1009
  460loPI    C3 7347   1.267  12.547  10.097 -0.3024 -0.0418  0.1103
  460loPI   PO4 7348   0.835  12.210   9.698 -0.0067  0.2416  0.1654
  460loPI   GL1 7349   0.775  12.360   9.331  0.2914  0.1024 -0.1578
  460loPI   GL2 7350   0.460  12.343   9.308  0.1520  0.1564  0.1864
  460loPI   C1A 7351   0.778  12.742   9.094  0.0691 -0.3098 -0.2086
  460loPI   C2A 7352   0.902  13.009   8.705 -0.1331  0.0746 -0.0236
  460loPI   C3A 7353   0.809  13.026   8.287  0.1083  0.3232  0.3820
  460loPI   C4A 7354   0.649  12.923   7.880  0.1745  0.2765  0.0526
  460loPI   C5A 7355   0.337  13.012   7.856 -0.0084 -0.0698 -0.4154
  460loPI   C6A 7356  -0.017  12.966   7.969  0.2272 -0.1099 -0.1680
  460loPI   C1B 7357   0.390  12.447   8.912 -0.1268  0.3559  0.0465
  460loPI   C2B 7358   0.181  12.389   8.595 -0.0731  0.0366 -0.1089
  460loPI   C3B 7359  -0.207  12.618   8.356 -0.1983  0.2260  0.0128
  460loPI   C4B 7360  -0.461  12.935   8.422 -0.1509  0.1749 -0.0415
  461loPI    C1 7361   6.617   5.085   9.989  0.0303  0.1440  0.0164
  461loPI    C2 7362   6.511   5.434   9.824  0.3171  0.2139 -0.0253
  461loPI    C3 7363   6.772   5.427  10.127  0.2275  0.0428  0.0494
  461loPI   PO4 7364   6.793   4.956   9.808 -0.0610  0.4420  0.1058
  461loPI   GL1 7365   6.629   5.151   9.424  0.2229  0.0325  0.2251
  461loPI   GL2 7366   6.335   5.052   9.282 -0.0584  0.1832  0.0966
  461loPI   C1A 7367   6.663   5.205   8.981 -0.2033  0.5031 -0.0564
  461loPI   C2A 7368   6.391   5.216   8.628  0.1323 -0.2988  0.3295
  461loPI   C3A 7369   6.194   5.338   8.277 -0.0211  0.0085 -0.0187
  461loPI   C4A 7370   6.254   5.539   7.895  0.1208  0.3770  0.2869
  461loPI   C5A 7371   6.238   5.565   7.434 -0.0983 -0.2327  0.1046
  461loPI   C6A 7372   6.182   5.650   6.937 -0.2352 -0.1185 -0.2692
  461loPI   C1B 7373   5.882   5.230   9.204  0.2044 -0.0349  0.0831
  461loPI   C2B 7374   5.824   5.187   8.820  0.1496 -0.3741  0.1799
  461loPI   C3B 7375   5.735   5.147   8.411 -0.1635 -0.0870 -0.0059
  461loPI   C4B 7376   5.678   5.347   7.985 -0.0922 -0.1624  0.1126
  462loPI    C1 7377   9.005   6.935   9.643  0.0478 -0.0342 -0.0422
  462loPI    C2 7378   9.012   6.832  10.030  0.0032 -0.0343 -0.0414
  462loPI    C3 7379   9.049   7.216   9.924  0.0088 -0.0335 -0.0368
  462loPI   PO4 7380   9.101   6.651   9.532  0.0640  0.2592  0.1591
  462loPI   GL1 7381   8.941   6.647   9.132 -0.0821  0.4135 -0.0078
  462loPI   GL2 7382   8.597   6.669   9.186 -0.1907 -0.1161  0.2117
  462loPI   C1A 7383   8.866   6.307   8.830 -0.0789  0.1333  0.0832
  462loPI   C2A 7384   8.840   6.248   8.425 -0.3930 -0.0648  0.2025
  462loPI   C3A 7385   8.968   6.297   8.035 -0.1822  0.2029 -0.2849
  462loPI   C4A 7386   8.870   6.122   7.614  0.0102 -0.0016 -0.3031
  462loPI   C5A 7387   8.689   5.745   7.388  0.1957 -0.2014 -0.1505
  462loPI   C6A 7388   8.433   5.425   7.486 -0.0349 -0.1206 -0.0336
  462loPI   C1B 7389   8.626   6.832   8.817  0.3010 -0.1205 -0.0176
  462loPI   C2B 7390   8.803   6.769   8.487  0.1850 -0.0304 -0.2605
  462loPI   C3B 7391   8.692   7.032   7.981 -0.0843  0.0430 -0.0013
  462loPI   C4B 7392   8.507   7.083   7.517 -0.1293 -0.1198  0.2354
  463loPI    C1 7393  11.384   2.127  10.581  0.0089  0.2537 -0.2087
  463loPI    C2 7394  11.634   2.345  10.805  0.0301 -0.0160  0.0361
  463loPI    C3 7395  11.244   2.436  10.792  0.0792  0.1856 -0.0612
  463loPI   PO4 7396  11.575   2.043  10.321 -0.1091  0.0954  0.1867
  463loPI   GL1 7397  11.437   2.115   9.871 -0.0926 -0.4613 -0.1294
  463loPI   GL2 7398  11.700   2.103   9.632  0.0604  0.1490 -0.0207
  463loPI   C1A 7399  11.315   1.842   9.467 -0.2666  0.0194  0.0203
  463loPI   C2A 7400  10.999   1.598   9.314 -0.0627  0.0081 -0.0616
  463loPI   C3A 7401  11.067   1.245   9.086  0.1855 -0.2052 -0.0696
  463loPI   C4A 7402  11.187   1.183   8.739  0.1878  0.4238  0.0045
  463loPI   C5A 7403  11.230   0.943   8.452 -0.1282  0.2624  0.3341
  463loPI   C6A 7404  11.328   1.111   8.100 -0.0856  0.1148 -0.1661
  463loPI   C1B 7405  11.606   2.131   9.085  0.1197  0.0763  0.1692
  463loPI   C2B 7406  11.570   2.256   8.560  0.0997  0.1042  0.4741
  463loPI   C3B 7407  11.566   2.469   8.173 -0.1793  0.0592  0.0479
  463loPI   C4B 7408  11.456   2.449   7.812  0.0654  0.1316 -0.2325
  464loPI    C1 7409   5.533   0.438   9.809  0.2018  0.2275 -0.0424
  464loPI    C2 7410   5.480   0.795   9.981  0.1734  0.1770  0.0542
  464loPI    C3 7411   5.820   0.593  10.040  0.0837  0.0702  0.2144
  464loPI   PO4 7412   5.355   0.556   9.563  0.1681 -0.2070  0.1291
  464loPI   GL1 7413   5.296   0.414   9.200  0.0039 -0.0002  0.3332
  464loPI   GL2 7414   5.369   0.196   8.990 -0.1865 -0.0282 -0.0732
  464loPI   C1A 7415   5.467   0.593   8.774  0.3201  0.2006 -0.3834
  464loPI   C2A 7416   5.270   0.596   8.394 -0.0099 -0.4259 -0.0110
  464loPI   C3A 7417   5.250   0.457   7.924  0.1214  0.1536  0.2227
  464loPI   C4A 7418   4.974   0.384   7.649 -0.1314 -0.0602 -0.0411
  464loPI   C5A 7419   4.869   0.184   7.251 -0.0990 -0.0829 -0.3232
  464loPI   C6A 7420   5.076   0.176   6.920  0.1211 -0.3622  0.1715
  464loPI   C1B 7421   5.150   0.193   8.631 -0.0892 -0.2559  0.0690
  464loPI   C2B 7422   4.782   0.055   8.475  0.1478 -0.2514  0.3292
  464loPI   C3B 7423   4.593   0.161   8.027 -0.0426  0.0161 -0.0663
  464loPI   C4B 7424   4.557   0.087   7.707 -0.3299 -0.0630  0.0115
  465loPI    C1 7425  15.386   6.490  10.208 -0.0147 -0.0017  0.1417
  465loPI    C2 7426  15.133   6.258  10.413 -0.0885  0.0633  0.1252
  465loPI    C3 7427  15.303   6.573  10.590 -0.0438  0.0385  0.1267
  465loPI   PO4 7428  15.299   6.572  10.010  0.0459  0.1113  0.0045
  465loPI   GL1 7429  15.290   6.497   9.569  0.1361  0.0760  0.2466
  465loPI   GL2 7430  15.277   6.745   9.207  0.0424  0.0703  0.1616
  465loPI   C1A 7431  15.505   6.319   9.181 -0.0836 -0.0023 -0.0357
  465loPI   C2A 7432  15.572   6.458   8.705  0.2365  0.1648  0.1742
  465loPI   C3A 7433  15.390   6.499   8.285 -0.0992  0.3358  0.0528
  465loPI   C4A 7434  15.333   6.314   7.897  0.1683  0.2839  0.2588
  465loPI   C5A 7435  15.234   6.240   7.480  0.0635 -0.0832  0.1848
  465loPI   C6A 7436  15.241   6.373   7.097  0.1463 -0.0662  0.0029
  465loPI   C1B 7437  15.360   6.960   8.797 -0.3058 -0.2333 -0.2867
  465loPI   C2B 7438  15.303   7.018   8.343 -0.2883  0.1831  0.0203
  465loPI   C3B 7439  15.406   6.888   7.952 -0.0579 -0.1855 -0.2071
  465loPI   C4B 7440  15.297   6.697   7.499 -0.5014 -0.0297  0.0892
  466loPI    C1 7441  15.240   2.938  10.142  0.1052  0.0327  0.0824
  466loPI    C2 7442  15.082   2.616  10.319 -0.0719  0.0983  0.0452
  466loPI    C3 7443  14.916   2.976  10.374 -0.1150  0.1230 -0.2339
  466loPI   PO4 7444  15.171   2.807   9.872  0.2672 -0.0226  0.1529
  466loPI   GL1 7445  14.752   2.690   9.589 -0.2940 -0.2264  0.3989
  466loPI   GL2 7446  14.915   3.005   9.485  0.0004 -0.0008  0.0341
  466loPI   C1A 7447  14.693   2.459   9.127 -0.1454 -0.0512  0.1523
  466loPI   C2A 7448  14.992   2.154   8.952  0.2425 -0.2893 -0.0778
  466loPI   C3A 7449  15.099   1.989   8.515  0.4256  0.0112 -0.3418
  466loPI   C4A 7450  15.357   2.287   8.274 -0.2785  0.0462  0.0003
  466loPI   C5A 7451  15.604   2.594   8.083  0.0778  0.1852  0.3604
  466loPI   C6A 7452  15.588   2.862   7.714  0.1933 -0.0901  0.2781
  466loPI   C1B 7453  15.111   3.148   9.162  0.1973  0.2844  0.0153
  466loPI   C2B 7454  15.433   3.352   8.902 -0.2266  0.0552  0.0753
  466loPI   C3B 7455  15.370   3.462   8.476 -0.0099 -0.1850 -0.2069
  466loPI   C4B 7456  15.392   3.825   8.251  0.0138 -0.3754  0.2221
  467loPI    C1 7457  10.005  18.597   9.695 -0.0024 -0.0224  0.0111
  467loPI    C2 7458  10.044  18.361  10.015  0.3708  0.0274  0.0076
  467loPI    C3 7459   9.838  18.233   9.697  0.0092 -0.0284  0.2563
  467loPI   PO4 7460  10.284  18.617   9.660  0.0578  0.0845  0.2156
  467loPI   GL1 7461  10.494  18.651   9.367  0.0607 -0.1342 -0.0157
  467loPI   GL2 7462  10.823  18.527   9.428  0.0058  0.1907  0.0487
  467loPI   C1A 7463  10.336  18.628   8.962  0.1777  0.0150 -0.0287
  467loPI   C2A 7464  10.402  18.705   8.564  0.1987  0.0327  0.0769
  467loPI   C3A 7465  10.463  18.796   8.218  0.0157  0.1631 -0.0317
  467loPI   C4A 7466  10.635  18.909   7.849 -0.0636  0.1121  0.1058
  467loPI   C5A 7467  10.691  18.634   7.432 -0.0735  0.4047 -0.1221
  467loPI   C6A 7468  10.846  18.276   7.213 -0.2117  0.1831  0.2400
  467loPI   C1B 7469  10.859  18.800   9.092  0.2171  0.1163  0.3145
  467loPI   C2B 7470  11.034  18.735   8.663  0.0328  0.2755  0.2648
  467loPI   C3B 7471  10.998  18.931   8.236  0.3009 -0.0860  0.1482
  467loPI   C4B 7472  11.342  19.121   7.990 -0.2244  0.0570  0.0450
  468loPI    C1 7473   9.439  10.253  10.176  0.0929  0.0024  0.0368
  468loPI    C2 7474   9.601  10.616  10.222  0.0161  0.0485 -0.0529
  468loPI    C3 7475   9.458  10.419  10.539  0.0243  0.1123 -0.0095
  468loPI   PO4 7476   9.404  10.269   9.835  0.2138  0.1797 -0.1733
  468loPI   GL1 7477   9.567  10.274   9.482  0.1783 -0.1901  0.1061
  468loPI   GL2 7478   9.191  10.321   9.353 -0.1004 -0.2632  0.0505
  468loPI   C1A 7479   9.494   9.916   9.237  0.0483 -0.0675 -0.2464
  468loPI   C2A 7480   9.336   9.647   8.818 -0.0634  0.0114 -0.0061
  468loPI   C3A 7481   9.447   9.729   8.411 -0.0621 -0.1118 -0.0772
  468loPI   C4A 7482   9.763   9.601   8.121  0.0750  0.2238  0.0515
  468loPI   C5A 7483   9.798   9.591   7.623 -0.2068 -0.2263  0.1202
  468loPI   C6A 7484  10.038   9.807   7.182 -0.0640  0.3285  0.1074
  468loPI   C1B 7485   9.085  10.232   9.003 -0.1420 -0.0979  0.1541
  468loPI   C2B 7486   9.001  10.046   8.495  0.3108 -0.0515  0.0732
  468loPI   C3B 7487   9.104   9.930   8.068 -0.2968 -0.2524  0.1591
  468loPI   C4B 7488   9.091   9.746   7.721 -0.0286 -0.0429 -0.0872
  469loPI    C1 7489   3.325   5.635   9.801 -0.0703 -0.1520 -0.2644
  469loPI    C2 7490   2.972   5.783   9.918 -0.0410 -0.1654 -0.1578
  469loPI    C3 7491   3.207   5.995   9.673 -0.0743 -0.1091 -0.1411
  469loPI   PO4 7492   3.256   5.385   9.671  0.0920 -0.1554  0.1000
  469loPI   GL1 7493   3.091   5.122   9.332 -0.0207 -0.1551 -0.1823
  469loPI   GL2 7494   2.786   5.131   9.409  0.0022  0.2716  0.1087
  469loPI   C1A 7495   3.353   5.326   9.049 -0.2909  0.1672  0.2371
  469loPI   C2A 7496   3.543   5.465   8.747  0.2030  0.3186  0.2816
  469loPI   C3A 7497   3.520   5.528   8.334 -0.1536 -0.1153  0.3375
  469loPI   C4A 7498   3.203   5.508   8.051 -0.2983  0.0340 -0.0112
  469loPI   C5A 7499   2.809   5.395   8.131  0.0826  0.1390 -0.1188
  469loPI   C6A 7500   2.673   5.135   8.445 -0.0203  0.1709  0.5447
  469loPI   C1B 7501   2.812   5.071   8.962 -0.1796  0.3710  0.1036
  469loPI   C2B 7502   2.639   4.741   8.730  0.0735 -0.2030  0.1153
  469loPI   C3B 7503   2.445   4.656   8.376 -0.2327  0.2239 -0.4395
  469loPI   C4B 7504   2.514   4.640   8.016 -0.1608 -0.1615  0.0107
  470loPI    C1 7505  10.904  13.217   9.614  0.1059  0.2699 -0.0419
  470loPI    C2 7506  11.273  13.085   9.694  0.0360  0.0730 -0.0368
  470loPI    C3 7507  11.078  13.308   9.963  0.1298  0.1316 -0.0168
  470loPI   PO4 7508  10.907  13.328   9.393  0.2930  0.1095  0.1448
  470loPI   GL1 7509  11.111  13.296   9.048 -0.0719  0.1588 -0.5713
  470loPI   GL2 7510  11.233  12.958   9.113  0.1361 -0.2876 -0.1317
  470loPI   C1A 7511  11.405  13.650   8.853  0.2351 -0.1577 -0.0057
  470loPI   C2A 7512  11.483  13.538   8.474  0.0121  0.2238  0.0044
  470loPI   C3A 7513  11.570  13.693   8.096  0.0840 -0.1181  0.2376
  470loPI   C4A 7514  11.615  13.931   7.772  0.1400  0.1644 -0.0111
  470loPI   C5A 7515  11.481  14.166   7.584  0.0411  0.0231  0.3285
  470loPI   C6A 7516  11.313  14.423   7.169 -0.0915 -0.0747  0.1776
  470loPI   C1B 7517  11.368  13.090   8.651  0.2235 -0.1981  0.0858
  470loPI   C2B 7518  11.462  13.025   8.201 -0.1540 -0.6469 -0.0684
  470loPI   C3B 7519  11.545  13.154   7.781 -0.3598 -0.0209 -0.5418
  470loPI   C4B 7520  11.618  13.259   7.354 -0.1943 -0.3103  0.0905
  471loPI    C1 7521   6.832   7.120  10.294  0.0526 -0.1222  0.0082
  471loPI    C2 7522   6.702   6.874  10.582 -0.2861  0.0287 -0.0110
  471loPI    C3 7523   6.529   7.231  10.530 -0.2020  0.0205 -0.3761
  471loPI   PO4 7524   6.837   6.945  10.136  0.1715 -0.0437  0.0135
  471loPI   GL1 7525   6.848   6.860   9.736 -0.0236 -0.3459 -0.1216
  471loPI   GL2 7526   6.742   6.583   9.562 -0.3692  0.0218 -0.0559
  471loPI   C1A 7527   7.046   6.881   9.312  0.1654  0.0761 -0.0171
  471loPI   C2A 7528   7.130   6.854   8.925  0.0434  0.3290 -0.1815
  471loPI   C3A 7529   6.916   6.915   8.626  0.0295  0.3409  0.3295
  471loPI   C4A 7530   6.827   6.850   8.194  0.2835 -0.0462 -0.0261
  471loPI   C5A 7531   6.471   6.626   7.920 -0.2415  0.1210  0.1928
  471loPI   C6A 7532   6.101   6.751   7.833  0.2378 -0.1475 -0.2599
  471loPI   C1B 7533   6.302   6.710   9.492  0.3666  0.0999 -0.4616
  471loPI   C2B 7534   6.125   6.658   9.082  0.0710  0.0096  0.1302
  471loPI   C3B 7535   5.781   6.742   8.800  0.0676  0.2231  0.0683
  471loPI   C4B 7536   5.393   6.546   8.549  0.2566 -0.3321 -0.2778
  472loPI    C1 7537  14.958   7.378   9.962  0.1918 -0.2363  0.0781
  472loPI    C2 7538  14.677   7.622  10.107  0.2315 -0.0538 -0.1443
  472loPI    C3 7539  14.837   7.339  10.341  0.1960  0.1421  0.1220
  472loPI   PO4 7540  14.976   7.462   9.703  0.1623  0.0251  0.5887
  472loPI   GL1 7541  14.979   7.789   9.365 -0.1127 -0.1100 -0.2623
  472loPI   GL2 7542  15.239   7.938   9.290 -0.0587 -0.2016 -0.1143
  472loPI   C1A 7543  14.761   7.917   9.049 -0.0334  0.1329 -0.0976
  472loPI   C2A 7544  14.670   8.242   8.806  0.3167 -0.1458 -0.1646
  472loPI   C3A 7545  14.633   8.344   8.345  0.3088  0.0235 -0.3203
  472loPI   C4A 7546  14.460   8.540   8.145  0.4018  0.2420 -0.0684
  472loPI   C5A 7547  14.415   8.813   7.787 -0.1781  0.0659 -0.1168
  472loPI   C6A 7548  14.434   9.062   7.449  0.2500 -0.0203 -0.3649
  472loPI   C1B 7549  15.199   8.244   8.878 -0.2324  0.0361 -0.0295
  472loPI   C2B 7550  15.403   8.303   8.448  0.0411  0.0016  0.2315
  472loPI   C3B 7551  15.376   8.282   7.932 -0.0415  0.0447  0.0873
  472loPI   C4B 7552  15.119   8.356   7.604 -0.0197  0.0962 -0.0389
  473loPI    C1 7553   3.973   9.251   9.844 -0.0771  0.1162 -0.1314
  473loPI    C2 7554   3.657   9.455   9.705 -0.3047  0.1466  0.4077
  473loPI    C3 7555   3.713   9.416  10.100  0.2485 -0.0501  0.3187
  473loPI   PO4 7556   4.121   9.232   9.618  0.0817  0.1744  0.1804
  473loPI   GL1 7557   4.156   8.972   9.254 -0.1410  0.0347 -0.0513
  473loPI   GL2 7558   4.084   9.251   9.127  0.0728  0.0311  0.0782
  473loPI   C1A 7559   3.792   8.777   8.952  0.1188  0.0983  0.2200
  473loPI   C2A 7560   3.648   8.582   8.589  0.1341  0.1617 -0.4709
  473loPI   C3A 7561   3.399   8.549   8.191 -0.1310  0.1509 -0.2336
  473loPI   C4A 7562   3.442   8.592   7.742  0.1656 -0.1541 -0.0599
  473loPI   C5A 7563   3.522   8.303   7.351  0.0059 -0.0145 -0.1386
  473loPI   C6A 7564   3.305   7.944   7.206 -0.1308  0.6407  0.1576
  473loPI   C1B 7565   3.770   9.327   8.799  0.2722 -0.2010  0.0756
  473loPI   C2B 7566   3.453   9.043   8.580  0.1025 -0.0943 -0.1623
  473loPI   C3B 7567   3.072   8.812   8.437  0.4586 -0.3269  0.1109
  473loPI   C4B 7568   2.644   8.831   8.118 -0.1976 -0.2787  0.3429
  474POPI    C1 7569  13.414  14.777  10.113 -0.0444  0.1878  0.2665
  474POPI    C2 7570  13.684  14.838  10.402  0.2794  0.2356 -0.0391
  474POPI    C3 7571  13.686  14.495  10.195 -0.1658  0.0596  0.2332
  474POPI   PO4 7572  13.448  14.936   9.927 -0.2061 -0.0647 -0.0028
  474POPI   GL1 7573  13.601  14.900   9.545 -0.1121 -0.0977 -0.4387
  474POPI   GL2 7574  13.301  14.782   9.437 -0.0893  0.2341 -0.1114
  474POPI   C1A 7575  13.738  15.120   9.165 -0.1452 -0.1545  0.0364
  474POPI   D2A 7576  13.961  14.948   8.788 -0.0843 -0.1174 -0.0898
  474POPI   C3A 7577  13.792  15.116   8.467  0.3964 -0.0956 -0.1002
  474POPI   C4A 7578  13.470  15.475   8.573 -0.0765  0.1764 -0.3348
  474POPI   C1B 7579  13.281  14.795   9.078 -0.0773  0.2923 -0.0603
  474POPI   C2B 7580  13.297  14.998   8.604  0.2435 -0.1590  0.0879
  474POPI   C3B 7581  13.299  15.198   8.225 -0.2664  0.3532  0.1787
  474POPI   C4B 7582  13.280  15.190   7.848 -0.3410  0.0741  0.1784
  475POPI    C1 7583   9.532   1.214  10.182  0.0571  0.2140  0.0146
  475POPI    C2 7584   9.925   1.266  10.232  0.0339  0.2198  0.1968
  475POPI    C3 7585   9.693   1.182  10.546 -0.0651 -0.0891  0.0443
  475POPI   PO4 7586   9.480   1.384  10.032 -0.0789  0.3190  0.2655
  475POPI   GL1 7587   9.660   1.296   9.656 -0.1459  0.3350 -0.2893
  475POPI   GL2 7588   9.813   1.027   9.760 -0.2867 -0.1302  0.1848
  475POPI   C1A 7589   9.682   1.334   9.143 -0.1296  0.2120 -0.0768
  475POPI   D2A 7590   9.534   1.512   8.774 -0.0947  0.0597  0.0113
  475POPI   C3A 7591   9.638   1.624   8.330 -0.0658 -0.0589  0.2101
  475POPI   C4A 7592   9.798   1.716   7.839 -0.1445 -0.1687 -0.0925
  475POPI   C1B 7593  10.072   1.081   9.348 -0.1086 -0.0940  0.1871
  475POPI   C2B 7594  10.138   1.134   8.863 -0.0946  0.2031 -0.0262
  475POPI   C3B 7595   9.866   1.208   8.515  0.2333 -0.0229  0.1205
  475POPI   C4B 7596   9.929   1.312   8.088  0.0761 -0.1451  0.0125
  476POPI    C1 7597  18.124   6.880  10.064 -0.0086  0.0323  0.0081
  476POPI    C2 7598  17.734   6.931   9.992 -0.0123  0.1577  0.1125
  476POPI    C3 7599  17.873   6.571  10.097 -0.0936  0.1036  0.0354
  476POPI   PO4 7600  18.233   7.051   9.856  0.0417  0.1314 -0.3340
  476POPI   GL1 7601  18.218   6.997   9.571  0.0362 -0.0455  0.2238
  476POPI   GL2 7602  18.086   6.897   9.378  0.0149 -0.4066 -0.0501
  476POPI   C1A 7603  18.208   7.329   9.154  0.1651 -0.0633 -0.0843
  476POPI   D2A 7604  18.222   7.613   8.824  0.0731 -0.1542  0.0637
  476POPI   C3A 7605  18.088   7.501   8.530 -0.2171  0.0073 -0.2125
  476POPI   C4A 7606  18.125   7.701   8.103 -0.1827 -0.2685 -0.0579
  476POPI   C1B 7607  17.908   6.906   8.928 -0.0018 -0.0058 -0.0469
  476POPI   C2B 7608  17.538   6.839   8.982  0.1382  0.0496  0.0591
  476POPI   C3B 7609  17.239   6.882   8.669 -0.2495  0.0145 -0.0568
  476POPI   C4B 7610  16.924   7.117   8.373  0.4833 -0.0608 -0.0725
  477POPI    C1 7611  12.904   3.565  10.205  0.0460  0.0065  0.2189
  477POPI    C2 7612  12.891   3.957  10.123 -0.1849 -0.0140  0.1495
  477POPI    C3 7613  12.711   3.815  10.451 -0.0729 -0.0584  0.1923
  477POPI   PO4 7614  13.186   3.560  10.030  0.2522  0.1507 -0.1557
  477POPI   GL1 7615  13.240   3.606   9.566 -0.1185  0.3462  0.3287
  477POPI   GL2 7616  13.222   3.252   9.629  0.1691 -0.1245  0.0421
  477POPI   C1A 7617  13.398   3.852   9.215 -0.2833  0.2507  0.0147
  477POPI   D2A 7618  13.344   3.960   8.886  0.3687  0.1832 -0.1173
  477POPI   C3A 7619  13.625   4.147   8.537  0.1175 -0.1191  0.4231
  477POPI   C4A 7620  13.677   4.337   8.045  0.0234 -0.2081 -0.2996
  477POPI   C1B 7621  12.865   3.290   9.387 -0.3179  0.1507  0.0641
  477POPI   C2B 7622  12.659   3.287   8.965 -0.2471 -0.1564 -0.0680
  477POPI   C3B 7623  12.600   3.263   8.498  0.0448  0.0464 -0.0970
  477POPI   C4B 7624  12.469   3.146   8.095  0.3535  0.1525 -0.2430
  478POPI    C1 7625  16.273   9.469  10.291  0.0179 -0.0371  0.3419
  478POPI    C2 7626  16.635   9.436  10.458  0.0789  0.0141  0.2216
  478POPI    C3 7627  16.392   9.736  10.564  0.1276  0.0613  0.1992
  478POPI   PO4 7628  16.351   9.349  10.059  0.4363 -0.1460 -0.1672
  478POPI   GL1 7629  16.495   9.058   9.731  0.0436 -0.2499 -0.3365
  478POPI   GL2 7630  16.622   8.821   9.542  0.0896 -0.1880  0.0934
  478POPI   C1A 7631  16.434   9.231   9.317 -0.0104  0.0156  0.4202
  478POPI   D2A 7632  16.041   9.230   9.017 -0.2138 -0.0212 -0.2588
  478POPI   C3A 7633  16.015   8.936   8.623  0.0847  0.1576  0.2645
  478POPI   C4A 7634  16.008   9.138   8.180 -0.2327 -0.0354  0.2785
  478POPI   C1B 7635  16.395   8.787   9.113 -0.0244 -0.1652  0.0239
  478POPI   C2B 7636  16.496   9.032   8.801 -0.0669 -0.1596  0.3047
  478POPI   C3B 7637  16.456   9.134   8.403 -0.2010  0.0520  0.3380
  478POPI   C4B 7638  16.357   8.770   8.191 -0.0691  0.2020  0.2725
  479POPI    C1 7639   4.709   4.945   9.642  0.0257  0.0616  0.1065
  479POPI    C2 7640   4.597   4.873  10.019  0.0454  0.0715  0.1141
  479POPI    C3 7641   4.985   4.885   9.924  0.0431  0.1979  0.1190
  479POPI   PO4 7642   4.515   4.927   9.457 -0.0539 -0.0509  0.0718
  479POPI   GL1 7643   4.299   4.803   9.048 -0.0636 -0.0545  0.0602
  479POPI   GL2 7644   4.412   4.625   9.085  0.1359 -0.0757 -0.2465
  479POPI   C1A 7645   4.181   4.810   8.667  0.0308  0.0852  0.2683
  479POPI   D2A 7646   4.160   4.765   8.263  0.1738 -0.4890  0.3034
  479POPI   C3A 7647   3.913   4.585   8.023 -0.1150  0.0462 -0.0862
  479POPI   C4A 7648   3.611   4.475   8.027  0.2536 -0.0571  0.2847
  479POPI   C1B 7649   4.669   4.519   8.750 -0.2616 -0.0025 -0.3881
  479POPI   C2B 7650   4.590   4.557   8.308  0.5768 -0.2549 -0.2468
  479POPI   C3B 7651   4.837   4.645   7.980  0.0172 -0.0990  0.1527
  479POPI   C4B 7652   5.189   4.842   7.721 -0.2000 -0.0695  0.2021
  480POPI    C1 7653   5.370   9.705   9.649 -0.0858 -0.0270 -0.0710
  480POPI    C2 7654   5.132   9.846   9.938  0.0012  0.0138 -0.0188
  480POPI    C3 7655   5.485   9.683  10.031 -0.0338 -0.1044 -0.0910
  480POPI   PO4 7656   5.237   9.546   9.511 -0.0133  0.2366  0.2499
  480POPI   GL1 7657   5.135   9.365   9.135  0.0216 -0.2087  0.3237
  480POPI   GL2 7658   5.392   9.093   9.251 -0.2616  0.1342 -0.3945
  480POPI   C1A 7659   4.772   9.482   8.885 -0.2443  0.0599  0.1288
  480POPI   D2A 7660   4.405   9.445   8.702  0.0475 -0.2788  0.2128
  480POPI   C3A 7661   4.403   9.683   8.233  0.2612  0.1484 -0.0769
  480POPI   C4A 7662   4.341   9.796   7.835 -0.1240 -0.3663 -0.1234
  480POPI   C1B 7663   5.296   8.930   8.785  0.1586  0.2759  0.0326
  480POPI   C2B 7664   5.282   8.869   8.289  0.1551 -0.2155 -0.0404
  480POPI   C3B 7665   5.189   8.611   7.894  0.3494 -0.3030 -0.2981
  480POPI   C4B 7666   5.247   8.414   7.496 -0.0072  0.1624  0.1023
  481POPI    C1 7667   0.054  11.871  10.451  0.1066  0.1186  0.1336
  481POPI    C2 7668  -0.028  12.247  10.343 -0.3721  0.0681  0.2977
  481POPI    C3 7669  -0.024  12.147  10.730 -0.2039 -0.0878  0.2568
  481POPI   PO4 7670   0.139  11.782  10.190 -0.1876  0.4431 -0.2577
  481POPI   GL1 7671   0.043  11.851   9.755  0.2671  0.1223  0.1528
  481POPI   GL2 7672   0.239  12.134   9.662 -0.3145  0.2909  0.2454
  481POPI   C1A 7673   0.089  11.694   9.317  0.0765  0.0675  0.4508
  481POPI   D2A 7674   0.144  11.455   8.928 -0.0252 -0.2457  0.1349
  481POPI   C3A 7675   0.015  11.601   8.489  0.0409  0.0589 -0.0967
  481POPI   C4A 7676  -0.272  11.595   8.150 -0.0458 -0.2541  0.1095
  481POPI   C1B 7677  -0.197  12.057   9.392 -0.1605  0.1794 -0.1314
  481POPI   C2B 7678  -0.428  12.235   9.006 -0.2346  0.1477 -0.0831
  481POPI   C3B 7679  -0.643  12.389   8.741  0.1614 -0.0734  0.1404
  481POPI   C4B 7680  -0.656  12.434   8.338  0.2482  0.1997  0.3218
  482POPI    C1 7681   0.769   4.139  10.097  0.1357  0.3070  0.2560
  482POPI    C2 7682   1.060   4.015  10.341  0.0272  0.0287  0.2478
  482POPI    C3 7683   0.677   3.970  10.448 -0.0211 -0.1028  0.0242
  482POPI   PO4 7684   0.827   4.460  10.023  0.2710  0.2039  0.2646
  482POPI   GL1 7685   0.707   4.541   9.671  0.0218  0.2886 -0.4457
  482POPI   GL2 7686   0.543   4.200   9.550 -0.0791 -0.2230  0.1423
  482POPI   C1A 7687   0.775   4.618   9.268  0.1712  0.0512  0.2001
  482POPI   D2A 7688   0.995   4.871   8.973  0.1154 -0.0089 -0.0563
  482POPI   C3A 7689   0.914   4.969   8.472  0.2908 -0.1462 -0.3507
  482POPI   C4A 7690   1.071   5.048   8.091 -0.0384  0.1211  0.1144
  482POPI   C1B 7691   0.464   4.037   9.244 -0.1848 -0.4315 -0.2742
  482POPI   C2B 7692   0.225   4.082   8.901 -0.1016  0.4304  0.0356
  482POPI   C3B 7693   0.196   3.982   8.481 -0.0799  0.0733 -0.3158
  482POPI   C4B 7694   0.423   4.032   8.049  0.1188  0.1686 -0.2945
  483POPI    C1 7695   7.192   4.128   9.642  0.1035 -0.2270 -0.0370
  483POPI    C2 7696   7.496   4.256   9.868  0.2234 -0.4699 -0.0575
  483POPI    C3 7697   7.138   4.192  10.033  0.1442 -0.0586 -0.0578
  483POPI   PO4 7698   7.211   4.238   9.443  0.1446 -0.3157 -0.1342
  483POPI   GL1 7699   6.861   4.237   9.134 -0.0795  0.1207  0.0920
  483POPI   GL2 7700   6.634   3.967   9.124  0.0614  0.2385  0.3438
  483POPI   C1A 7701   7.051   4.434   8.762 -0.0664 -0.0339 -0.3784
  483POPI   D2A 7702   7.028   4.889   8.511  0.3551 -0.1805  0.1718
  483POPI   C3A 7703   7.088   4.929   8.111 -0.1254 -0.1689 -0.1347
  483POPI   C4A 7704   6.803   4.809   7.773  0.1225 -0.0001  0.1364
  483POPI   C1B 7705   6.761   3.995   8.712 -0.2310  0.0873  0.1566
  483POPI   C2B 7706   6.968   4.012   8.332  0.0624 -0.2703  0.2088
  483POPI   C3B 7707   6.728   3.981   7.918  0.1121  0.1723 -0.2380
  483POPI   C4B 7708   6.815   3.914   7.461  0.1457 -0.1773  0.2327
  484POPI    C1 7709  18.636   5.960  10.327  0.0697  0.0086  0.1867
  484POPI    C2 7710  18.765   5.582  10.329 -0.0389 -0.0290  0.1562
  484POPI    C3 7711  18.721   5.779  10.674  0.2783  0.0467  0.1570
  484POPI   PO4 7712  18.733   6.036   9.985  0.1139  0.0503  0.3057
  484POPI   GL1 7713  18.901   6.169   9.568  0.0167  0.2573  0.3170
  484POPI   GL2 7714  19.232   6.072   9.423  0.1263  0.0052 -0.0638
  484POPI   C1A 7715  18.704   6.197   9.084  0.1778 -0.2694 -0.1438
  484POPI   D2A 7716  18.613   6.375   8.677 -0.0221 -0.0028 -0.4779
  484POPI   C3A 7717  18.276   6.389   8.317  0.1909  0.0417  0.1722
  484POPI   C4A 7718  17.780   6.641   8.426  0.1217  0.0253 -0.2989
  484POPI   C1B 7719  19.135   5.962   8.902 -0.2443  0.1121  0.1463
  484POPI   C2B 7720  18.999   6.082   8.558 -0.1045 -0.2132 -0.3781
  484POPI   C3B 7721  18.881   6.305   8.265 -0.0516 -0.3414  0.3106
  484POPI   C4B 7722  19.007   6.468   7.782  0.1711 -0.3077  0.1523
  485POPI    C1 7723   6.842  10.793   9.409 -0.1605 -0.1568 -0.2066
  485POPI    C2 7724   6.897  10.419   9.540 -0.0991 -0.0049  0.2171
  485POPI    C3 7725   7.088  10.723   9.717 -0.3934  0.2626  0.0844
  485POPI   PO4 7726   6.537  10.778   9.271  0.2425 -0.2864 -0.0656
  485POPI   GL1 7727   6.312  10.625   8.872  0.0439  0.2544 -0.2716
  485POPI   GL2 7728   6.346  10.316   8.767 -0.1127 -0.0008  0.1829
  485POPI   C1A 7729   6.367  10.850   8.482  0.2546  0.1212  0.0424
  485POPI   D2A 7730   6.279  11.112   8.089 -0.0545 -0.3057  0.1560
  485POPI   C3A 7731   5.997  11.218   7.858  0.0193  0.0896 -0.3064
  485POPI   C4A 7732   5.721  11.386   7.572  0.1675  0.3286 -0.0678
  485POPI   C1B 7733   6.297  10.372   8.282 -0.1987 -0.1505  0.2141
  485POPI   C2B 7734   6.485  10.620   7.969  0.0169  0.0543 -0.0836
  485POPI   C3B 7735   6.374  10.840   7.601 -0.3576 -0.0006  0.1744
  485POPI   C4B 7736   6.093  10.991   7.326 -0.3135  0.0061 -0.3506
  486POPI    C1 7737  16.106   6.176  10.300 -0.0137 -0.2178  0.2428
  486POPI    C2 7738  16.237   6.552  10.327  0.0947 -0.2450  0.1079
  486POPI    C3 7739  15.858   6.465  10.421  0.1074 -0.1262  0.2734
  486POPI   PO4 7740  16.086   6.093  10.076  0.2524 -0.0982 -0.0746
  486POPI   GL1 7741  16.412   5.962   9.633 -0.0714  0.0724 -0.0586
  486POPI   GL2 7742  16.351   5.708   9.619 -0.4359 -0.1799  0.1332
  486POPI   C1A 7743  16.270   5.941   9.237 -0.0230 -0.2291 -0.1203
  486POPI   D2A 7744  16.307   6.020   8.744 -0.3277  0.2318 -0.2733
  486POPI   C3A 7745  16.703   5.811   8.547 -0.0996 -0.0337  0.1149
  486POPI   C4A 7746  17.082   5.879   8.796 -0.0757 -0.1362  0.1909
  486POPI   C1B 7747  16.446   5.436   9.433  0.1353 -0.2145  0.0486
  486POPI   C2B 7748  16.487   5.224   9.052  0.0006  0.2460  0.2157
  486POPI   C3B 7749  16.393   5.362   8.679  0.0936  0.3238 -0.2620
  486POPI   C4B 7750  16.285   5.308   8.153  0.1151  0.2200 -0.2545
  487POPI    C1 7751   2.084   6.333   9.672 -0.0556 -0.1693  0.3596
  487POPI    C2 7752   1.870   6.014   9.561  0.0210 -0.0338 -0.2077
  487POPI    C3 7753   1.692   6.317   9.752 -0.1570 -0.1953 -0.1127
  487POPI   PO4 7754   2.279   6.283   9.498  0.0878  0.1465  0.0859
  487POPI   GL1 7755   2.276   6.268   9.110  0.1757  0.1185  0.3705
  487POPI   GL2 7756   2.038   6.195   9.109  0.0948 -0.0344 -0.1286
  487POPI   C1A 7757   2.355   6.643   8.834 -0.0076 -0.2573 -0.0117
  487POPI   D2A 7758   2.470   6.647   8.418 -0.0858 -0.0235 -0.3177
  487POPI   C3A 7759   2.833   6.354   8.281  0.2904 -0.4172  0.0507
  487POPI   C4A 7760   3.166   5.995   8.179 -0.0350 -0.1386 -0.0610
  487POPI   C1B 7761   1.887   6.437   8.806 -0.0273  0.0233 -0.0896
  487POPI   C2B 7762   1.966   6.694   8.474 -0.2345  0.1810  0.3830
  487POPI   C3B 7763   2.030   6.745   8.115  0.2353 -0.1179 -0.1217
  487POPI   C4B 7764   2.390   6.705   7.853 -0.3462  0.2157 -0.4134
  488POPI    C1 7765   2.525   4.390   9.684  0.2777  0.2940 -0.0030
  488POPI    C2 7766   2.856   4.405   9.908  0.1681  0.1905  0.1684
  488POPI    C3 7767   2.510   4.288  10.071  0.1327 -0.1040 -0.1089
  488POPI   PO4 7768   2.675   4.296   9.425  0.1109  0.2142 -0.2507
  488POPI   GL1 7769   2.636   3.860   9.283  0.1219  0.1166 -0.0161
  488POPI   GL2 7770   2.596   4.039   8.985 -0.2426  0.2442  0.2439
  488POPI   C1A 7771   2.487   3.512   9.057  0.2621 -0.0195  0.0767
  488POPI   D2A 7772   2.256   3.575   8.636  0.0113  0.1568  0.3586
  488POPI   C3A 7773   2.381   3.780   8.200 -0.2252 -0.1432  0.3270
  488POPI   C4A 7774   2.283   3.937   7.783  0.0738 -0.1570  0.5616
  488POPI   C1B 7775   2.710   3.808   8.771 -0.2390  0.1755  0.1505
  488POPI   C2B 7776   2.888   3.777   8.360 -0.1875  0.3362 -0.1174
  488POPI   C3B 7777   2.813   3.710   7.910  0.0562  0.0040  0.0769
  488POPI   C4B 7778   2.773   3.847   7.513 -0.0681  0.1118  0.1945
  489POPI    C1 7779  12.154  17.294  10.135  0.0555  0.1970  0.0549
  489POPI    C2 7780  11.784  17.268  10.284 -0.0389 -0.0011 -0.2079
  489POPI    C3 7781  12.099  17.196  10.519 -0.1727  0.0119 -0.0227
  489POPI   PO4 7782  12.199  17.561  10.000 -0.2007  0.0248  0.1957
  489POPI   GL1 7783  12.131  17.950   9.670 -0.3053 -0.2354 -0.1633
  489POPI   GL2 7784  11.964  17.794   9.609 -0.3336  0.3052 -0.1864
  489POPI   C1A 7785  12.250  18.297   9.235  0.0783 -0.0127  0.2468
  489POPI   D2A 7786  12.160  18.456   8.827 -0.4037 -0.0215  0.0900
  489POPI   C3A 7787  12.132  18.396   8.351  0.0685  0.0508 -0.1443
  489POPI   C4A 7788  11.971  18.285   7.913 -0.1394  0.0069  0.1204
  489POPI   C1B 7789  11.713  17.927   9.330  0.1024  0.1110  0.1475
  489POPI   C2B 7790  11.502  17.878   8.973 -0.4244  0.0197 -0.2763
  489POPI   C3B 7791  11.265  17.762   8.673  0.0800 -0.3190  0.2930
  489POPI   C4B 7792  11.347  17.684   8.282 -0.3864 -0.0585 -0.3098
  490POPI    C1 7793   7.587  18.995   9.704 -0.3204  0.1635 -0.0035
  490POPI    C2 7794   7.793  19.153  10.009 -0.0663  0.1415 -0.1605
  490POPI    C3 7795   7.763  18.756   9.972  0.1413  0.1383 -0.3162
  490POPI   PO4 7796   7.699  19.096   9.513  0.1642 -0.2661  0.1695
  490POPI   GL1 7797   7.923  19.116   9.096  0.0109 -0.0542  0.2429
  490POPI   GL2 7798   8.294  18.967   9.104 -0.3342  0.1390  0.0497
  490POPI   C1A 7799   7.833  19.321   8.737  0.2769  0.3649 -0.0213
  490POPI   D2A 7800   7.717  19.221   8.423 -0.2540  0.1938 -0.0182
  490POPI   C3A 7801   7.746  19.097   7.944 -0.0910  0.1775  0.0226
  490POPI   C4A 7802   7.889  19.251   7.601  0.0170  0.3285 -0.0157
  490POPI   C1B 7803   8.284  19.245   8.606  0.0897  0.0623 -0.0119
  490POPI   C2B 7804   8.183  19.311   8.189 -0.3066 -0.0160  0.1722
  490POPI   C3B 7805   8.265  19.067   7.796 -0.0953  0.1102 -0.1785
  490POPI   C4B 7806   8.255  19.105   7.385  0.0741 -0.0805 -0.0666
  491POPI    C1 7807   5.036   7.598   9.956  0.0271  0.0509 -0.0380
  491POPI    C2 7808   5.359   7.602   9.720 -0.0585  0.1526 -0.1545
  491POPI    C3 7809   5.294   7.293   9.965  0.2497  0.2383  0.0407
  491POPI   PO4 7810   4.839   7.657   9.737 -0.0864  0.1037  0.3675
  491POPI   GL1 7811   5.019   7.649   9.270  0.0030 -0.0775 -0.2814
  491POPI   GL2 7812   4.629   7.632   9.087  0.1143 -0.0834 -0.0780
  491POPI   C1A 7813   5.071   7.325   9.028 -0.0165  0.1067  0.0207
  491POPI   D2A 7814   5.039   6.973   8.783 -0.1344 -0.0269  0.2627
  491POPI   C3A 7815   4.927   7.126   8.541 -0.0845  0.0596  0.2951
  491POPI   C4A 7816   4.514   7.268   8.521 -0.2059  0.0691 -0.2532
  491POPI   C1B 7817   4.792   7.726   8.681  0.1446  0.3206  0.0670
  491POPI   C2B 7818   4.884   7.564   8.283  0.3335 -0.2298 -0.0721
  491POPI   C3B 7819   4.960   7.753   7.821 -0.0039 -0.1057 -0.1037
  491POPI   C4B 7820   4.720   7.401   7.405  0.0613 -0.0812  0.0391
  492POPI    C1 7821  11.705   3.095   9.969 -0.0840  0.0626 -0.0099
  492POPI    C2 7822  11.508   3.091  10.317  0.0661 -0.0435  0.0750
  492POPI    C3 7823  11.889   2.972  10.302  0.0989  0.0801 -0.1034
  492POPI   PO4 7824  11.762   3.354   9.799  0.0511  0.1180  0.1788
  492POPI   GL1 7825  11.632   3.677   9.488  0.0997  0.1677 -0.1126
  492POPI   GL2 7826  11.899   3.774   9.383  0.3335  0.3085  0.1163
  492POPI   C1A 7827  11.470   3.601   9.039 -0.2721  0.0670 -0.3304
  492POPI   D2A 7828  11.217   3.310   8.826 -0.2819  0.0446  0.2097
  492POPI   C3A 7829  11.531   3.392   8.442 -0.0426 -0.2123 -0.0472
  492POPI   C4A 7830  11.656   3.500   7.978  0.4206 -0.0549 -0.1211
  492POPI   C1B 7831  12.052   3.986   9.033  0.0733 -0.0792 -0.2018
  492POPI   C2B 7832  12.270   4.251   8.614 -0.2231 -0.1185  0.1681
  492POPI   C3B 7833  12.242   4.432   8.194 -0.3168  0.2913  0.1342
  492POPI   C4B 7834  12.362   4.611   7.756  0.1615  0.2555 -0.1428
  493POPI    C1 7835  12.438   1.891  10.165  0.2372 -0.0910 -0.2472
  493POPI    C2 7836  12.533   2.109   9.843  0.1277  0.2499 -0.0538
  493POPI    C3 7837  12.155   2.099   9.974  0.1058 -0.1649 -0.1346
  493POPI   PO4 7838  12.661   1.696  10.175  0.2602 -0.0692  0.0245
  493POPI   GL1 7839  12.898   1.779   9.702 -0.0815 -0.2641  0.2357
  493POPI   GL2 7840  12.885   2.025   9.507  0.1777 -0.2625 -0.1224
  493POPI   C1A 7841  12.458   1.673   9.541 -0.2518 -0.0614 -0.2164
  493POPI   D2A 7842  12.142   1.325   9.311 -0.0050  0.3589 -0.1380
  493POPI   C3A 7843  12.124   1.468   8.830  0.3789  0.0421 -0.5970
  493POPI   C4A 7844  12.137   1.663   8.405  0.0914  0.1700  0.0994
  493POPI   C1B 7845  12.752   1.979   9.193  0.2243  0.1405 -0.0008
  493POPI   C2B 7846  12.658   1.635   8.953 -0.0761 -0.4729  0.0028
  493POPI   C3B 7847  12.632   1.523   8.559 -0.0268 -0.1909 -0.1605
  493POPI   C4B 7848  12.735   1.352   8.145 -0.1797  0.0558  0.2720
  494POPI    C1 7849   9.100   8.760  10.003  0.1101 -0.0235 -0.1016
  494POPI    C2 7850   8.797   8.993  10.122 -0.0096 -0.0264 -0.3911
  494POPI    C3 7851   8.869   8.647  10.310 -0.1387  0.0096 -0.2730
  494POPI   PO4 7852   9.035   8.863   9.656 -0.1030 -0.0592  0.2952
  494POPI   GL1 7853   9.039   9.021   9.197 -0.0736  0.3261  0.0279
  494POPI   GL2 7854   9.054   9.233   8.976  0.0512  0.0439  0.1869
  494POPI   C1A 7855   8.934   8.745   8.989 -0.3469 -0.1925 -0.2906
  494POPI   D2A 7856   8.771   8.551   8.674 -0.3437  0.0411  0.1335
  494POPI   C3A 7857   8.888   8.454   8.275 -0.1388 -0.1830  0.0154
  494POPI   C4A 7858   8.913   8.423   7.823 -0.0253  0.2032 -0.1033
  494POPI   C1B 7859   9.501   9.127   8.919 -0.0684 -0.3345 -0.1550
  494POPI   C2B 7860   9.544   9.239   8.462  0.0493  0.0844  0.0908
  494POPI   C3B 7861   9.729   9.036   8.106  0.0620  0.1724  0.0001
  494POPI   C4B 7862  10.129   8.848   8.214 -0.3810 -0.0526 -0.0047
  495POPI    C1 7863  15.850   8.208  10.227 -0.1212 -0.0581 -0.0234
  495POPI    C2 7864  15.984   7.832  10.206 -0.0176 -0.0198 -0.0530
  495POPI    C3 7865  15.980   8.024  10.557  0.0502 -0.0050 -0.0601
  495POPI   PO4 7866  15.932   8.261   9.896 -0.1140 -0.0081 -0.0662
  495POPI   GL1 7867  16.112   8.262   9.449  0.1602  0.3185 -0.0190
  495POPI   GL2 7868  16.456   8.364   9.395  0.2091  0.1956 -0.3260
  495POPI   C1A 7869  16.242   7.875   9.220 -0.0850  0.1101  0.2108
  495POPI   D2A 7870  16.230   7.880   8.753 -0.0653 -0.0994  0.0284
  495POPI   C3A 7871  15.999   7.966   8.375 -0.2216 -0.0542 -0.0710
  495POPI   C4A 7872  15.700   7.891   8.663  0.5550  0.1627  0.3673
  495POPI   C1B 7873  16.324   8.323   8.928 -0.5488 -0.0517 -0.2832
  495POPI   C2B 7874  16.339   8.265   8.462 -0.1365  0.0273 -0.0557
  495POPI   C3B 7875  16.307   8.253   8.021  0.1556  0.1998 -0.0416
  495POPI   C4B 7876  15.901   8.166   7.766  0.2055  0.1560  0.2673
  496POPI    C1 7877  13.060   0.678  10.287 -0.0830 -0.0321  0.1095
  496POPI    C2 7878  12.979   0.472  10.620 -0.5353  0.0301  0.0443
  496POPI    C3 7879  12.802   0.824  10.555 -0.1905  0.1801 -0.1062
  496POPI   PO4 7880  12.972   0.555  10.122  0.0387 -0.0394  0.0394
  496POPI   GL1 7881  12.883   0.222   9.866  0.4091 -0.1197 -0.1401
  496POPI   GL2 7882  13.119  -0.053   9.736  0.1644  0.3977 -0.1737
  496POPI   C1A 7883  12.485   0.152   9.634 -0.0660  0.0373 -0.7064
  496POPI   D2A 7884  12.221   0.099   9.210 -0.0319 -0.1698  0.1282
  496POPI   C3A 7885  12.278   0.368   8.936 -0.0620  0.2619 -0.0226
  496POPI   C4A 7886  12.299   0.327   8.512 -0.0228 -0.0600  0.1446
  496POPI   C1B 7887  12.918  -0.083   9.413 -0.1644  0.1123 -0.0148
  496POPI   C2B 7888  12.743   0.093   9.154  0.0887  0.0167 -0.1170
  496POPI   C3B 7889  12.657   0.004   8.723 -0.0563  0.1339 -0.0867
  496POPI   C4B 7890  12.838  -0.146   8.341 -0.4336 -0.0052 -0.1164
  497POPI    C1 7891  14.081  17.405  10.174  0.0851 -0.1591 -0.0264
  497POPI    C2 7892  14.478  17.372  10.135  0.1090 -0.0530  0.1217
  497POPI    C3 7893  14.311  17.364  10.498  0.0026  0.1933  0.0806
  497POPI   PO4 7894  14.035  17.242   9.872 -0.2618  0.0127 -0.0954
  497POPI   GL1 7895  13.796  17.226   9.577 -0.3215  0.3159  0.1449
  497POPI   GL2 7896  13.906  17.610   9.495  0.1444 -0.1428 -0.2140
  497POPI   C1A 7897  13.679  17.164   9.213  0.1623  0.1878 -0.1846
  497POPI   D2A 7898  13.714  17.293   8.820 -0.2276  0.2751  0.1430
  497POPI   C3A 7899  13.604  17.493   8.407 -0.1527 -0.0765 -0.0595
  497POPI   C4A 7900  13.619  17.422   7.953 -0.2495 -0.0201 -0.0712
  497POPI   C1B 7901  13.840  17.764   9.015 -0.1968 -0.2500  0.2865
  497POPI   C2B 7902  13.570  17.788   8.833  0.1279  0.0789 -0.0378
  497POPI   C3B 7903  13.530  17.952   8.496  0.1095  0.0282 -0.0884
  497POPI   C4B 7904  13.553  18.016   8.062 -0.1271 -0.0727  0.0503
  498POPI    C1 7905  12.519  12.354   9.939  0.0181 -0.2774 -0.1003
  498POPI    C2 7906  12.626  12.732  10.016 -0.0910 -0.2361 -0.1506
  498POPI    C3 7907  12.819  12.430  10.193 -0.4292 -0.1410  0.4069
  498POPI   PO4 7908  12.447  12.332   9.707 -0.1300 -0.2214  0.3255
  498POPI   GL1 7909  12.600  12.390   9.293 -0.0583  0.5722 -0.1358
  498POPI   GL2 7910  12.605  12.550   9.133 -0.1321  0.1187 -0.1973
  498POPI   C1A 7911  12.476  12.006   8.976  0.0889  0.0370  0.1128
  498POPI   D2A 7912  12.500  11.753   8.643  0.0539 -0.2782 -0.2634
  498POPI   C3A 7913  12.444  11.688   8.214  0.0531  0.1850  0.0956
  498POPI   C4A 7914  12.283  11.740   7.786  0.3113 -0.0827 -0.2364
  498POPI   C1B 7915  12.918  12.250   8.869  0.3088 -0.2595 -0.1743
  498POPI   C2B 7916  13.129  12.333   8.485 -0.0704 -0.0290  0.0361
  498POPI   C3B 7917  13.422  12.718   8.393  0.1261 -0.2759 -0.2674
  498POPI   C4B 7918  13.690  13.003   8.165  0.1111 -0.2343  0.0447
  499POPI    C1 7919  16.855  17.086  10.688  0.1692  0.4470 -0.1533
  499POPI    C2 7920  16.569  17.364  10.722 -0.0993  0.1998 -0.3375
  499POPI    C3 7921  16.646  17.117  11.027 -0.1893  0.1668 -0.3412
  499POPI   PO4 7922  16.832  17.037  10.433 -0.1575  0.0933  0.0833
  499POPI   GL1 7923  17.016  17.161  10.038  0.1028 -0.3209  0.1746
  499POPI   GL2 7924  16.833  17.434   9.944  0.0498 -0.0602  0.3802
  499POPI   C1A 7925  17.304  17.308   9.624 -0.0317  0.0025 -0.0730
  499POPI   D2A 7926  17.548  17.377   9.241 -0.0100 -0.1282  0.2786
  499POPI   C3A 7927  17.635  17.156   8.877 -0.3694  0.2375  0.3398
  499POPI   C4A 7928  17.767  17.026   8.544 -0.0943 -0.0838 -0.2871
  499POPI   C1B 7929  16.809  17.220   9.551  0.2489 -0.0071  0.0694
  499POPI   C2B 7930  16.985  17.285   9.171  0.0143 -0.1974  0.3967
  499POPI   C3B 7931  17.203  17.365   8.739 -0.1023  0.4624  0.0110
  499POPI   C4B 7932  17.183  17.662   8.294  0.0957 -0.1131  0.2002
  500POPI    C1 7933   0.755  12.581  10.286 -0.0429 -0.0355 -0.1752
  500POPI    C2 7934   0.415  12.500  10.480 -0.0430  0.1801 -0.0820
  500POPI    C3 7935   0.740  12.612  10.685  0.0874 -0.0312 -0.1702
  500POPI   PO4 7936   0.725  12.735  10.113 -0.1379 -0.0206  0.0088
  500POPI   GL1 7937   0.540  12.695   9.724  0.0925 -0.1585 -0.3116
  500POPI   GL2 7938   0.501  13.002   9.735 -0.1551  0.0574  0.0149
  500POPI   C1A 7939   0.171  12.736   9.411  0.3870 -0.3835 -0.1516
  500POPI   D2A 7940   0.007  13.089   9.132  0.2468 -0.1816 -0.0617
  500POPI   C3A 7941   0.207  13.352   8.921  0.1855  0.0254 -0.2690
  500POPI   C4A 7942   0.343  13.653   8.576  0.2265 -0.0617 -0.0522
  500POPI   C1B 7943   0.503  13.073   9.251 -0.0731  0.1138  0.1273
  500POPI   C2B 7944   0.419  12.920   8.826  0.0914 -0.0901  0.0027
  500POPI   C3B 7945   0.670  12.616   8.533 -0.1032  0.1285 -0.1555
  500POPI   C4B 7946   1.040  12.609   8.318  0.0143 -0.0437 -0.3395
  501POPI    C1 7947   2.765  15.940  10.105  0.1167  0.0850  0.1597
  501POPI    C2 7948   2.650  15.572  10.210  0.1630  0.0890  0.2257
  501POPI    C3 7949   2.521  15.889  10.417  0.0624  0.1163  0.1225
  501POPI   PO4 7950   2.798  15.861   9.806  0.2214  0.0324  0.0420
  501POPI   GL1 7951   2.850  15.628   9.395  0.1115 -0.1553 -0.0841
  501POPI   GL2 7952   3.073  15.633   9.147  0.2093 -0.1721  0.1540
  501POPI   C1A 7953   2.568  15.355   9.229 -0.1142  0.2728  0.0440
  501POPI   D2A 7954   2.496  15.247   8.769 -0.2652  0.0213  0.3772
  501POPI   C3A 7955   2.587  15.099   8.331 -0.1029 -0.0889  0.2309
  501POPI   C4A 7956   2.724  15.042   8.022 -0.6004  0.0465 -0.0443
  501POPI   C1B 7957   2.947  15.704   8.791  0.1605 -0.0335 -0.5128
  501POPI   C2B 7958   2.717  15.556   8.363 -0.1569 -0.0177  0.0265
  501POPI   C3B 7959   2.569  15.524   7.937  0.3528 -0.1379 -0.2047
  501POPI   C4B 7960   2.468  15.814   7.552 -0.1524  0.1988 -0.1743
  502POPI    C1 7961  12.485   4.413  10.100 -0.2001 -0.1267  0.0104
  502POPI    C2 7962  12.714   4.291  10.404  0.0839  0.2988 -0.0257
  502POPI    C3 7963  12.317   4.311  10.448  0.1048  0.1577  0.2467
  502POPI   PO4 7964  12.591   4.315   9.890  0.3602  0.3290 -0.2193
  502POPI   GL1 7965  12.945   4.210   9.635 -0.0148  0.3402  0.2778
  502POPI   GL2 7966  13.267   4.059   9.722  0.1921  0.0934 -0.2315
  502POPI   C1A 7967  12.948   3.842   9.299  0.2355  0.1871 -0.2369
  502POPI   D2A 7968  13.123   3.494   9.069 -0.1207 -0.0850 -0.1233
  502POPI   C3A 7969  13.039   3.616   8.670 -0.0253  0.1782  0.2274
  502POPI   C4A 7970  13.079   3.896   8.421  0.0074  0.3569  0.2021
  502POPI   C1B 7971  13.524   4.401   9.573 -0.3739 -0.1131 -0.0519
  502POPI   C2B 7972  13.608   4.376   9.113 -0.2340 -0.1386  0.0485
  502POPI   C3B 7973  13.719   4.575   8.739 -0.0791 -0.0264 -0.2187
  502POPI   C4B 7974  13.523   4.788   8.394  0.1578  0.0076  0.3095
  503POPI    C1 7975  17.949  17.179  10.523 -0.1826  0.0447 -0.1680
  503POPI    C2 7976  17.727  17.469  10.687  0.0239  0.0671  0.0792
  503POPI    C3 7977  17.706  17.096  10.830 -0.1226 -0.0085 -0.1346
  503POPI   PO4 7978  17.875  17.122  10.291 -0.2219 -0.2047  0.0887
  503POPI   GL1 7979  17.793  17.226   9.743 -0.0484  0.3192 -0.1016
  503POPI   GL2 7980  17.875  16.914   9.722  0.1960  0.0723  0.1964
  503POPI   C1A 7981  17.973  17.102   9.293 -0.3306  0.2988  0.1813
  503POPI   D2A 7982  18.120  17.324   8.901 -0.2585  0.3440  0.1935
  503POPI   C3A 7983  18.215  17.205   8.498 -0.0832 -0.1122 -0.3072
  503POPI   C4A 7984  18.638  17.099   8.275 -0.2362  0.0083  0.0369
  503POPI   C1B 7985  17.664  16.619   9.605 -0.0483  0.1657 -0.0196
  503POPI   C2B 7986  17.663  16.601   9.128  0.2572 -0.3059  0.1987
  503POPI   C3B 7987  17.665  16.598   8.769 -0.0743 -0.1414  0.1998
  503POPI   C4B 7988  17.709  16.510   8.271 -0.3511  0.0900 -0.1626
  504POPI    C1 7989  14.968  17.403  10.371 -0.1383 -0.0180 -0.2868
  504POPI    C2 7990  14.763  17.741  10.428 -0.1563 -0.0742  0.0026
  504POPI    C3 7991  15.141  17.713  10.557 -0.0892 -0.0990 -0.1959
  504POPI   PO4 7992  14.974  17.279  10.244 -0.0501 -0.2832 -0.0023
  504POPI   GL1 7993  14.970  17.242   9.745  0.1250 -0.0224  0.0517
  504POPI   GL2 7994  14.893  17.341   9.568  0.2434  0.4716 -0.0617
  504POPI   C1A 7995  15.105  16.864   9.507 -0.0611 -0.0015  0.2094
  504POPI   D2A 7996  15.157  16.629   9.235 -0.5589  0.3138 -0.0107
  504POPI   C3A 7997  14.861  16.405   8.945 -0.2207 -0.0911 -0.2120
  504POPI   C4A 7998  14.668  16.726   8.712  0.4571 -0.0718 -0.0839
  504POPI   C1B 7999  14.771  17.560   9.258  0.2001 -0.2280 -0.0961
  504POPI   C2B 8000  14.701  17.803   8.815  0.2353  0.0033  0.0101
  504POPI   C3B 8001  14.485  18.018   8.427 -0.2811 -0.3641  0.2491
  504POPI   C4B 8002  14.564  18.037   8.045 -0.1132  0.1545  0.2908
  505POPI    C1 8003  11.781   2.428  10.015  0.0934  0.0046 -0.1512
  505POPI    C2 8004  11.450   2.636   9.933  0.0575  0.0153  0.0187
  505POPI    C3 8005  11.546   2.554  10.313  0.0572 -0.3009 -0.0473
  505POPI   PO4 8006  11.964   2.538   9.894  0.2174  0.0033  0.1379
  505POPI   GL1 8007  12.243   2.551   9.565 -0.2733 -0.0309  0.1063
  505POPI   GL2 8008  12.340   2.277   9.415 -0.0307  0.2832 -0.2035
  505POPI   C1A 8009  11.966   2.525   9.153  0.1858  0.0152 -0.1876
  505POPI   D2A 8010  12.018   2.452   8.716 -0.4589  0.0897  0.1409
  505POPI   C3A 8011  12.431   2.643   8.555  0.0149 -0.0593 -0.2049
  505POPI   C4A 8012  12.753   2.798   8.274 -0.0557 -0.3463 -0.1535
  505POPI   C1B 8013  12.161   1.878   9.163 -0.0783 -0.1131 -0.1449
  505POPI   C2B 8014  11.966   1.966   8.835  0.2716 -0.1739  0.2376
  505POPI   C3B 8015  11.656   1.792   8.601  0.2014  0.0367 -0.1934
  505POPI   C4B 8016  11.366   1.479   8.411  0.0607 -0.2763 -0.0383
  506POPI    C1 8017   4.231  10.950   9.946 -0.1605 -0.1530  0.0272
  506POPI    C2 8018   4.429  10.627  10.075  0.2716  0.0565 -0.0941
  506POPI    C3 8019   4.583  10.992  10.131 -0.1146  0.2308 -0.1386
  506POPI   PO4 8020   4.113  10.872   9.689 -0.1577  0.0683  0.2499
  506POPI   GL1 8021   4.135  10.935   9.262 -0.0405  0.1866 -0.3521
  506POPI   GL2 8022   4.306  10.989   9.036  0.0760  0.2433  0.1430
  506POPI   C1A 8023   3.870  10.687   8.914 -0.3059  0.4478 -0.0533
  506POPI   D2A 8024   3.716  10.186   9.045 -0.3639 -0.1859 -0.2536
  506POPI   C3A 8025   3.553   9.885   8.792  0.4961 -0.0730 -0.0281
  506POPI   C4A 8026   3.351   9.877   8.371 -0.1186 -0.0267 -0.0826
  506POPI   C1B 8027   4.130  10.869   8.584 -0.3450 -0.0871 -0.0792
  506POPI   C2B 8028   3.885  10.860   8.359 -0.1882  0.2393 -0.1350
  506POPI   C3B 8029   3.514  10.737   8.272 -0.0599 -0.1773 -0.1275
  506POPI   C4B 8030   3.293  10.524   8.063 -0.1445  0.1159  0.1177
  507POPI    C1 8031  13.528   6.011  10.481  0.1052  0.1093 -0.1243
  507POPI    C2 8032  13.728   5.737  10.692  0.0394  0.1856  0.0389
  507POPI    C3 8033  13.451   5.963  10.871  0.0847  0.3506 -0.0975
  507POPI   PO4 8034  13.477   5.933  10.263  0.0375  0.0377 -0.0612
  507POPI   GL1 8035  13.542   5.744   9.783 -0.2537 -0.1682 -0.1893
  507POPI   GL2 8036  13.753   5.894   9.559 -0.0752  0.1478 -0.1738
  507POPI   C1A 8037  13.374   5.561   9.319  0.2381  0.3348  0.2594
  507POPI   D2A 8038  13.532   5.525   8.982 -0.1477 -0.0063  0.2755
  507POPI   C3A 8039  13.805   5.154   8.779 -0.4426  0.1493  0.1591
  507POPI   C4A 8040  14.101   4.875   8.557 -0.0005 -0.2723 -0.1074
  507POPI   C1B 8041  13.933   5.757   9.154 -0.0326 -0.2274  0.0722
  507POPI   C2B 8042  14.015   5.636   8.751 -0.2007  0.1655 -0.2325
  507POPI   C3B 8043  14.195   5.350   8.471 -0.0037 -0.2423 -0.0199
  507POPI   C4B 8044  14.242   5.247   8.082 -0.2567  0.0463 -0.4172
  508POPI    C1 8045   6.739   8.643   9.709 -0.1191  0.1265 -0.1740
  508POPI    C2 8046   6.492   8.551  10.009  0.0347  0.0935 -0.0561
  508POPI    C3 8047   6.582   8.934   9.934  0.0291  0.0994 -0.0331
  508POPI   PO4 8048   6.609   8.548   9.503  0.0789 -0.1119  0.1118
  508POPI   GL1 8049   6.645   8.362   9.161  0.0764  0.1430  0.1373
  508POPI   GL2 8050   6.498   8.078   9.130 -0.3259 -0.5092  0.4099
  508POPI   C1A 8051   6.820   8.376   8.727  0.0008 -0.1031 -0.1251
  508POPI   D2A 8052   7.106   8.670   8.519  0.0403  0.1309  0.0058
  508POPI   C3A 8053   7.049   8.692   8.176 -0.1876  0.0336 -0.0719
  508POPI   C4A 8054   7.208   8.992   7.918 -0.3635  0.1566  0.0941
  508POPI   C1B 8055   6.383   8.179   8.751  0.1946 -0.1641 -0.5564
  508POPI   C2B 8056   6.127   8.465   8.436 -0.2120 -0.1176 -0.0344
  508POPI   C3B 8057   5.865   8.476   8.020  0.2948  0.1522  0.0409
  508POPI   C4B 8058   5.709   8.340   7.613 -0.0335 -0.1226  0.1229
  509POPI    C1 8059  12.274  15.228   9.645  0.1569  0.0581 -0.0964
  509POPI    C2 8060  12.145  15.330  10.010 -0.1255  0.2270 -0.2403
  509POPI    C3 8061  12.142  15.599   9.714 -0.1265  0.0236 -0.4276
  509POPI   PO4 8062  12.114  14.917   9.544  0.2596 -0.2630  0.2481
  509POPI   GL1 8063  11.804  14.844   9.269  0.0236 -0.1104 -0.0489
  509POPI   GL2 8064  11.550  14.747   9.198 -0.1157  0.1756  0.0837
  509POPI   C1A 8065  11.866  14.831   8.678  0.1344 -0.1062 -0.0571
  509POPI   D2A 8066  11.803  14.716   8.292 -0.1420  0.2638  0.2700
  509POPI   C3A 8067  11.556  15.045   8.057 -0.0074  0.0053 -0.1820
  509POPI   C4A 8068  11.339  15.214   7.692  0.1420  0.1279  0.1615
  509POPI   C1B 8069  11.391  14.624   8.825  0.1260  0.3263 -0.0145
  509POPI   C2B 8070  11.338  14.617   8.455  0.0392 -0.1375  0.1609
  509POPI   C3B 8071  11.312  14.453   7.990  0.1661  0.0583 -0.0984
  509POPI   C4B 8072  11.484  14.730   7.666  0.1172 -0.1399  0.0720
  510POPI    C1 8073  15.004  17.791   9.766 -0.1604 -0.0259  0.0227
  510POPI    C2 8074  15.237  17.758  10.090 -0.0351 -0.0531 -0.0691
  510POPI    C3 8075  15.351  17.593   9.744  0.0007  0.2733 -0.2173
  510POPI   PO4 8076  14.776  17.707   9.919  0.2263 -0.3224  0.2630
  510POPI   GL1 8077  14.465  17.528   9.667 -0.2906  0.0354  0.0273
  510POPI   GL2 8078  14.322  17.331   9.399 -0.1578 -0.0937  0.2211
  510POPI   C1A 8079  14.417  17.878   9.310 -0.0237  0.0220 -0.1166
  510POPI   D2A 8080  14.210  18.171   8.952 -0.4812 -0.1229  0.2393
  510POPI   C3A 8081  13.937  18.254   8.575  0.1020 -0.0403 -0.0642
  510POPI   C4A 8082  13.891  18.343   8.164 -0.1404 -0.1457  0.0778
  510POPI   C1B 8083  14.264  17.517   8.893  0.0595  0.0198 -0.2144
  510POPI   C2B 8084  14.046  17.755   8.573  0.3959 -0.2132 -0.1039
  510POPI   C3B 8085  13.976  17.781   8.171 -0.0439 -0.2944 -0.1678
  510POPI   C4B 8086  14.069  17.727   7.811  0.0374  0.0699  0.1117
  511POPI    C1 8087   3.215   7.262   9.998 -0.1914 -0.1587 -0.0866
  511POPI    C2 8088   3.279   7.594   9.786  0.0186 -0.1557 -0.0213
  511POPI    C3 8089   3.115   7.618  10.150  0.2113 -0.1035  0.0635
  511POPI   PO4 8090   3.023   7.142   9.758  0.0708  0.4451 -0.1229
  511POPI   GL1 8091   3.156   6.953   9.387  0.3107 -0.1886  0.0056
  511POPI   GL2 8092   3.414   7.287   9.325  0.2074  0.1157 -0.0802
  511POPI   C1A 8093   3.050   6.847   8.961 -0.2348  0.0493 -0.0595
  511POPI   D2A 8094   2.910   6.686   8.639 -0.1044  0.0438 -0.0441
  511POPI   C3A 8095   2.917   6.921   8.332 -0.1280  0.0397 -0.2209
  511POPI   C4A 8096   2.798   7.326   8.285  0.2021  0.2490 -0.4272
  511POPI   C1B 8097   3.061   7.340   8.905 -0.2276  0.1229  0.1518
  511POPI   C2B 8098   3.020   7.624   8.608 -0.0385 -0.2697 -0.0833
  511POPI   C3B 8099   3.123   7.701   8.195 -0.2833  0.1318 -0.1078
  511POPI   C4B 8100   3.093   7.565   7.757 -0.3220  0.1054 -0.0378
  512POPI    C1 8101  18.375   6.466   9.889  0.0328 -0.1092  0.0443
  512POPI    C2 8102  18.193   6.131  10.010  0.2309 -0.2333  0.0039
  512POPI    C3 8103  18.361   6.376  10.278 -0.1246 -0.0388  0.0556
  512POPI   PO4 8104  18.451   6.368   9.666 -0.0070  0.2366  0.0615
  512POPI   GL1 8105  18.229   6.367   9.275  0.0439  0.0820  0.2696
  512POPI   GL2 8106  17.939   6.349   9.120 -0.1522 -0.1832 -0.0977
  512POPI   C1A 8107  18.245   5.892   9.148 -0.0391  0.3830  0.2300
  512POPI   D2A 8108  18.259   5.472   9.058  0.2014 -0.0402  0.1434
  512POPI   C3A 8109  18.104   5.538   8.685 -0.2641  0.1460 -0.3161
  512POPI   C4A 8110  17.751   5.495   8.350  0.0326 -0.0171 -0.2472
  512POPI   C1B 8111  18.131   6.309   8.806  0.1634  0.2963  0.0261
  512POPI   C2B 8112  17.929   6.115   8.451  0.0856  0.3542 -0.0648
  512POPI   C3B 8113  17.787   5.948   8.110  0.1240 -0.0230  0.2919
  512POPI   C4B 8114  18.089   6.026   7.773  0.0965  0.2770 -0.1527
  513POPI    C1 8115  10.973  14.769   9.802 -0.1043  0.1606  0.0223
  513POPI    C2 8116  11.305  14.882   9.609 -0.1087 -0.0320 -0.1003
  513POPI    C3 8117  11.306  14.548   9.830 -0.2295 -0.0502 -0.1266
  513POPI   PO4 8118  10.780  14.760   9.626 -0.2173  0.0377 -0.5206
  513POPI   GL1 8119  10.655  14.820   9.206 -0.1435  0.3232 -0.1781
  513POPI   GL2 8120  10.970  14.998   9.206  0.0725  0.1690 -0.0720
  513POPI   C1A 8121  10.433  14.553   8.914  0.0513 -0.0171 -0.0979
  513POPI   D2A 8122  10.490  14.482   8.535 -0.1192 -0.0763 -0.3514
  513POPI   C3A 8123  10.575  14.088   8.577 -0.2761  0.0814 -0.1145
  513POPI   C4A 8124  10.657  13.846   8.208  0.0216  0.2487 -0.1610
  513POPI   C1B 8125  10.891  14.803   8.731 -0.1242 -0.1525  0.0508
  513POPI   C2B 8126  10.920  14.727   8.294  0.1037 -0.0115 -0.1753
  513POPI   C3B 8127  10.992  14.834   7.843  0.3369 -0.1015  0.0796
  513POPI   C4B 8128  10.882  14.822   7.382  0.4679  0.1829  0.0185
  514POPI    C1 8129  11.913   9.483  10.396  0.1137 -0.3528  0.1843
  514POPI    C2 8130  11.543   9.554  10.531  0.0938 -0.1190  0.0134
  514POPI    C3 8131  11.733   9.218  10.636 -0.1237 -0.1893  0.1907
  514POPI   PO4 8132  11.931   9.573  10.172 -0.1994  0.0625 -0.2917
  514POPI   GL1 8133  11.783   9.731   9.883  0.1066 -0.0954  0.1160
  514POPI   GL2 8134  11.631   9.374   9.816  0.0564 -0.3117  0.1104
  514POPI   C1A 8135  11.722   9.773   9.480  0.0933 -0.3026  0.2644
  514POPI   D2A 8136  11.576  10.019   9.165 -0.0859 -0.2024  0.0508
  514POPI   C3A 8137  11.810  10.368   9.178  0.0463 -0.0131 -0.0159
  514POPI   C4A 8138  12.129  10.707   9.403 -0.2130  0.0674  0.0225
  514POPI   C1B 8139  11.663   9.282   9.374  0.0545 -0.3790 -0.0773
  514POPI   C2B 8140  11.703   9.434   9.063  0.1832 -0.0122 -0.0573
  514POPI   C3B 8141  11.556   9.446   8.675  0.1229  0.2841  0.0096
  514POPI   C4B 8142  11.429   9.525   8.224  0.1522  0.1434  0.0607
  515POPI    C1 8143  18.336  15.200  10.503  0.1177  0.1210  0.0724
  515POPI    C2 8144  18.017  15.113  10.279  0.2650 -0.1415 -0.0397
  515POPI    C3 8145  17.969  15.225  10.660  0.0373 -0.1230 -0.0726
  515POPI   PO4 8146  18.525  15.320  10.287  0.0089  0.2168 -0.0726
  515POPI   GL1 8147  18.744  15.307   9.879 -0.1427 -0.1362 -0.0385
  515POPI   GL2 8148  18.929  15.620   9.852  0.2834 -0.0153  0.1399
  515POPI   C1A 8149  18.430  15.279   9.541  0.0177 -0.0272 -0.1441
  515POPI   D2A 8150  18.362  15.337   9.167 -0.1371  0.1065  0.0789
  515POPI   C3A 8151  18.534  15.384   8.712 -0.0351  0.0274  0.1608
  515POPI   C4A 8152  18.588  15.315   8.324  0.0680  0.1180  0.1464
  515POPI   C1B 8153  18.670  15.705   9.418 -0.1899  0.1757 -0.0778
  515POPI   C2B 8154  18.549  15.896   9.096 -0.0547  0.0262  0.0656
  515POPI   C3B 8155  18.705  15.829   8.608 -0.1423  0.0933 -0.0912
  515POPI   C4B 8156  18.910  15.816   8.225 -0.3970  0.4410 -0.1605
  516POPI    C1 8157   6.468  17.807   9.799 -0.0464  0.0183 -0.2407
  516POPI    C2 8158   6.583  18.189   9.833 -0.1723  0.0549 -0.2214
  516POPI    C3 8159   6.257  18.060  10.025  0.1140 -0.1692  0.1280
  516POPI   PO4 8160   6.442  17.763   9.510  0.0409  0.0775  0.0524
  516POPI   GL1 8161   6.426  17.555   9.071  0.0727 -0.0701  0.1715
  516POPI   GL2 8162   6.041  17.587   9.000 -0.0084  0.1850  0.0208
  516POPI   C1A 8163   6.377  17.702   8.681 -0.2066  0.0652  0.0367
  516POPI   D2A 8164   6.135  17.854   8.287  0.1222 -0.4124  0.1653
  516POPI   C3A 8165   6.290  17.994   7.903 -0.1013 -0.2570 -0.1595
  516POPI   C4A 8166   6.357  18.211   7.528 -0.0897 -0.1616  0.2535
  516POPI   C1B 8167   5.910  17.614   8.640 -0.0959  0.3821  0.0529
  516POPI   C2B 8168   5.744  17.570   8.285  0.0259  0.0614  0.2716
  516POPI   C3B 8169   5.650  17.573   7.800 -0.0982  0.1266 -0.2259
  516POPI   C4B 8170   5.421  17.526   7.467 -0.2746 -0.0315 -0.2086
  517POPI    C1 8171   4.028   4.128   9.751  0.3161  0.0211  0.2152
  517POPI    C2 8172   3.997   4.249  10.132  0.0603 -0.2993  0.3004
  517POPI    C3 8173   3.706   4.027   9.968  0.1536 -0.1380 -0.0937
  517POPI   PO4 8174   4.184   4.120   9.652  0.0148  0.1136 -0.0027
  517POPI   GL1 8175   4.417   4.007   9.346  0.3273 -0.1193  0.1720
  517POPI   GL2 8176   4.348   3.664   9.494 -0.2141 -0.0229 -0.3151
  517POPI   C1A 8177   4.483   3.689   9.029  0.1476  0.1872  0.0938
  517POPI   D2A 8178   4.314   3.454   8.727 -0.0522  0.3587  0.1402
  517POPI   C3A 8179   4.384   3.614   8.431 -0.2076  0.0776  0.2073
  517POPI   C4A 8180   4.486   3.864   8.176  0.1750 -0.4208 -0.2388
  517POPI   C1B 8181   4.808   3.710   9.378 -0.1042 -0.1446  0.1673
  517POPI   C2B 8182   4.987   3.758   8.961 -0.0343  0.1162  0.0507
  517POPI   C3B 8183   4.987   3.668   8.542  0.2606  0.1104  0.3408
  517POPI   C4B 8184   5.171   3.636   8.152  0.0425 -0.0674  0.1809
  518POPI    C1 8185  16.378   7.557  10.412  0.2807  0.0579 -0.2090
  518POPI    C2 8186  16.504   7.929  10.487 -0.0779  0.1529 -0.0528
  518POPI    C3 8187  16.571   7.637  10.753 -0.0162  0.1596 -0.0609
  518POPI   PO4 8188  16.456   7.516  10.137 -0.0247 -0.0408 -0.3594
  518POPI   GL1 8189  16.553   7.629   9.717  0.0393 -0.1728 -0.4598
  518POPI   GL2 8190  16.643   7.917   9.526  0.0584  0.3988  0.3163
  518POPI   C1A 8191  16.518   7.445   9.384 -0.3198 -0.2624 -0.1171
  518POPI   D2A 8192  16.632   7.584   9.017  0.1695 -0.3510 -0.2146
  518POPI   C3A 8193  16.744   7.558   8.609  0.1657 -0.0092  0.0342
  518POPI   C4A 8194  16.477   7.790   8.273 -0.2782 -0.1800 -0.0291
  518POPI   C1B 8195  16.775   8.076   9.088  0.0065 -0.4089 -0.0505
  518POPI   C2B 8196  16.763   8.150   8.700 -0.0145 -0.0721  0.4909
  518POPI   C3B 8197  16.789   8.282   8.278 -0.0482 -0.4461  0.1422
  518POPI   C4B 8198  16.811   8.248   7.802  0.1076 -0.0946 -0.1795
  519POPI    C1 8199  14.358  16.441  10.267  0.0146 -0.0472 -0.0212
  519POPI    C2 8200  14.714  16.382  10.439  0.0554 -0.0436 -0.1038
  519POPI    C3 8201  14.426  16.577  10.637  0.0860 -0.0815 -0.0215
  519POPI   PO4 8202  14.430  16.494  10.009  0.0179  0.1548 -0.1446
  519POPI   GL1 8203  14.189  16.470   9.649 -0.2992 -0.0477 -0.0565
  519POPI   GL2 8204  14.070  16.722   9.734 -0.2128 -0.0480  0.1925
  519POPI   C1A 8205  14.377  16.468   9.135 -0.1630 -0.1862 -0.0811
  519POPI   D2A 8206  14.520  16.202   8.670 -0.2523 -0.2982 -0.0299
  519POPI   C3A 8207  14.138  16.108   8.461  0.1582  0.0817  0.2028
  519POPI   C4A 8208  14.011  16.162   8.063  0.0474 -0.1974 -0.2653
  519POPI   C1B 8209  14.153  16.882   9.348  0.0734 -0.0272 -0.3208
  519POPI   C2B 8210  14.312  16.961   8.934 -0.0774 -0.0443  0.0627
  519POPI   C3B 8211  14.224  17.022   8.546 -0.2281 -0.2712 -0.2748
  519POPI   C4B 8212  14.090  17.347   8.320  0.2561  0.1052  0.0776
  520POPI    C1 8213   2.850   7.808   9.776 -0.0946 -0.0980 -0.1156
  520POPI    C2 8214   2.628   7.872  10.102 -0.1078  0.1969 -0.1789
  520POPI    C3 8215   2.597   7.526   9.903 -0.1788  0.0580  0.0684
  520POPI   PO4 8216   2.820   8.022   9.590 -0.0719  0.3980 -0.0081
  520POPI   GL1 8217   2.640   7.992   9.234  0.1145 -0.0571  0.0452
  520POPI   GL2 8218   2.904   8.245   9.176 -0.0725  0.2649 -0.0851
  520POPI   C1A 8219   2.761   8.062   8.794  0.0776 -0.0570 -0.0495
  520POPI   D2A 8220   2.683   7.873   8.368  0.0967 -0.0488 -0.1069
  520POPI   C3A 8221   2.821   7.930   7.920 -0.1641  0.1019  0.1527
  520POPI   C4A 8222   3.190   8.102   7.670  0.2800 -0.2250 -0.4593
  520POPI   C1B 8223   3.069   8.421   8.742  0.3359  0.0099 -0.4256
  520POPI   C2B 8224   3.029   8.229   8.416 -0.0809 -0.1230  0.3170
  520POPI   C3B 8225   2.873   8.366   8.086  0.1553  0.0682  0.1219
  520POPI   C4B 8226   2.748   8.395   7.577  0.1145  0.1878  0.0374
  521POPI    C1 8227   8.920   6.078   9.731 -0.0124 -0.0844 -0.0105
  521POPI    C2 8228   9.129   6.165   9.401  0.0906 -0.0474  0.0642
  521POPI    C3 8229   9.307   5.982   9.709  0.0044 -0.0471  0.1148
  521POPI   PO4 8230   8.699   5.846   9.633 -0.1020  0.0081 -0.1735
  521POPI   GL1 8231   8.368   5.934   9.285 -0.3356 -0.0218 -0.1495
  521POPI   GL2 8232   8.575   6.131   9.172 -0.1633 -0.2152  0.0376
  521POPI   C1A 8233   8.195   5.623   9.137 -0.3067 -0.0465 -0.0213
  521POPI   D2A 8234   8.132   5.621   8.749 -0.5404  0.1896 -0.0528
  521POPI   C3A 8235   8.145   5.643   8.308  0.1500 -0.2581 -0.0023
  521POPI   C4A 8236   7.920   5.722   8.004 -0.2350 -0.0431  0.0421
  521POPI   C1B 8237   8.414   6.033   8.768 -0.0223 -0.0975 -0.5814
  521POPI   C2B 8238   8.415   6.086   8.301 -0.0712 -0.1671 -0.0510
  521POPI   C3B 8239   8.041   6.238   8.093  0.3009  0.1873 -0.2346
  521POPI   C4B 8240   7.875   6.054   7.666  0.1825  0.0043 -0.1433
  522POPI    C1 8241  11.753   6.730  10.228  0.0472  0.1496  0.1082
  522POPI    C2 8242  11.491   6.435  10.161  0.0809  0.1100  0.1503
  522POPI    C3 8243  11.730   6.421  10.482  0.3429 -0.0037 -0.0457
  522POPI   PO4 8244  11.821   6.795   9.983 -0.1557  0.0803  0.5578
  522POPI   GL1 8245  11.638   6.919   9.546  0.2561 -0.2466 -0.3802
  522POPI   GL2 8246  11.675   6.539   9.522  0.2906  0.0965  0.0801
  522POPI   C1A 8247  11.773   6.975   9.119  0.2712 -0.1402 -0.2786
  522POPI   D2A 8248  11.903   6.874   8.722  0.1338 -0.1562  0.0480
  522POPI   C3A 8249  11.747   6.798   8.351  0.1643  0.0223  0.1941
  522POPI   C4A 8250  11.630   6.444   8.082 -0.1115  0.0268  0.0960
  522POPI   C1B 8251  11.405   6.539   9.122 -0.3317 -0.0284 -0.1503
  522POPI   C2B 8252  11.185   6.236   8.800  0.0364  0.3372  0.2904
  522POPI   C3B 8253  11.196   6.212   8.240  0.1578 -0.1099  0.1449
  522POPI   C4B 8254  11.280   6.125   7.808  0.2591  0.1392 -0.0442
  523POPI    C1 8255  17.247  14.749  10.561  0.0850 -0.0013 -0.0350
  523POPI    C2 8256  17.179  15.085  10.354 -0.2374 -0.0036  0.0623
  523POPI    C3 8257  17.487  15.066  10.608 -0.0470  0.1183 -0.1554
  523POPI   PO4 8258  17.392  14.556  10.284 -0.0950 -0.2973  0.1254
  523POPI   GL1 8259  17.755  14.461   9.983  0.0450  0.0315  0.1103
  523POPI   GL2 8260  18.064  14.382   9.909 -0.0741  0.1400 -0.1316
  523POPI   C1A 8261  17.724  14.673   9.597 -0.0267  0.2624 -0.0096
  523POPI   D2A 8262  17.802  14.851   9.195  0.1215 -0.2186  0.0841
  523POPI   C3A 8263  17.889  14.669   8.914  0.0095 -0.0541 -0.3603
  523POPI   C4A 8264  17.809  14.735   8.536  0.1253 -0.2836 -0.0392
  523POPI   C1B 8265  18.319  14.613   9.489 -0.1155  0.0599 -0.1705
  523POPI   C2B 8266  18.385  14.806   9.160 -0.1206 -0.1362 -0.1333
  523POPI   C3B 8267  18.255  14.902   8.684 -0.1884 -0.0473  0.0262
  523POPI   C4B 8268  18.188  15.049   8.284  0.0795 -0.1453  0.0121
  524DPPI    C1 8269  14.432   6.049  10.633  0.1048 -0.0050 -0.0249
  524DPPI    C2 8270  14.576   5.677  10.661 -0.0647 -0.0591  0.1514
  524DPPI    C3 8271  14.699   5.960  10.916 -0.2474 -0.0991  0.2859
  524DPPI   PO4 8272  14.310   6.004  10.364  0.0391 -0.1007 -0.1442
  524DPPI   GL1 8273  14.393   6.080   9.878 -0.0979  0.3574  0.0014
  524DPPI   GL2 8274  14.171   6.233   9.588  0.1218  0.0864  0.0574
  524DPPI   C1A 8275  14.641   6.153   9.507 -0.0615  0.1785 -0.2611
  524DPPI   C2A 8276  15.004   6.084   9.338 -0.0516  0.1607 -0.2206
  524DPPI   C3A 8277  15.141   6.121   8.909 -0.1974 -0.1840 -0.3727
  524DPPI   C4A 8278  15.386   6.102   8.515 -0.0588  0.1664  0.2019
  524DPPI   C1B 8279  14.277   6.433   9.302 -0.0935 -0.1117 -0.0154
  524DPPI   C2B 8280  14.488   6.484   8.803  0.0638 -0.0560  0.2245
  524DPPI   C3B 8281  14.419   6.476   8.439 -0.2273 -0.2773  0.1914
  524DPPI   C4B 8282  14.422   6.930   8.116 -0.0314 -0.2619  0.1574
  525DPPI    C1 8283   7.161   7.666   9.779 -0.3561  0.0997  0.0417
  525DPPI    C2 8284   7.256   7.392   9.504 -0.2610  0.2082 -0.0345
  525DPPI    C3 8285   7.103   7.278   9.856 -0.2015  0.0565 -0.0571
  525DPPI   PO4 8286   7.231   7.902   9.581 -0.0184 -0.1120  0.1693
  525DPPI   GL1 8287   7.288   7.883   9.229  0.3676  0.2023 -0.2569
  525DPPI   GL2 8288   7.065   8.011   9.110 -0.0981  0.1056 -0.1149
  525DPPI   C1A 8289   7.274   7.607   8.814  0.3460  0.1570 -0.3845
  525DPPI   C2A 8290   7.262   7.712   8.445  0.2708 -0.0851 -0.3281
  525DPPI   C3A 8291   7.341   7.647   8.051 -0.2845  0.1090 -0.0540
  525DPPI   C4A 8292   7.288   7.596   7.600  0.2880  0.0110  0.2535
  525DPPI   C1B 8293   6.819   7.896   8.798 -0.0985  0.1786  0.3103
  525DPPI   C2B 8294   6.843   7.957   8.326 -0.1602 -0.1388 -0.1381
  525DPPI   C3B 8295   6.589   8.303   8.180 -0.1052  0.2577  0.2493
  525DPPI   C4B 8296   6.301   8.320   7.911  0.0260 -0.1283 -0.1335
  526DPPI    C1 8297  18.390  13.939  10.460 -0.2534 -0.1848  0.3957
  526DPPI    C2 8298  18.524  13.566  10.512  0.1832 -0.0851  0.0523
  526DPPI    C3 8299  18.748  13.877  10.627 -0.1497  0.0786  0.2770
  526DPPI   PO4 8300  18.335  13.957  10.218  0.1631  0.0284 -0.0085
  526DPPI   GL1 8301  18.375  13.805   9.792  0.0524  0.0271 -0.1297
  526DPPI   GL2 8302  18.507  14.141   9.726 -0.1029 -0.1691  0.2579
  526DPPI   C1A 8303  18.336  13.694   9.466  0.2316 -0.3196  0.3132
  526DPPI   C2A 8304  18.363  13.738   9.017 -0.2890  0.1035  0.1306
  526DPPI   C3A 8305  18.357  13.852   8.561 -0.1579 -0.4321  0.0157
  526DPPI   C4A 8306  18.433  13.984   8.194  0.1834  0.2997  0.0762
  526DPPI   C1B 8307  18.541  14.139   9.315  0.0467  0.3193 -0.0635
  526DPPI   C2B 8308  18.700  14.046   8.990 -0.0985  0.1631 -0.0839
  526DPPI   C3B 8309  18.821  13.667   8.728  0.3383  0.1873 -0.1155
  526DPPI   C4B 8310  18.662  13.218   8.884  0.2510 -0.0557  0.0682
  527DPPI    C1 8311   3.054  16.490  10.024 -0.5498  0.1034  0.1722
  527DPPI    C2 8312   3.226  16.188  10.223  0.0065  0.2409 -0.0808
  527DPPI    C3 8313   3.117  16.520  10.418 -0.0489  0.1196  0.0976
  527DPPI   PO4 8314   2.919  16.374   9.773 -0.1068  0.2469 -0.1089
  527DPPI   GL1 8315   2.629  16.358   9.503 -0.1574 -0.1826 -0.0692
  527DPPI   GL2 8316   2.468  16.635   9.582  0.3033  0.2697  0.0715
  527DPPI   C1A 8317   2.786  16.667   9.153 -0.1989 -0.0202 -0.2234
  527DPPI   C2A 8318   2.818  16.742   8.700  0.0251 -0.0789  0.2419
  527DPPI   C3A 8319   2.646  16.510   8.274  0.1625 -0.1859  0.1752
  527DPPI   C4A 8320   2.693  15.974   8.064  0.2300 -0.1254 -0.0106
  527DPPI   C1B 8321   2.301  16.535   9.192 -0.1605 -0.1267 -0.3391
  527DPPI   C2B 8322   2.228  16.376   8.748  0.3121 -0.2791 -0.1064
  527DPPI   C3B 8323   2.121  16.356   8.284  0.2937 -0.0088  0.0622
  527DPPI   C4B 8324   1.978  16.177   7.893 -0.0673 -0.1614  0.0642
  528DPPI    C1 8325   5.323  10.800   9.554  0.1079  0.0204 -0.1967
  528DPPI    C2 8326   5.577  10.518   9.427  0.1029 -0.0484 -0.0563
  528DPPI    C3 8327   5.561  10.612   9.816 -0.2142 -0.1734 -0.0358
  528DPPI   PO4 8328   5.065  10.699   9.323 -0.2175 -0.3163  0.2869
  528DPPI   GL1 8329   4.811  10.680   9.033  0.2333  0.0750 -0.0069
  528DPPI   GL2 8330   4.883  10.975   8.863  0.0696  0.2504  0.1576
  528DPPI   C1A 8331   4.894  10.409   8.684  0.2198  0.1642 -0.0526
  528DPPI   C2A 8332   5.090  10.295   8.278  0.0733 -0.2159  0.0670
  528DPPI   C3A 8333   5.036  10.228   7.837 -0.3623 -0.2779 -0.0073
  528DPPI   C4A 8334   5.146  10.406   7.428  0.0320 -0.3670 -0.1764
  528DPPI   C1B 8335   4.628  10.827   8.608 -0.1850 -0.1927  0.1141
  528DPPI   C2B 8336   4.551  10.887   8.280 -0.0406 -0.3018  0.2276
  528DPPI   C3B 8337   4.279  10.647   8.044  0.3281  0.2179 -0.0469
  528DPPI   C4B 8338   3.846  10.538   7.907  0.2149  0.1562 -0.0175
  529DPPI    C1 8339  13.320  18.598  10.006 -0.0300  0.1391 -0.1069
  529DPPI    C2 8340  13.522  18.341  10.236 -0.2297 -0.0107 -0.0965
  529DPPI    C3 8341  13.123  18.358  10.259 -0.2435  0.0494 -0.3534
  529DPPI   PO4 8342  13.552  18.811  10.016 -0.1944  0.2690 -0.2938
  529DPPI   GL1 8343  13.749  18.731   9.782 -0.0513  0.0115  0.3278
  529DPPI   GL2 8344  13.579  18.653   9.557 -0.0626  0.0985  0.0255
  529DPPI   C1A 8345  14.002  18.929   9.418  0.0392  0.0812 -0.0926
  529DPPI   C2A 8346  14.220  19.238   9.453  0.2396  0.0279  0.1257
  529DPPI   C3A 8347  14.193  19.642   9.311 -0.0569 -0.1475  0.2604
  529DPPI   C4A 8348  14.229  19.875   8.998  0.2843 -0.0599 -0.0382
  529DPPI   C1B 8349  13.419  18.918   9.265  0.0202  0.0408  0.0729
  529DPPI   C2B 8350  13.761  18.987   8.936 -0.0180  0.1255 -0.0267
  529DPPI   C3B 8351  13.695  18.761   8.469  0.0268 -0.1239  0.0372
  529DPPI   C4B 8352  13.424  18.525   8.054 -0.1922 -0.0698  0.1373
  530DPPI    C1 8353   9.673   7.292   9.914  0.0468  0.0047  0.0459
  530DPPI    C2 8354   9.500   6.946   9.813 -0.2900  0.2289 -0.1654
  530DPPI    C3 8355   9.522   7.054  10.197 -0.0065 -0.1132 -0.0803
  530DPPI   PO4 8356   9.527   7.460   9.686 -0.0925 -0.1043  0.0233
  530DPPI   GL1 8357   9.384   7.184   9.349  0.1422  0.2116 -0.1094
  530DPPI   GL2 8358   9.495   6.875   9.291 -0.0613 -0.2357  0.0558
  530DPPI   C1A 8359   9.402   7.414   8.995  0.0848 -0.0045 -0.2611
  530DPPI   C2A 8360   9.263   7.695   8.625 -0.3014 -0.1155  0.1459
  530DPPI   C3A 8361   9.410   7.646   8.203 -0.1535 -0.0038  0.1708
  530DPPI   C4A 8362   9.579   7.246   8.070 -0.1286 -0.4327 -0.1282
  530DPPI   C1B 8363   9.620   7.001   8.830 -0.2155 -0.3564 -0.1572
  530DPPI   C2B 8364   9.744   6.902   8.452  0.1058 -0.2507 -0.0385
  530DPPI   C3B 8365   9.974   6.880   8.117 -0.0203 -0.0932 -0.1245
  530DPPI   C4B 8366   9.975   6.943   7.745  0.0873 -0.1101  0.0961
  531DPPI    C1 8367  10.088  11.815   9.583  0.0185  0.0367  0.0717
  531DPPI    C2 8368  10.386  11.561   9.666 -0.0063 -0.0395 -0.0695
  531DPPI    C3 8369  10.460  11.894   9.457 -0.0334 -0.0988 -0.1746
  531DPPI   PO4 8370   9.870  11.562   9.460  0.2271  0.0406 -0.1108
  531DPPI   GL1 8371   9.765  11.423   9.079 -0.1561 -0.1377 -0.1239
  531DPPI   GL2 8372   9.797  11.115   9.103  0.1552 -0.0151  0.0469
  531DPPI   C1A 8373  10.133  11.446   8.808 -0.0813  0.0129  0.1296
  531DPPI   C2A 8374  10.269  11.263   8.516 -0.1033  0.0129  0.0406
  531DPPI   C3A 8375  10.388  11.166   8.101 -0.0410 -0.0835 -0.0594
  531DPPI   C4A 8376  10.347  11.178   7.731 -0.0455  0.0580  0.0285
  531DPPI   C1B 8377   9.871  11.018   8.692 -0.1350 -0.0990  0.2287
  531DPPI   C2B 8378   9.891  10.903   8.214  0.0184  0.0102 -0.1100
  531DPPI   C3B 8379  10.032  10.833   7.650 -0.2292  0.1531 -0.3496
  531DPPI   C4B 8380  10.198  11.110   7.282  0.1374 -0.0897  0.0989
  532DPPI    C1 8381   7.458   1.033   9.569  0.1688 -0.4354 -0.1170
  532DPPI    C2 8382   7.814   1.082   9.744  0.0352 -0.1317  0.0779
  532DPPI    C3 8383   7.504   0.946   9.956 -0.0766  0.0394  0.0264
  532DPPI   PO4 8384   7.453   0.815   9.370 -0.0201  0.1574 -0.1343
  532DPPI   GL1 8385   7.612   0.932   8.990 -0.1284  0.2906 -0.3441
  532DPPI   GL2 8386   7.843   1.178   8.981 -0.0831  0.2950  0.1498
  532DPPI   C1A 8387   7.567   0.696   8.752 -0.2405  0.1217 -0.1906
  532DPPI   C2A 8388   7.397   0.623   8.400  0.0045 -0.1323  0.0359
  532DPPI   C3A 8389   7.627   0.582   8.152  0.1570  0.0137 -0.2696
  532DPPI   C4A 8390   7.834   0.780   7.962  0.1427  0.4571  0.0933
  532DPPI   C1B 8391   8.022   1.389   8.697  0.1069 -0.0585 -0.2045
  532DPPI   C2B 8392   8.146   1.557   8.276 -0.1756  0.0348  0.0014
  532DPPI   C3B 8393   8.188   1.445   7.910 -0.1049  0.4126 -0.2086
  532DPPI   C4B 8394   8.216   1.042   7.766 -0.0236  0.0318  0.0075
  533DPPI    C1 8395  17.962  18.735  10.068 -0.1723 -0.2036  0.0151
  533DPPI    C2 8396  17.679  18.678  10.346 -0.2496  0.0327 -0.0129
  533DPPI    C3 8397  18.032  18.836  10.449 -0.2389  0.0202 -0.0307
  533DPPI   PO4 8398  17.933  18.489   9.957  0.1170  0.1862  0.0556
  533DPPI   GL1 8399  17.926  18.222   9.639 -0.0533  0.3155  0.1897
  533DPPI   GL2 8400  18.353  18.340   9.524  0.3136  0.0106  0.0897
  533DPPI   C1A 8401  17.701  18.280   9.172  0.0337  0.3320  0.0564
  533DPPI   C2A 8402  17.591  18.179   8.771 -0.0270 -0.0707 -0.2016
  533DPPI   C3A 8403  17.503  18.030   8.391 -0.3334 -0.1767  0.2319
  533DPPI   C4A 8404  17.250  18.218   8.111 -0.3513  0.0998  0.1060
  533DPPI   C1B 8405  18.242  18.187   9.118 -0.0890  0.2315  0.3035
  533DPPI   C2B 8406  18.045  18.245   8.728 -0.0534  0.1229 -0.4681
  533DPPI   C3B 8407  18.018  18.227   8.349  0.0236 -0.0005  0.0631
  533DPPI   C4B 8408  17.750  18.178   7.977  0.4066 -0.0286 -0.2222
  534DPPI    C1 8409  11.344  15.841  10.245  0.1748 -0.0367 -0.1393
  534DPPI    C2 8410  11.587  15.976  10.533 -0.0862  0.0195  0.0578
  534DPPI    C3 8411  11.452  15.600  10.545  0.1950 -0.0934 -0.1919
  534DPPI   PO4 8412  11.474  15.825   9.936  0.0012  0.0130 -0.2533
  534DPPI   GL1 8413  11.683  15.765   9.630 -0.0359  0.0414  0.2475
  534DPPI   GL2 8414  11.759  16.024   9.503  0.2365  0.0911  0.0514
  534DPPI   C1A 8415  11.531  15.663   9.182  0.0103 -0.2224 -0.0174
  534DPPI   C2A 8416  11.639  15.667   8.846  0.0251 -0.1575 -0.0467
  534DPPI   C3A 8417  11.618  15.784   8.384 -0.0637 -0.0285  0.0010
  534DPPI   C4A 8418  11.408  16.005   8.123 -0.0077  0.0944 -0.0225
  534DPPI   C1B 8419  11.708  16.134   9.116 -0.3258 -0.2273  0.0708
  534DPPI   C2B 8420  11.756  16.173   8.625  0.0803 -0.0902  0.0555
  534DPPI   C3B 8421  12.075  16.076   8.374  0.2941  0.1309 -0.1893
  534DPPI   C4B 8422  12.131  15.698   8.125 -0.1252  0.2168 -0.2461
  535DPPI    C1 8423  15.681  13.828  10.047 -0.0849 -0.1801 -0.0728
  535DPPI    C2 8424  15.817  13.485  10.202  0.0798 -0.0685  0.0334
  535DPPI    C3 8425  15.562  13.712  10.411  0.0796 -0.0576  0.0214
  535DPPI   PO4 8426  15.837  13.864   9.706 -0.3927  0.0014  0.2062
  535DPPI   GL1 8427  15.910  14.160   9.475 -0.0433 -0.1993 -0.2477
  535DPPI   GL2 8428  15.781  14.002   9.236 -0.1271  0.0415  0.0728
  535DPPI   C1A 8429  16.057  14.441   9.143  0.0247  0.1938  0.2790
  535DPPI   C2A 8430  16.356  14.527   8.843 -0.1318 -0.2531  0.1827
  535DPPI   C3A 8431  16.412  14.810   8.417  0.0693 -0.0300 -0.4001
  535DPPI   C4A 8432  16.206  14.927   8.125 -0.1562  0.2948  0.1298
  535DPPI   C1B 8433  15.835  13.734   8.784 -0.2128 -0.4380 -0.3214
  535DPPI   C2B 8434  15.654  13.761   8.346 -0.0031 -0.0111 -0.1728
  535DPPI   C3B 8435  15.434  14.140   8.315  0.1563  0.1610  0.3880
  535DPPI   C4B 8436  15.269  14.579   8.464 -0.0166 -0.0000  0.0282
  536DPPI    C1 8437  14.242   3.182  10.058 -0.1354 -0.0492  0.0630
  536DPPI    C2 8438  14.537   3.157   9.788 -0.1077 -0.0308  0.0914
  536DPPI    C3 8439  14.594   3.359  10.129 -0.1217 -0.1062  0.1387
  536DPPI   PO4 8440  14.026   3.247   9.910 -0.0261 -0.1796  0.1263
  536DPPI   GL1 8441  14.114   3.240   9.440 -0.2166 -0.1565 -0.3471
  536DPPI   GL2 8442  14.153   3.565   9.537 -0.1325  0.0496 -0.0039
  536DPPI   C1A 8443  14.054   2.903   9.067  0.0494  0.1089 -0.0838
  536DPPI   C2A 8444  13.803   2.744   8.718  0.1281  0.0295  0.1485
  536DPPI   C3A 8445  13.760   2.917   8.193 -0.2022  0.1303  0.1008
  536DPPI   C4A 8446  13.655   3.135   7.867  0.0052  0.0579  0.3763
  536DPPI   C1B 8447  14.201   3.611   9.124  0.2536 -0.0722  0.1189
  536DPPI   C2B 8448  14.068   3.319   8.799 -0.2359 -0.2544  0.2014
  536DPPI   C3B 8449  14.198   3.028   8.494 -0.0629 -0.1937 -0.3475
  536DPPI   C4B 8450  14.363   2.619   8.362 -0.0013  0.2302  0.3410
  537DPPI    C1 8451  15.017  10.417  10.370 -0.2583 -0.0023  0.0934
  537DPPI    C2 8452  15.330  10.184  10.455 -0.1259  0.0581 -0.2179
  537DPPI    C3 8453  14.968  10.022  10.406 -0.1279 -0.0226  0.0508
  537DPPI   PO4 8454  15.122  10.564  10.256  0.0141 -0.1503  0.0231
  537DPPI   GL1 8455  15.431  10.667   9.974  0.2045 -0.0289 -0.0085
  537DPPI   GL2 8456  15.398  10.890   9.741  0.4189  0.0482  0.1377
  537DPPI   C1A 8457  15.560  10.426   9.673 -0.4193  0.0240 -0.0426
  537DPPI   C2A 8458  15.556  10.470   9.233 -0.0865 -0.0015  0.0322
  537DPPI   C3A 8459  15.755  10.463   8.775  0.0198  0.1095 -0.0559
  537DPPI   C4A 8460  15.759  10.497   8.378 -0.0012  0.2613 -0.0606
  537DPPI   C1B 8461  15.203  10.787   9.485 -0.1714 -0.1301 -0.3017
  537DPPI   C2B 8462  15.115  10.875   9.041  0.0935  0.0684  0.0797
  537DPPI   C3B 8463  14.834  10.848   8.631  0.0216  0.0519 -0.0031
  537DPPI   C4B 8464  15.067  10.939   8.203 -0.0579 -0.3394 -0.0421
  538DPPI    C1 8465   8.402  11.190   9.700  0.1209 -0.0742  0.0035
  538DPPI    C2 8466   8.022  11.226   9.820  0.0405 -0.1648 -0.2185
  538DPPI    C3 8467   8.289  11.044  10.055 -0.0440 -0.0667 -0.0449
  538DPPI   PO4 8468   8.447  11.037   9.513  0.1964 -0.1172  0.0849
  538DPPI   GL1 8469   8.321  10.794   9.157  0.0667  0.3610 -0.0774
  538DPPI   GL2 8470   8.215  10.409   9.055 -0.0155 -0.1540 -0.0612
  538DPPI   C1A 8471   8.288  10.921   8.746  0.1901 -0.0592  0.0819
  538DPPI   C2A 8472   8.313  11.173   8.304 -0.0161 -0.1418  0.2705
  538DPPI   C3A 8473   8.356  11.096   7.780 -0.0288 -0.1351  0.0209
  538DPPI   C4A 8474   8.202  11.294   7.415 -0.3089 -0.2467 -0.0512
  538DPPI   C1B 8475   8.199  10.402   8.514 -0.0361  0.2173  0.1049
  538DPPI   C2B 8476   7.939  10.361   8.153  0.1344  0.0224 -0.0661
  538DPPI   C3B 8477   7.838  10.194   7.762 -0.2593 -0.0873  0.0006
  538DPPI   C4B 8478   7.717  10.256   7.333 -0.3308 -0.0937 -0.0658
  539DPPI    C1 8479   7.463   4.669   9.635 -0.1838  0.3614 -0.2630
  539DPPI    C2 8480   7.507   4.789  10.014  0.1976  0.0335 -0.1959
  539DPPI    C3 8481   7.151   4.660   9.885  0.0481  0.2138  0.0273
  539DPPI   PO4 8482   7.652   4.868   9.455 -0.1309  0.1638  0.2965
  539DPPI   GL1 8483   7.605   4.961   9.055 -0.1003  0.0271  0.0100
  539DPPI   GL2 8484   7.419   4.628   9.035  0.0890 -0.1557 -0.1342
  539DPPI   C1A 8485   7.783   5.104   8.703 -0.2102 -0.1416 -0.0131
  539DPPI   C2A 8486   7.979   5.202   8.341 -0.1724  0.0253 -0.0318
  539DPPI   C3A 8487   8.009   5.225   7.828 -0.1542 -0.1240  0.1744
  539DPPI   C4A 8488   7.859   5.595   7.539 -0.2394  0.0547  0.3795
  539DPPI   C1B 8489   7.578   4.649   8.619 -0.0554 -0.1064  0.2466
  539DPPI   C2B 8490   7.344   4.537   8.290  0.1938 -0.2158  0.2424
  539DPPI   C3B 8491   7.163   4.356   7.963 -0.1625  0.2987  0.1025
  539DPPI   C4B 8492   7.189   3.939   7.748 -0.3043  0.1295 -0.2562
  540DPPI    C1 8493  10.493  12.938   9.589 -0.0731 -0.1397  0.0662
  540DPPI    C2 8494  10.549  13.119   9.941  0.0434 -0.0133 -0.0162
  540DPPI    C3 8495  10.731  12.771   9.864  0.0057 -0.0489  0.0536
  540DPPI   PO4 8496  10.412  13.104   9.357  0.2441 -0.0244  0.3708
  540DPPI   GL1 8497  10.131  13.056   9.022 -0.1090 -0.0471 -0.2532
  540DPPI   GL2 8498   9.970  12.825   8.894 -0.1345  0.0322  0.1803
  540DPPI   C1A 8499  10.334  12.955   8.482 -0.4133  0.0419 -0.1839
  540DPPI   C2A 8500  10.346  12.664   8.074  0.3891 -0.1706 -0.1301
  540DPPI   C3A 8501  10.373  12.532   7.620  0.0293 -0.1051  0.0216
  540DPPI   C4A 8502  10.265  12.039   7.325  0.0213 -0.0545  0.0005
  540DPPI   C1B 8503   9.995  13.304   8.592 -0.2213 -0.2381  0.2387
  540DPPI   C2B 8504  10.051  13.524   8.260  0.2405 -0.2434 -0.0323
  540DPPI   C3B 8505  10.204  13.756   7.915  0.0939  0.0301  0.0979
  540DPPI   C4B 8506  10.403  13.918   7.545  0.4745  0.0576 -0.0906
  541DPPI    C1 8507  12.983  12.953   9.851 -0.1666  0.1189  0.0163
  541DPPI    C2 8508  13.325  12.976  10.057 -0.0661 -0.2449 -0.1019
  541DPPI    C3 8509  12.976  13.045  10.240  0.0535 -0.0966  0.0740
  541DPPI   PO4 8510  13.052  13.157   9.639 -0.0797  0.0328  0.0110
  541DPPI   GL1 8511  13.190  13.184   9.196 -0.1092 -0.0590  0.0846
  541DPPI   GL2 8512  13.469  13.196   9.358  0.0796 -0.1860  0.0179
  541DPPI   C1A 8513  13.229  13.113   8.677  0.0321 -0.0418  0.3551
  541DPPI   C2A 8514  13.216  13.187   8.240 -0.1468 -0.0862  0.0362
  541DPPI   C3A 8515  13.234  12.805   7.970 -0.1816  0.0739 -0.1081
  541DPPI   C4A 8516  13.512  12.749   7.692  0.0884  0.1219  0.0714
  541DPPI   C1B 8517  13.912  13.376   9.383  0.0680  0.2029  0.1417
  541DPPI   C2B 8518  14.269  13.313   9.272 -0.0363  0.0105 -0.2315
  541DPPI   C3B 8519  14.607  13.093   9.047 -0.0841  0.2177 -0.0193
  541DPPI   C4B 8520  14.562  12.903   8.638 -0.0645 -0.2792  0.2157
  542DPPI    C1 8521  11.434  14.196  10.241  0.0563 -0.1428  0.1756
  542DPPI    C2 8522  11.722  14.473  10.216 -0.2806  0.1972 -0.0475
  542DPPI    C3 8523  11.492  14.452  10.543 -0.0299 -0.0542  0.1176
  542DPPI   PO4 8524  11.608  14.081   9.908  0.3842 -0.1444  0.3382
  542DPPI   GL1 8525  11.534  14.225   9.437 -0.1015  0.0278  0.3107
  542DPPI   GL2 8526  11.713  13.868   9.451  0.0005  0.0197  0.0248
  542DPPI   C1A 8527  11.552  14.132   9.009 -0.1251 -0.0490 -0.0914
  542DPPI   C2A 8528  11.619  14.079   8.684  0.3131 -0.0907  0.1739
  542DPPI   C3A 8529  11.723  14.186   8.209  0.1594 -0.3574 -0.2581
  542DPPI   C4A 8530  11.864  14.388   7.877 -0.0033  0.0412  0.2511
  542DPPI   C1B 8531  11.835  13.709   9.015 -0.0135 -0.2114  0.1736
  542DPPI   C2B 8532  11.971  13.740   8.677 -0.1487  0.0895 -0.2101
  542DPPI   C3B 8533  12.058  13.706   8.263  0.1548  0.0275  0.1180
  542DPPI   C4B 8534  12.073  13.819   7.848  0.1818 -0.0371  0.0940
  543DPPI    C1 8535   5.360  14.872   9.674  0.1019  0.1010  0.0827
  543DPPI    C2 8536   5.585  14.931   9.998  0.2117 -0.2187  0.0684
  543DPPI    C3 8537   5.445  14.566   9.916 -0.2167 -0.0475  0.0125
  543DPPI   PO4 8538   5.205  15.050   9.595 -0.0947  0.0832  0.1063
  543DPPI   GL1 8539   4.994  15.294   9.355 -0.0188 -0.1701  0.4486
  543DPPI   GL2 8540   5.334  15.563   9.332  0.2861 -0.0655 -0.1213
  543DPPI   C1A 8541   4.928  15.386   8.971 -0.0392 -0.2315  0.0183
  543DPPI   C2A 8542   4.955  15.309   8.565  0.3395 -0.1534 -0.0582
  543DPPI   C3A 8543   4.817  15.328   8.101 -0.2977  0.2233  0.0048
  543DPPI   C4A 8544   4.517  15.284   7.918  0.2090  0.2953 -0.1015
  543DPPI   C1B 8545   5.404  15.475   8.808 -0.0326  0.2435  0.3421
  543DPPI   C2B 8546   5.466  15.379   8.345 -0.1848  0.2112 -0.0883
  543DPPI   C3B 8547   5.395  15.515   7.973  0.0962  0.1507 -0.3642
  543DPPI   C4B 8548   5.395  15.625   7.461  0.1797  0.2334 -0.0584
  544DPPI    C1 8549   9.648  17.759  10.040 -0.0109  0.0539  0.1405
  544DPPI    C2 8550   9.533  18.134  10.117 -0.1189  0.0241  0.1253
  544DPPI    C3 8551   9.835  17.972  10.323 -0.1905  0.0578  0.2577
  544DPPI   PO4 8552   9.692  17.748   9.778 -0.0559  0.1044 -0.0142
  544DPPI   GL1 8553   9.485  17.887   9.527  0.0491  0.1488 -0.1018
  544DPPI   GL2 8554   9.298  18.122   9.551  0.2190  0.3969  0.0502
  544DPPI   C1A 8555   9.745  17.789   9.158 -0.1308  0.1042  0.0250
  544DPPI   C2A 8556   9.697  17.762   8.697 -0.2474  0.3924  0.2117
  544DPPI   C3A 8557   9.806  17.876   8.301  0.1179 -0.2621 -0.1282
  544DPPI   C4A 8558   9.644  18.056   7.805 -0.0736  0.2436  0.0367
  544DPPI   C1B 8559   9.178  18.172   9.075  0.0273  0.1327  0.0707
  544DPPI   C2B 8560   9.350  18.178   8.686  0.3154  0.1413 -0.2900
  544DPPI   C3B 8561   9.440  18.234   8.289  0.1365 -0.0901 -0.1990
  544DPPI   C4B 8562   9.717  18.493   8.018 -0.1391 -0.0603  0.4019
  545DPPI    C1 8563   5.654  12.839  10.025  0.2004 -0.1397  0.2137
  545DPPI    C2 8564   5.481  12.860  10.385 -0.1662  0.1863  0.0261
  545DPPI    C3 8565   5.336  12.611  10.108  0.2293 -0.2017  0.1552
  545DPPI   PO4 8566   5.615  13.136   9.918  0.1098 -0.0920  0.1279
  545DPPI   GL1 8567   5.733  13.164   9.432 -0.1289 -0.2464 -0.3797
  545DPPI   GL2 8568   5.896  12.904   9.599  0.0660 -0.2258 -0.0148
  545DPPI   C1A 8569   5.653  13.283   8.998  0.3692 -0.2771 -0.1167
  545DPPI   C2A 8570   5.634  13.224   8.534 -0.1914 -0.0701  0.2124
  545DPPI   C3A 8571   5.717  13.098   8.192  0.0162 -0.1135  0.2082
  545DPPI   C4A 8572   5.673  13.190   7.810  0.3644 -0.0571 -0.0426
  545DPPI   C1B 8573   5.845  12.682   9.175 -0.0993  0.2567 -0.6258
  545DPPI   C2B 8574   5.821  12.822   8.812 -0.1953 -0.1801  0.5200
  545DPPI   C3B 8575   5.636  12.622   8.386 -0.0224 -0.0627 -0.0883
  545DPPI   C4B 8576   5.473  12.675   7.867 -0.1962  0.0935  0.1297
  546DPPI    C1 8577  13.173   6.364  10.163 -0.2458  0.2059  0.0478
  546DPPI    C2 8578  12.847   6.135  10.133 -0.0928 -0.0393  0.2228
  546DPPI    C3 8579  13.035   6.171  10.484  0.2329 -0.1312  0.0618
  546DPPI   PO4 8580  13.400   6.275   9.900 -0.1126 -0.0420  0.1434
  546DPPI   GL1 8581  13.700   6.344   9.563 -0.0262 -0.2850 -0.3824
  546DPPI   GL2 8582  13.597   6.629   9.532  0.1302  0.0234 -0.3014
  546DPPI   C1A 8583  13.851   6.282   9.116 -0.0739  0.0413  0.1220
  546DPPI   C2A 8584  14.122   6.170   8.818 -0.2991 -0.0628 -0.3616
  546DPPI   C3A 8585  14.270   5.939   8.467 -0.1980 -0.2086 -0.0942
  546DPPI   C4A 8586  14.506   5.962   8.103 -0.0491 -0.1034  0.2080
  546DPPI   C1B 8587  13.734   6.758   9.223 -0.0053  0.1140 -0.0595
  546DPPI   C2B 8588  13.995   6.674   8.899 -0.1440  0.0132 -0.0396
  546DPPI   C3B 8589  13.926   6.582   8.454  0.5197  0.1711 -0.2670
  546DPPI   C4B 8590  14.089   6.283   8.126 -0.0552  0.2934  0.1091
  547DPPI    C1 8591  13.161   9.606  10.059  0.0890  0.0237 -0.0048
  547DPPI    C2 8592  12.774   9.509  10.021  0.1452 -0.3150  0.2422
  547DPPI    C3 8593  12.913   9.646  10.371  0.2032  0.0417  0.0840
  547DPPI   PO4 8594  13.282   9.758   9.834 -0.2476  0.1941 -0.3397
  547DPPI   GL1 8595  13.520   9.693   9.581 -0.2344 -0.0548  0.0713
  547DPPI   GL2 8596  13.756   9.887   9.709  0.3854  0.1702 -0.0673
  547DPPI   C1A 8597  13.441   9.650   9.170  0.0434 -0.1388 -0.1309
  547DPPI   C2A 8598  13.606   9.864   8.764  0.1445  0.0585 -0.1976
  547DPPI   C3A 8599  13.995  10.178   8.523  0.3020  0.4457  0.2222
  547DPPI   C4A 8600  14.123  10.534   8.421  0.4159  0.1597  0.1232
  547DPPI   C1B 8601  13.853  10.054   9.357  0.1640  0.0990 -0.2053
  547DPPI   C2B 8602  14.055   9.976   9.073 -0.1089  0.2863  0.0489
  547DPPI   C3B 8603  14.420   9.950   8.676  0.0090 -0.2293 -0.1039
  547DPPI   C4B 8604  14.407   9.625   8.326  0.0617 -0.1896  0.1565
  548DPPI    C1 8605  17.304  11.114  10.865 -0.1571  0.0648  0.0769
  548DPPI    C2 8606  16.916  11.201  10.829 -0.1353  0.1367  0.0138
  548DPPI    C3 8607  17.087  11.195  11.190 -0.2636 -0.1923  0.0726
  548DPPI   PO4 8608  17.271  10.936  10.570 -0.0529 -0.1238 -0.0115
  548DPPI   GL1 8609  17.216  10.764  10.117 -0.1969 -0.1421 -0.1751
  548DPPI   GL2 8610  17.502  10.857  10.090 -0.1966  0.2242 -0.0314
  548DPPI   C1A 8611  17.046  10.667   9.779  0.3026 -0.1226  0.0447
  548DPPI   C2A 8612  16.830  10.669   9.457 -0.1197 -0.1410 -0.2422
  548DPPI   C3A 8613  16.728  10.689   9.031  0.0101  0.0466 -0.4148
  548DPPI   C4A 8614  16.643  10.408   8.721 -0.2421 -0.2327  0.0239
  548DPPI   C1B 8615  17.497  10.790   9.591  0.2021 -0.0303 -0.1276
  548DPPI   C2B 8616  17.404  10.918   9.161  0.3144 -0.2377  0.1869
  548DPPI   C3B 8617  17.547  11.236   8.741  0.1143 -0.1070 -0.3863
  548DPPI   C4B 8618  17.348  11.347   8.299  0.3110  0.0216 -0.0937
  549DPPI    C1 8619  12.646  13.311   9.887 -0.0112  0.0054  0.1781
  549DPPI    C2 8620  12.668  13.482  10.248 -0.0534  0.0481  0.1606
  549DPPI    C3 8621  12.495  13.123  10.207 -0.3566  0.1939  0.1311
  549DPPI   PO4 8622  12.562  13.551   9.682 -0.2831 -0.0515  0.1601
  549DPPI   GL1 8623  12.905  13.653   9.390  0.1660 -0.0202  0.1645
  549DPPI   GL2 8624  12.716  13.328   9.226 -0.1452  0.4731  0.0303
  549DPPI   C1A 8625  13.123  13.614   9.015  0.4169 -0.2302 -0.0633
  549DPPI   C2A 8626  13.481  13.441   8.870 -0.0849 -0.5246  0.3386
  549DPPI   C3A 8627  13.811  13.168   8.938  0.0631 -0.0380  0.1284
  549DPPI   C4A 8628  14.171  12.869   9.147  0.0238 -0.0581 -0.2585
  549DPPI   C1B 8629  12.746  13.024   8.886 -0.0476 -0.0115  0.0177
  549DPPI   C2B 8630  12.443  12.928   8.551  0.1134 -0.3954 -0.1731
  549DPPI   C3B 8631  12.368  12.594   8.215 -0.0291  0.3694  0.0333
  549DPPI   C4B 8632  12.349  12.380   7.822  0.2604 -0.0163  0.0971
  550DPPI    C1 8633   0.447   6.280   9.792  0.0795 -0.2201  0.1161
  550DPPI    C2 8634   0.200   6.048  10.005  0.2105 -0.2758  0.2089
  550DPPI    C3 8635   0.573   6.113  10.134  0.1632  0.0180  0.2034
  550DPPI   PO4 8636   0.255   6.486   9.640 -0.0021 -0.0785  0.2090
  550DPPI   GL1 8637   0.278   6.632   9.344  0.0516 -0.0161  0.1323
  550DPPI   GL2 8638   0.065   6.972   9.266 -0.1432  0.2439  0.0087
  550DPPI   C1A 8639   0.004   6.555   8.986 -0.1389 -0.0080 -0.1652
  550DPPI   C2A 8640  -0.191   6.787   8.570  0.2059 -0.0190  0.0291
  550DPPI   C3A 8641  -0.387   6.735   8.159 -0.1727  0.1193  0.0277
  550DPPI   C4A 8642  -0.641   6.891   7.774  0.0057  0.1271 -0.2357
  550DPPI   C1B 8643   0.028   7.097   8.891  0.0095  0.0194  0.3150
  550DPPI   C2B 8644   0.105   7.174   8.379 -0.0693 -0.1607 -0.1987
  550DPPI   C3B 8645   0.456   7.286   8.109 -0.0936 -0.1235 -0.2175
  550DPPI   C4B 8646   0.699   7.445   7.814 -0.1478 -0.0824  0.3553
  551DPPI    C1 8647  11.820  17.972  10.278 -0.1252 -0.1437 -0.1022
  551DPPI    C2 8648  11.999  17.719  10.531 -0.1090 -0.0830 -0.0526
  551DPPI    C3 8649  11.718  17.971  10.664 -0.0863 -0.0370 -0.0911
  551DPPI   PO4 8650  11.705  17.716  10.037 -0.0893  0.2065 -0.1712
  551DPPI   GL1 8651  11.445  17.703   9.748  0.2745 -0.3869  0.1653
  551DPPI   GL2 8652  11.240  17.737   9.492  0.1057 -0.1175 -0.1766
  551DPPI   C1A 8653  11.582  17.454   9.366 -0.0696  0.2780  0.1229
  551DPPI   C2A 8654  11.848  17.515   9.008  0.2023 -0.2400 -0.3945
  551DPPI   C3A 8655  12.199  17.405   8.766 -0.1647 -0.0354 -0.0654
  551DPPI   C4A 8656  12.145  17.348   8.344  0.0734  0.0463  0.1976
  551DPPI   C1B 8657  11.085  17.482   9.044 -0.1267 -0.1421  0.3556
  551DPPI   C2B 8658  10.956  17.398   8.655 -0.0978 -0.1064 -0.0835
  551DPPI   C3B 8659  10.994  17.338   8.248 -0.0004  0.0750  0.1654
  551DPPI   C4B 8660  11.224  17.449   7.876  0.1296 -0.4670 -0.3530
  552DPPI    C1 8661   4.000   7.641  10.235  0.0094  0.0261  0.1427
  552DPPI    C2 8662   3.607   7.591  10.288 -0.0179  0.1955  0.1038
  552DPPI    C3 8663   3.866   7.382  10.509 -0.1296  0.1084  0.1535
  552DPPI   PO4 8664   3.949   7.747   9.897 -0.2698  0.0544 -0.0033
  552DPPI   GL1 8665   4.028   7.682   9.391 -0.2949  0.2680  0.2278
  552DPPI   GL2 8666   3.671   7.716   9.418 -0.1971 -0.0611  0.1572
  552DPPI   C1A 8667   3.920   7.970   9.084  0.1560  0.0239 -0.2582
  552DPPI   C2A 8668   3.952   8.224   8.822  0.1319 -0.1432  0.3860
  552DPPI   C3A 8669   3.951   8.309   8.304 -0.0726 -0.1372  0.0256
  552DPPI   C4A 8670   3.855   8.743   8.022  0.1175  0.0669  0.2635
  552DPPI   C1B 8671   3.554   7.555   8.949  0.3375  0.1641  0.2965
  552DPPI   C2B 8672   3.538   7.553   8.435 -0.2636  0.1295 -0.2096
  552DPPI   C3B 8673   3.594   7.637   7.984 -0.5042  0.3739 -0.1421
  552DPPI   C4B 8674   3.495   7.676   7.547  0.0602  0.1142  0.2858
  553DPPI    C1 8675  12.626  11.594   9.837  0.0723 -0.1174 -0.1409
  553DPPI    C2 8676  12.546  11.214   9.934  0.3294 -0.1498 -0.0475
  553DPPI    C3 8677  12.638  11.478  10.220  0.1066 -0.0048 -0.1076
  553DPPI   PO4 8678  12.818  11.464   9.553  0.1658 -0.0191 -0.2656
  553DPPI   GL1 8679  12.882  11.512   9.163 -0.4915  0.1137  0.3674
  553DPPI   GL2 8680  12.551  11.367   9.045  0.2266 -0.0738 -0.1239
  553DPPI   C1A 8681  12.951  11.701   8.824  0.0740  0.1706 -0.1339
  553DPPI   C2A 8682  12.983  11.833   8.401 -0.2512  0.1001  0.0288
  553DPPI   C3A 8683  13.158  11.843   7.938  0.1340  0.1407 -0.0811
  553DPPI   C4A 8684  13.564  11.737   7.836 -0.0102 -0.2534  0.1174
  553DPPI   C1B 8685  12.575  11.256   8.647 -0.2803  0.1183 -0.2050
  553DPPI   C2B 8686  12.807  11.356   8.430  0.3130  0.0776 -0.1316
  553DPPI   C3B 8687  12.933  11.005   8.132 -0.0625  0.3038  0.1477
  553DPPI   C4B 8688  12.897  10.897   7.612  0.0125  0.0754  0.0533
  554PYPI    C1 8689  18.861  15.712  10.430 -0.0590 -0.0809 -0.3141
  554PYPI    C2 8690  19.103  15.450  10.249 -0.0849 -0.1397 -0.2642
  554PYPI    C3 8691  19.186  15.576  10.619  0.1936  0.2955 -0.4662
  554PYPI   PO4 8692  18.785  15.901  10.207 -0.0786  0.0192 -0.0766
  554PYPI   GL1 8693  18.563  16.053   9.930 -0.2469 -0.1422 -0.0567
  554PYPI   GL2 8694  18.420  15.820   9.831  0.1481 -0.2938  0.2456
  554PYPI   C1A 8695  18.869  16.121   9.477  0.1496  0.1301  0.0015
  554PYPI   C2A 8696  18.992  16.073   9.032  0.1158 -0.1704  0.1962
  554PYPI   D3A 8697  19.235  15.944   8.677  0.2077 -0.2411  0.2165
  554PYPI   C4A 8698  19.505  15.729   8.530 -0.1027  0.2914  0.1811
  554PYPI   C1B 8699  18.286  16.083   9.415 -0.2520  0.0344  0.2087
  554PYPI   C2B 8700  18.020  16.237   9.051 -0.4876  0.1706  0.0200
  554PYPI   C3B 8701  17.975  16.241   8.632  0.0809 -0.1253 -0.0715
  554PYPI   C4B 8702  18.160  16.316   8.200 -0.1076  0.1255  0.1030
  555PYPI    C1 8703   1.200   8.844   9.779 -0.1195  0.0666 -0.1312
  555PYPI    C2 8704   0.889   9.084   9.855 -0.2361 -0.0990 -0.0824
  555PYPI    C3 8705   1.151   8.998  10.145 -0.2417 -0.0983 -0.0772
  555PYPI   PO4 8706   1.089   8.620   9.679 -0.1791  0.2570  0.3087
  555PYPI   GL1 8707   1.141   8.293   9.410  0.0638  0.2256  0.2307
  555PYPI   GL2 8708   0.820   8.223   9.341 -0.0953  0.0082 -0.1222
  555PYPI   C1A 8709   1.257   8.438   8.932 -0.0727 -0.0591  0.1148
  555PYPI   C2A 8710   0.969   8.526   8.677  0.1608 -0.0434  0.2507
  555PYPI   D3A 8711   0.828   8.709   8.313  0.1334 -0.1030 -0.0225
  555PYPI   C4A 8712   0.622   9.026   8.254 -0.2146 -0.0727 -0.0810
  555PYPI   C1B 8713   0.607   8.185   8.899  0.1070  0.0237  0.2760
  555PYPI   C2B 8714   0.654   8.158   8.570 -0.2052 -0.0529  0.0497
  555PYPI   C3B 8715   0.501   8.152   8.081 -0.0465  0.0755  0.0427
  555PYPI   C4B 8716   0.782   7.982   7.743 -0.1012 -0.0277  0.2210
  556PYPI    C1 8717  14.518   2.790  10.191 -0.0483 -0.0816 -0.1062
  556PYPI    C2 8718  14.227   2.651  10.427 -0.0809  0.2720  0.0687
  556PYPI    C3 8719  14.438   2.972  10.538  0.2930  0.0966 -0.1161
  556PYPI   PO4 8720  14.452   2.718   9.992  0.2335  0.1265  0.0186
  556PYPI   GL1 8721  14.280   2.759   9.602  0.1808 -0.1255  0.0614
  556PYPI   GL2 8722  14.269   2.546   9.389 -0.0368  0.0790 -0.0230
  556PYPI   C1A 8723  14.491   2.978   9.238 -0.2857 -0.0694 -0.3349
  556PYPI   C2A 8724  14.494   2.940   8.881  0.1046 -0.0765 -0.2028
  556PYPI   D3A 8725  14.746   2.547   8.601 -0.0772 -0.0932 -0.1042
  556PYPI   C4A 8726  14.942   2.594   8.250 -0.1318 -0.0969  0.2750
  556PYPI   C1B 8727  14.172   2.462   8.905  0.2065  0.2295 -0.0565
  556PYPI   C2B 8728  14.058   2.222   8.493  0.2345  0.0386  0.1654
  556PYPI   C3B 8729  14.063   2.022   8.118 -0.0015  0.0040  0.4820
  556PYPI   C4B 8730  14.199   1.925   7.705 -0.0504  0.0211  0.0104
  557PYPI    C1 8731   9.960  13.964   9.648  0.1123  0.0328 -0.0649
  557PYPI    C2 8732   9.756  14.147   9.357 -0.1128 -0.3154 -0.1318
  557PYPI    C3 8733   9.588  14.094   9.716  0.1079 -0.0228  0.0187
  557PYPI   PO4 8734  10.040  13.755   9.519  0.1555 -0.1431  0.0373
  557PYPI   GL1 8735  10.044  13.818   9.113 -0.0730  0.0734 -0.1345
  557PYPI   GL2 8736  10.024  13.553   9.028  0.1687  0.0135 -0.0467
  557PYPI   C1A 8737  10.117  13.929   8.721 -0.0208 -0.0858  0.2149
  557PYPI   C2A 8738  10.165  13.983   8.323 -0.1420  0.3384  0.2662
  557PYPI   D3A 8739  10.361  14.229   8.021 -0.0882 -0.0275  0.1669
  557PYPI   C4A 8740  10.777  14.296   8.071 -0.1770  0.3977  0.0298
  557PYPI   C1B 8741   9.636  13.573   8.749 -0.3446 -0.1491 -0.0593
  557PYPI   C2B 8742   9.246  13.307   8.650 -0.0590 -0.0500  0.1507
  557PYPI   C3B 8743   9.084  12.946   8.591 -0.1643 -0.2470 -0.3826
  557PYPI   C4B 8744   8.951  12.594   8.850 -0.1158  0.2141 -0.0396
  558PYPI    C1 8745  17.735   8.983  10.665  0.1745  0.2079  0.1330
  558PYPI    C2 8746  18.095   8.890  10.814  0.2913  0.0570 -0.2332
  558PYPI    C3 8747  17.844   9.117  11.026  0.4553 -0.1413  0.1842
  558PYPI   PO4 8748  17.807   8.986  10.405 -0.0143  0.1323 -0.4413
  558PYPI   GL1 8749  17.804   9.328  10.124 -0.0748 -0.1217  0.0106
  558PYPI   GL2 8750  17.513   9.469   9.943  0.0098 -0.1827 -0.3027
  558PYPI   C1A 8751  18.016   9.685   9.891  0.0153  0.3392 -0.0280
  558PYPI   C2A 8752  18.042   9.903   9.421  0.3164 -0.1017  0.2965
  558PYPI   D3A 8753  18.133  10.166   9.000  0.1666  0.4630 -0.1398
  558PYPI   C4A 8754  17.955   9.898   8.717  0.3621  0.0183 -0.1506
  558PYPI   C1B 8755  17.734   9.546   9.443  0.0879 -0.1578 -0.1862
  558PYPI   C2B 8756  17.719   9.573   8.986  0.0883  0.0970  0.0742
  558PYPI   C3B 8757  17.649   9.522   8.588  0.2124  0.0481 -0.2165
  558PYPI   C4B 8758  17.357   9.567   8.256  0.1559  0.4550 -0.0441
  559PYPI    C1 8759   1.658  14.665  10.322  0.0097 -0.0479 -0.2467
  559PYPI    C2 8760   1.497  15.021  10.408 -0.1301 -0.0816 -0.3627
  559PYPI    C3 8761   1.363  14.692  10.591  0.0407 -0.0687 -0.2106
  559PYPI   PO4 8762   1.632  14.648  10.059 -0.0005 -0.1179 -0.0040
  559PYPI   GL1 8763   1.441  14.712   9.610  0.3475  0.0720  0.1538
  559PYPI   GL2 8764   1.105  14.616   9.459 -0.2127  0.0393 -0.1330
  559PYPI   C1A 8765   1.701  14.700   9.178 -0.0378  0.1558  0.0697
  559PYPI   C2A 8766   1.698  14.719   8.725 -0.2370 -0.1973 -0.0622
  559PYPI   D3A 8767   1.909  14.852   8.315 -0.0704 -0.0529 -0.2082
  559PYPI   C4A 8768   1.720  15.205   8.121 -0.1587 -0.2515  0.0497
  559PYPI   C1B 8769   1.210  14.557   9.051  0.0971  0.2698 -0.0789
  559PYPI   C2B 8770   1.277  14.323   8.711  0.0714  0.3672 -0.2448
  559PYPI   C3B 8771   1.521  14.122   8.477  0.0827  0.0790 -0.1014
  559PYPI   C4B 8772   1.518  14.077   7.988 -0.1041 -0.1572 -0.4733
  560PYPI    C1 8773   6.954  13.336   9.574 -0.0756  0.1385  0.0519
  560PYPI    C2 8774   7.272  13.197   9.773  0.2029  0.1598 -0.3655
  560PYPI    C3 8775   7.122  13.557   9.862  0.1261  0.0385  0.0128
  560PYPI   PO4 8776   6.949  13.184   9.339  0.1364 -0.1883 -0.1430
  560PYPI   GL1 8777   7.095  13.348   9.005  0.1826 -0.3038  0.0940
  560PYPI   GL2 8778   7.303  13.218   8.837  0.2490 -0.2478  0.1084
  560PYPI   C1A 8779   6.856  13.219   8.635  0.0963 -0.1632  0.0199
  560PYPI   C2A 8780   6.686  13.062   8.253 -0.0604 -0.1545 -0.1788
  560PYPI   D3A 8781   6.711  13.155   7.803  0.1027 -0.1720  0.2215
  560PYPI   C4A 8782   7.005  13.481   7.848 -0.1464 -0.0350 -0.0259
  560PYPI   C1B 8783   7.373  13.316   8.419 -0.0489  0.2876 -0.1834
  560PYPI   C2B 8784   7.522  13.387   8.057  0.3430  0.0214 -0.0768
  560PYPI   C3B 8785   7.432  13.481   7.587  0.0746 -0.0318  0.1833
  560PYPI   C4B 8786   7.397  13.809   7.267 -0.0870 -0.1467 -0.0970
  561PYPI    C1 8787   9.988   0.510  10.076 -0.0618  0.0571 -0.0144
  561PYPI    C2 8788  10.122   0.819  10.293  0.0244 -0.0465  0.0815
  561PYPI    C3 8789   9.730   0.775  10.228  0.0239  0.1831 -0.0860
  561PYPI   PO4 8790  10.081   0.446   9.920  0.0360 -0.0734 -0.1091
  561PYPI   GL1 8791   9.974   0.461   9.462 -0.0060 -0.0686 -0.0071
  561PYPI   GL2 8792  10.100   0.087   9.486  0.3632  0.1476 -0.0994
  561PYPI   C1A 8793   9.887   0.592   9.002  0.3798 -0.3017 -0.4637
  561PYPI   C2A 8794   9.801   0.694   8.579 -0.3699  0.3022  0.0451
  561PYPI   D3A 8795   9.930   0.799   8.138  0.2341  0.1760  0.3269
  561PYPI   C4A 8796   9.698   0.836   7.841  0.0047  0.0624 -0.0122
  561PYPI   C1B 8797  10.207   0.135   8.991 -0.1591 -0.0021 -0.0762
  561PYPI   C2B 8798  10.106   0.198   8.569  0.1686 -0.3030  0.0933
  561PYPI   C3B 8799  10.173   0.186   8.178  0.0594 -0.0037 -0.1643
  561PYPI   C4B 8800   9.982   0.388   7.841  0.1031  0.3011  0.0611
  562PYPI    C1 8801   8.299  11.731   9.663  0.0385 -0.4356 -0.0797
  562PYPI    C2 8802   7.957  11.808   9.855  0.1622  0.0498 -0.0413
  562PYPI    C3 8803   8.272  11.665  10.056  0.0292 -0.2650 -0.0511
  562PYPI   PO4 8804   8.162  11.574   9.455  0.1869  0.1541 -0.0894
  562PYPI   GL1 8805   8.338  11.337   9.021  0.0867  0.0304 -0.1058
  562PYPI   GL2 8806   8.481  11.465   8.980 -0.1565 -0.1339 -0.1537
  562PYPI   C1A 8807   7.904  11.229   8.767  0.4084 -0.2224  0.1216
  562PYPI   C2A 8808   7.822  11.266   8.363  0.0903  0.1983  0.2639
  562PYPI   D3A 8809   7.598  11.614   8.073 -0.1263 -0.0939  0.1804
  562PYPI   C4A 8810   7.744  11.637   7.613  0.1610  0.3672  0.0585
  562PYPI   C1B 8811   8.635  11.615   8.607 -0.2371 -0.1306  0.2362
  562PYPI   C2B 8812   8.592  11.670   8.192  0.2922  0.0321  0.3587
  562PYPI   C3B 8813   8.622  11.630   7.793  0.1161  0.2736  0.0594
  562PYPI   C4B 8814   8.654  11.512   7.418  0.0930  0.1141  0.2966
  563PYPI    C1 8815   4.699  12.403   9.751 -0.1667 -0.1099  0.3331
  563PYPI    C2 8816   5.097  12.413   9.710 -0.1678 -0.3636  0.2434
  563PYPI    C3 8817   4.905  12.723   9.874  0.0541 -0.1918  0.1826
  563PYPI   PO4 8818   4.804  12.281   9.362  0.2631 -0.3156  0.1267
  563PYPI   GL1 8819   4.723  12.458   9.013 -0.3079  0.4909 -0.0968
  563PYPI   GL2 8820   4.861  12.804   8.766 -0.2691 -0.3489  0.2548
  563PYPI   C1A 8821   4.606  12.473   8.584  0.1477  0.2058  0.2013
  563PYPI   C2A 8822   4.383  12.342   8.144  0.0570  0.2091  0.2814
  563PYPI   D3A 8823   4.375  12.436   7.680  0.0510  0.0014 -0.3277
  563PYPI   C4A 8824   4.445  12.053   7.570 -0.4389  0.0376 -0.1231
  563PYPI   C1B 8825   4.705  12.911   8.311 -0.3747  0.1473  0.0615
  563PYPI   C2B 8826   4.624  12.802   7.859 -0.1574  0.2177 -0.0205
  563PYPI   C3B 8827   4.685  12.697   7.371  0.1531 -0.0242  0.1727
  563PYPI   C4B 8828   5.010  12.501   7.191  0.2731  0.1696  0.1470
  564PYPI    C1 8829   8.737  14.443   9.665  0.0104  0.3760 -0.0789
  564PYPI    C2 8830   8.373  14.578   9.566 -0.2316 -0.0905  0.1388
  564PYPI    C3 8831   8.410  14.252   9.794  0.3291 -0.0778  0.0814
  564PYPI   PO4 8832   8.844  14.494   9.369 -0.1994 -0.1704 -0.2576
  564PYPI   GL1 8833   8.774  14.410   8.977 -0.2122  0.4093  0.2775
  564PYPI   GL2 8834   8.524  14.592   9.026  0.2872 -0.2207  0.0028
  564PYPI   C1A 8835   8.958  14.076   8.765  0.1581 -0.3939  0.2915
  564PYPI   C2A 8836   8.770  14.145   8.381  0.0856  0.0625  0.1138
  564PYPI   D3A 8837   8.702  13.873   7.956  0.1462  0.2647 -0.3911
  564PYPI   C4A 8838   8.414  14.038   7.716  0.1414  0.0140  0.0111
  564PYPI   C1B 8839   8.357  14.603   8.553 -0.1609 -0.1618  0.0084
  564PYPI   C2B 8840   8.501  14.528   8.117 -0.1967 -0.0824 -0.2208
  564PYPI   C3B 8841   8.729  14.440   7.678 -0.1046 -0.1093  0.2162
  564PYPI   C4B 8842   9.112  14.697   7.475 -0.0117 -0.0886  0.0230
  565PYPI    C1 8843   5.235  17.745   9.747 -0.1829  0.2086 -0.0360
  565PYPI    C2 8844   5.373  18.112   9.823  0.1360  0.0633  0.1065
  565PYPI    C3 8845   5.519  17.799  10.023 -0.0334 -0.1591 -0.1123
  565PYPI   PO4 8846   4.997  17.891   9.603  0.2077 -0.1785  0.1240
  565PYPI   GL1 8847   4.689  17.765   9.228  0.0227  0.2457 -0.1091
  565PYPI   GL2 8848   5.076  17.672   9.165 -0.1385  0.3248  0.1731
  565PYPI   C1A 8849   4.524  17.984   8.831 -0.0537  0.1285 -0.0063
  565PYPI   C2A 8850   4.424  18.269   8.455  0.1786  0.2741  0.3440
  565PYPI   D3A 8851   4.305  18.335   8.075 -0.0501  0.2393 -0.0767
  565PYPI   C4A 8852   3.902  17.982   7.958  0.2684  0.0175 -0.1333
  565PYPI   C1B 8853   4.907  17.672   8.778  0.0845  0.0737  0.2925
  565PYPI   C2B 8854   4.810  17.697   8.405  0.0873  0.1558  0.0184
  565PYPI   C3B 8855   4.633  17.891   7.998  0.4222 -0.0560  0.1720
  565PYPI   C4B 8856   4.617  17.991   7.548  0.0811  0.0226 -0.1753
  566PYPI    C1 8857   1.841  17.450  10.537  0.2180  0.2009  0.1325
  566PYPI    C2 8858   2.152  17.202  10.575  0.0219 -0.0878 -0.1066
  566PYPI    C3 8859   1.882  17.231  10.869  0.0828 -0.1050 -0.0489
  566PYPI   PO4 8860   1.978  17.598  10.321  0.0554 -0.2247  0.1931
  566PYPI   GL1 8861   2.132  17.629   9.859 -0.2133  0.0965  0.1869
  566PYPI   GL2 8862   1.893  17.534   9.752  0.2382  0.5120  0.2532
  566PYPI   C1A 8863   2.265  17.784   9.436  0.1442 -0.3059  0.1942
  566PYPI   C2A 8864   2.507  18.020   8.937  0.1409  0.0769  0.0161
  566PYPI   D3A 8865   2.171  18.009   8.539 -0.2658 -0.1172  0.0125
  566PYPI   C4A 8866   1.997  17.590   8.536 -0.1416 -0.1923 -0.1693
  566PYPI   C1B 8867   1.726  17.553   9.337 -0.2110  0.0725  0.2738
  566PYPI   C2B 8868   1.562  17.576   8.931  0.0886 -0.1385  0.2508
  566PYPI   C3B 8869   1.461  17.701   8.452  0.0291 -0.1635  0.0431
  566PYPI   C4B 8870   1.655  17.562   8.071 -0.0388  0.2212  0.0794
  567PYPI    C1 8871  11.628   8.482   9.768 -0.1102  0.1632  0.1812
  567PYPI    C2 8872  11.317   8.595   9.993 -0.1933 -0.0768  0.1896
  567PYPI    C3 8873  11.489   8.239  10.054  0.0245  0.0152  0.1224
  567PYPI   PO4 8874  11.826   8.693   9.805  0.0911 -0.0596  0.3250
  567PYPI   GL1 8875  12.059   9.067   9.610 -0.2272 -0.1369 -0.0609
  567PYPI   GL2 8876  12.101   8.945   9.349  0.1125  0.0318  0.2457
  567PYPI   C1A 8877  12.143   9.535   9.359  0.1070 -0.1074 -0.3348
  567PYPI   C2A 8878  12.068   9.829   9.091 -0.1112 -0.2083  0.1183
  567PYPI   D3A 8879  11.963  10.082   8.785  0.2248  0.1957  0.2341
  567PYPI   C4A 8880  11.739   9.893   8.579  0.0646 -0.0400 -0.0591
  567PYPI   C1B 8881  12.098   9.165   9.013 -0.0996 -0.1354  0.0106
  567PYPI   C2B 8882  12.078   9.541   8.664  0.0145 -0.0455  0.0102
  567PYPI   C3B 8883  11.951   9.606   8.226 -0.3108  0.0860  0.0731
  567PYPI   C4B 8884  11.737   9.379   7.872  0.0603  0.4553 -0.3592
  568PYPI    C1 8885   0.532  18.865   9.825 -0.0252  0.0793  0.0860
  568PYPI    C2 8886   0.395  18.676  10.150  0.1368  0.0767  0.1538
  568PYPI    C3 8887   0.229  18.606   9.793 -0.0045  0.0365  0.2267
  568PYPI   PO4 8888   0.795  18.774   9.778  0.1972 -0.1093  0.0685
  568PYPI   GL1 8889   1.252  18.756   9.655  0.1731  0.1970 -0.0755
  568PYPI   GL2 8890   1.540  18.462   9.750 -0.3139 -0.1300 -0.1946
  568PYPI   C1A 8891   1.262  18.992   9.295 -0.3330 -0.1675  0.1100
  568PYPI   C2A 8892   1.568  19.085   8.880 -0.0277 -0.1697 -0.2077
  568PYPI   D3A 8893   1.594  18.981   8.418  0.0557  0.0019  0.0198
  568PYPI   C4A 8894   1.624  19.040   8.031  0.1260 -0.2107 -0.0174
  568PYPI   C1B 8895   1.541  18.527   9.357  0.0640 -0.2822  0.1585
  568PYPI   C2B 8896   1.307  18.560   8.982 -0.0201  0.1515 -0.0571
  568PYPI   C3B 8897   1.358  18.501   8.516  0.1725  0.1850  0.2033
  568PYPI   C4B 8898   1.493  18.550   8.122  0.1570  0.0038  0.0274
  569PYPI    C1 8899  14.466   0.867  10.298 -0.1465  0.3847  0.0159
  569PYPI    C2 8900  14.708   0.842  10.616 -0.1665 -0.0858  0.0013
  569PYPI    C3 8901  14.337   0.986  10.658 -0.0124  0.2974  0.0938
  569PYPI   PO4 8902  14.556   0.963  10.102  0.0567  0.3059 -0.2868
  569PYPI   GL1 8903  14.374   0.966   9.698 -0.0598 -0.0966  0.1789
  569PYPI   GL2 8904  14.136   1.171   9.733 -0.0588 -0.2185  0.0100
  569PYPI   C1A 8905  14.521   1.129   9.320 -0.0757  0.0555 -0.1425
  569PYPI   C2A 8906  14.629   1.191   8.867 -0.0167 -0.0466 -0.0247
  569PYPI   D3A 8907  14.843   1.111   8.328 -0.1804  0.0556  0.0792
  569PYPI   C4A 8908  15.159   0.819   8.203 -0.0317  0.1101  0.0931
  569PYPI   C1B 8909  13.937   1.095   9.457 -0.1661  0.1840 -0.0556
  569PYPI   C2B 8910  13.930   1.218   9.048 -0.0456  0.4745 -0.0383
  569PYPI   C3B 8911  14.145   1.222   8.680 -0.2067 -0.1369 -0.0892
  569PYPI   C4B 8912  14.411   1.028   8.474  0.2931  0.0570 -0.2244
  570PYPI    C1 8913  13.467  13.902  10.247 -0.2168  0.0185 -0.0134
  570PYPI    C2 8914  13.800  13.679  10.244 -0.1503  0.1173 -0.0070
  570PYPI    C3 8915  13.630  13.780  10.592 -0.1915  0.0603 -0.0105
  570PYPI   PO4 8916  13.519  14.001   9.956 -0.2748  0.3711 -0.0572
  570PYPI   GL1 8917  13.686  14.080   9.463  0.0953  0.1041 -0.2012
  570PYPI   GL2 8918  13.936  13.890   9.290  0.2188 -0.1915  0.0780
  570PYPI   C1A 8919  13.530  13.991   8.954 -0.0522 -0.2127  0.0130
  570PYPI   C2A 8920  13.626  14.126   8.500  0.1758 -0.1123 -0.0376
  570PYPI   D3A 8921  13.818  14.121   8.066 -0.2374  0.4166  0.2174
  570PYPI   C4A 8922  13.780  14.490   7.785  0.0528  0.2761  0.0160
  570PYPI   C1B 8923  14.048  13.666   8.914 -0.0432  0.0787 -0.2424
  570PYPI   C2B 8924  14.223  13.290   8.704  0.1597 -0.0550  0.0494
  570PYPI   C3B 8925  14.252  13.154   8.239  0.0750 -0.3144  0.2205
  570PYPI   C4B 8926  14.048  13.002   7.817  0.0021 -0.1624  0.2043
  571PYPI    C1 8927  11.315   8.899  10.425  0.0162 -0.0713  0.1159
  571PYPI    C2 8928  11.641   8.668  10.423  0.0989  0.0443 -0.1037
  571PYPI    C3 8929  11.493   8.802  10.770  0.1737 -0.1621  0.0100
  571PYPI   PO4 8930  11.406   9.050  10.227  0.1607  0.4615  0.2099
  571PYPI   GL1 8931  11.461   8.941   9.642 -0.1626 -0.2787 -0.1326
  571PYPI   GL2 8932  11.108   8.868   9.582  0.0692 -0.2535  0.1592
  571PYPI   C1A 8933  11.568   8.853   9.177 -0.0237  0.1085  0.1641
  571PYPI   C2A 8934  11.636   8.948   8.862  0.3269  0.0189  0.0140
  571PYPI   D3A 8935  11.535   8.991   8.377  0.0880  0.1410  0.2075
  571PYPI   C4A 8936  11.596   8.625   8.146  0.2092  0.2381  0.1970
  571PYPI   C1B 8937  11.138   9.174   9.199 -0.0347 -0.2380  0.0270
  571PYPI   C2B 8938  11.097   9.234   8.764  0.3411  0.0921  0.1859
  571PYPI   C3B 8939  10.998   9.295   8.307  0.3078 -0.2576 -0.2122
  571PYPI   C4B 8940  10.829   9.519   7.849  0.3803  0.0168  0.0300
  572PYPI    C1 8941   5.807  18.381   9.707  0.1606  0.0530  0.0195
  572PYPI    C2 8942   5.671  18.753   9.653  0.0108  0.0030  0.0484
  572PYPI    C3 8943   5.631  18.575  10.009 -0.0565 -0.0960 -0.0084
  572PYPI   PO4 8944   5.666  18.271   9.446  0.0504  0.0816 -0.0293
  572PYPI   GL1 8945   5.560  18.334   8.975 -0.1165  0.1043 -0.2102
  572PYPI   GL2 8946   5.757  18.175   8.638 -0.2581 -0.2422  0.1383
  572PYPI   C1A 8947   5.390  17.922   8.822 -0.2425 -0.3651 -0.1409
  572PYPI   C2A 8948   5.327  17.841   8.331  0.2364  0.0847 -0.0570
  572PYPI   D3A 8949   5.535  18.107   7.975  0.1746  0.0416  0.0019
  572PYPI   C4A 8950   5.806  18.044   7.651  0.0336 -0.2084 -0.1038
  572PYPI   C1B 8951   6.048  18.314   8.322 -0.1480 -0.1818 -0.1276
  572PYPI   C2B 8952   6.337  18.546   7.981 -0.0659  0.0077 -0.1425
  572PYPI   C3B 8953   6.648  18.658   7.660 -0.0829  0.0477  0.3252
  572PYPI   C4B 8954   6.878  19.064   7.515  0.0704  0.0942  0.0121
  573PYPI    C1 8955   5.175  18.577   9.782  0.1246  0.2124 -0.2425
  573PYPI    C2 8956   4.945  18.285   9.930  0.2418  0.0952 -0.2897
  573PYPI    C3 8957   4.886  18.663  10.045  0.2159  0.0280 -0.0789
  573PYPI   PO4 8958   5.093  18.617   9.552 -0.1470 -0.0173 -0.0914
  573PYPI   GL1 8959   4.917  18.775   9.119  0.2454 -0.0547 -0.1700
  573PYPI   GL2 8960   4.938  19.002   9.227 -0.1054  0.2180 -0.0534
  573PYPI   C1A 8961   4.591  18.722   8.721 -0.1084 -0.0046  0.1773
  573PYPI   C2A 8962   4.672  18.697   8.179 -0.0600 -0.3737 -0.2201
  573PYPI   D3A 8963   4.505  18.623   7.692 -0.4942  0.3510  0.0156
  573PYPI   C4A 8964   4.570  18.836   7.329 -0.2288  0.2249  0.1486
  573PYPI   C1B 8965   4.777  19.422   8.891 -0.0306  0.1572  0.1047
  573PYPI   C2B 8966   4.921  19.766   8.847  0.0143  0.0763 -0.3128
  573PYPI   C3B 8967   4.783  20.187   8.763 -0.0854 -0.0450  0.0111
  573PYPI   C4B 8968   4.643  20.472   8.655 -0.1702  0.1820  0.4175
  574ERGO   ROH 8969  18.062   8.201   9.598  0.1523 -0.2603  0.1018
  574ERGO    R1 8970  17.942   7.954   9.534 -0.2622 -0.0712  0.1160
  574ERGO    R2 8971  17.732   7.932   9.355 -0.0423  0.2269 -0.1954
  574ERGO    R3 8972  17.896   7.752   9.235 -0.2086 -0.2080  0.2004
  574ERGO    R4 8973  17.629   7.694   9.128 -0.1616  0.2936 -0.2113
  574ERGO    R5 8974  17.764   7.552   9.222 -0.6175  0.0569  0.1164
  574ERGO    C1 8975  17.722   7.385   8.882 -0.3871 -0.0758  0.1510
  574ERGO    C2 8976  17.687   7.111   8.550  0.0544 -0.1466 -0.0732
  575ERGO   ROH 8977   0.582   5.130   9.305 -0.0133 -0.1041 -0.0028
  575ERGO    R1 8978   0.435   5.045   9.078 -0.0154  0.0633 -0.0662
  575ERGO    R2 8979   0.434   5.184   8.840  0.2725  0.0518 -0.0782
  575ERGO    R3 8980   0.511   4.945   8.736  0.0243 -0.0546 -0.0234
  575ERGO    R4 8981   0.400   5.092   8.508 -0.1883 -0.1499  0.0170
  575ERGO    R5 8982   0.342   4.893   8.575 -0.2063 -0.0790  0.2189
  575ERGO    C1 8983   0.453   4.814   8.219 -0.6895 -0.3671  0.1237
  575ERGO    C2 8984   0.686   4.615   8.024  0.1119 -0.0150 -0.3078
  576ERGO   ROH 8985   2.910  11.921   9.169 -0.0502  0.0058 -0.0742
  576ERGO    R1 8986   2.848  11.806   8.918 -0.2140  0.0606 -0.0601
  576ERGO    R2 8987   2.651  11.908   8.753 -0.1042  0.2936 -0.0551
  576ERGO    R3 8988   2.853  11.912   8.570 -0.1079  0.0278 -0.0680
  576ERGO    R4 8989   2.608  11.922   8.410 -0.1052  0.4447 -0.0489
  576ERGO    R5 8990   2.771  11.780   8.388 -0.3244  0.1967 -0.0952
  576ERGO    C1 8991   2.772  11.934   8.040 -0.1091  0.2830 -0.0576
  576ERGO    C2 8992   2.794  12.135   7.780  0.1154  0.2353  0.2669
  577ERGO   ROH 8993   6.439   2.227   8.997 -0.0709  0.1040 -0.1694
  577ERGO    R1 8994   6.565   2.062   8.804 -0.0791  0.0532 -0.1327
  577ERGO    R2 8995   6.455   2.016   8.554 -0.0638  0.0320 -0.1385
  577ERGO    R3 8996   6.697   2.104   8.467 -0.0415 -0.0188 -0.1263
  577ERGO    R4 8997   6.573   1.983   8.231 -0.1176  0.1489 -0.1696
  577ERGO    R5 8998   6.769   1.937   8.312 -0.1264  0.0321 -0.2194
  577ERGO    C1 8999   6.868   2.048   7.961 -0.1280  0.1692 -0.1761
  577ERGO    C2 9000   6.924   2.255   7.729 -0.3187  0.0432 -0.1430
  578ERGO   ROH 9001   6.105  13.860   8.829 -0.0625 -0.2275  0.0487
  578ERGO    R1 9002   6.127  13.709   8.591  0.0175 -0.2232  0.0515
  578ERGO    R2 9003   5.906  13.631   8.444  0.0664 -0.1447 -0.0766
  578ERGO    R3 9004   6.038  13.754   8.241  0.2208 -0.1726  0.0069
  578ERGO    R4 9005   5.875  13.550   8.110  0.2295 -0.0960 -0.1037
  578ERGO    R5 9006   6.089  13.578   8.087  0.2462 -0.1687  0.0179
  578ERGO    C1 9007   5.980  13.618   7.724  0.4693 -0.0939 -0.0410
  578ERGO    C2 9008   5.978  13.706   7.359 -0.2394  0.2059 -0.1541
  579ERGO   ROH 9009  10.259  10.988   9.022  0.2334 -0.0730  0.0193
  579ERGO    R1 9010  10.403  10.867   8.810  0.1370 -0.1364 -0.0109
  579ERGO    R2 9011  10.299  10.661   8.658 -0.0313 -0.0147 -0.0676
  579ERGO    R3 9012  10.361  10.826   8.451  0.1044 -0.0072 -0.0211
  579ERGO    R4 9013  10.347  10.559   8.331 -0.2475  0.0628 -0.1254
  579ERGO    R5 9014  10.514  10.699   8.317 -0.0868 -0.1319 -0.1182
  579ERGO    C1 9015  10.434  10.655   7.947 -0.2459  0.1148 -0.1155
  579ERGO    C2 9016  10.384  10.437   7.716  0.0019 -0.0889  0.2003
  580ERGO   ROH 9017   0.310   0.408   9.251 -0.1508  0.0242  0.0179
  580ERGO    R1 9018   0.150   0.472   9.026  0.0101  0.1892 -0.0524
  580ERGO    R2 9019   0.258   0.564   8.789  0.2334 -0.1256 -0.0828
  580ERGO    R3 9020   0.119   0.356   8.682 -0.1149  0.0553  0.0037
  580ERGO    R4 9021   0.220   0.506   8.450  0.2592 -0.2831 -0.0589
  580ERGO    R5 9022   0.013   0.449   8.488  0.1334  0.1274 -0.1000
  580ERGO    C1 9023   0.068   0.277   8.153 -0.0527 -0.2050  0.0362
  580ERGO    C2 9024   0.200   0.227   7.838  0.1687  0.1270  0.2128
  581ERGO   ROH 9025  13.768   7.245   9.281  0.0809 -0.0194 -0.0379
  581ERGO    R1 9026  13.814   7.307   9.008  0.0244  0.0444 -0.0326
  581ERGO    R2 9027  13.997   7.169   8.853 -0.0825  0.0160 -0.1278
  581ERGO    R3 9028  13.783   7.135   8.689 -0.1443  0.1567 -0.0794
  581ERGO    R4 9029  14.016   7.105   8.514 -0.1921 -0.0247 -0.1269
  581ERGO    R5 9030  13.847   7.240   8.484 -0.1063  0.0977 -0.1018
  581ERGO    C1 9031  13.826   7.034   8.163 -0.3139  0.0837 -0.0810
  581ERGO    C2 9032  13.904   6.819   7.938  0.0088  0.2421  0.1512
  582ERGO   ROH 9033  17.232   1.971   9.738  0.2649 -0.0526 -0.1627
  582ERGO    R1 9034  17.259   1.848   9.485  0.4388 -0.1036 -0.1209
  582ERGO    R2 9035  17.158   1.959   9.254  0.0647 -0.4333 -0.1262
  582ERGO    R3 9036  17.413   1.930   9.166  0.1073  0.1277 -0.2275
  582ERGO    R4 9037  17.257   1.983   8.923 -0.1816 -0.5133 -0.2082
  582ERGO    R5 9038  17.391   1.815   8.957  0.2763 -0.1507 -0.0997
  582ERGO    C1 9039  17.555   1.970   8.649 -0.2850 -0.0333 -0.3509
  582ERGO    C2 9040  17.706   2.051   8.306  0.0900 -0.0612 -0.1044
  583ERGO   ROH 9041   5.413  16.419   9.116  0.1494 -0.1209  0.1623
  583ERGO    R1 9042   5.592  16.505   8.914  0.0241  0.0602  0.1264
  583ERGO    R2 9043   5.630  16.364   8.680  0.1788  0.0545  0.1561
  583ERGO    R3 9044   5.569  16.602   8.564 -0.1318 -0.0456  0.1056
  583ERGO    R4 9045   5.606  16.417   8.339  0.4126  0.0116  0.1312
  583ERGO    R5 9046   5.705  16.610   8.367  0.0519  0.1943  0.2349
  583ERGO    C1 9047   5.535  16.672   8.032  0.2571 -0.1070  0.0693
  583ERGO    C2 9048   5.330  16.567   7.721 -0.1004 -0.0748  0.0665
  584ERGO   ROH 9049   6.871  17.946   8.821  0.0423  0.0032 -0.0247
  584ERGO    R1 9050   7.075  17.983   8.628 -0.0557  0.0731 -0.1160
  584ERGO    R2 9051   7.046  17.905   8.364 -0.1720  0.1254 -0.1162
  584ERGO    R3 9052   7.113  18.164   8.316 -0.2304  0.1446 -0.0982
  584ERGO    R4 9053   7.138  18.032   8.056  0.1587  0.0784 -0.0412
  584ERGO    R5 9054   7.290  18.152   8.155 -0.0167  0.1777  0.1244
  584ERGO    C1 9055   7.254  18.349   7.831  0.2964  0.0689  0.0193
  584ERGO    C2 9056   7.198  18.526   7.546 -0.0704 -0.1138  0.1097
  585ERGO   ROH 9057   7.950  15.970   9.207 -0.1802 -0.1982 -0.1279
  585ERGO    R1 9058   7.912  16.020   8.931 -0.0383 -0.3575 -0.1782
  585ERGO    R2 9059   7.917  16.274   8.824 -0.5441 -0.3582 -0.2329
  585ERGO    R3 9060   8.106  16.168   8.661 -0.1192  0.0409 -0.0237
  585ERGO    R4 9061   7.963  16.363   8.493 -0.3818 -0.2993 -0.1950
  585ERGO    R5 9062   7.997  16.152   8.447  0.1430 -0.2342 -0.1401
  585ERGO    C1 9063   8.168  16.314   8.147  0.1116  0.1096  0.0235
  585ERGO    C2 9064   8.301  16.347   7.914  0.0471  0.0841 -0.2990
  586ERGO   ROH 9065   3.516   6.981   8.949  0.0736 -0.1239 -0.0716
  586ERGO    R1 9066   3.458   6.928   8.677  0.2476 -0.2061 -0.0953
  586ERGO    R2 9067   3.335   7.114   8.513 -0.1823 -0.4536 -0.0738
  586ERGO    R3 9068   3.551   7.069   8.355 -0.0285  0.1077 -0.0427
  586ERGO    R4 9069   3.337   7.143   8.169 -0.1492 -0.2909 -0.0604
  586ERGO    R5 9070   3.461   6.964   8.159  0.2625 -0.0109 -0.1145
  586ERGO    C1 9071   3.541   7.118   7.820  0.0145  0.3307 -0.0234
  586ERGO    C2 9072   3.793   7.256   7.569  0.0549 -0.2069 -0.1745
  587ERGO   ROH 9073   5.100  18.213   9.252  0.0891 -0.0592 -0.1050
  587ERGO    R1 9074   4.975  18.168   9.002 -0.0212  0.0233 -0.0658
  587ERGO    R2 9075   4.906  18.374   8.831  0.1637  0.0654 -0.0955
  587ERGO    R3 9076   5.053  18.231   8.652 -0.0325 -0.1379 -0.0974
  587ERGO    R4 9077   4.871  18.391   8.487  0.0987  0.0150 -0.0910
  587ERGO    R5 9078   4.898  18.175   8.479 -0.1348 -0.0160 -0.0450
  587ERGO    C1 9079   4.989  18.266   8.120 -0.1234 -0.2050 -0.0903
  587ERGO    C2 9080   4.900  18.356   7.746  0.1613 -0.1111 -0.0538
  588ERGO   ROH 9081  10.874   2.760   9.507  0.0615 -0.0735 -0.0256
  588ERGO    R1 9082  10.763   2.654   9.269  0.0498 -0.1185 -0.0001
  588ERGO    R2 9083  10.792   2.778   9.024 -0.1074 -0.0747  0.0037
  588ERGO    R3 9084  10.889   2.535   8.948  0.0203 -0.0073 -0.0538
  588ERGO    R4 9085  10.785   2.654   8.701 -0.1728 -0.0583 -0.0014
  588ERGO    R5 9086  10.733   2.459   8.783 -0.0065 -0.0993  0.0117
  588ERGO    C1 9087  10.871   2.354   8.443 -0.0910  0.0147 -0.0584
  588ERGO    C2 9088  10.965   2.230   8.065 -0.5829  0.2359 -0.0331
  589ERGO   ROH 9089  14.529   3.952   9.492 -0.2126 -0.1719 -0.0109
  589ERGO    R1 9090  14.526   4.045   9.225 -0.4498 -0.1136  0.0092
  589ERGO    R2 9091  14.727   3.987   9.044 -0.2640  0.4703  0.0003
  589ERGO    R3 9092  14.521   3.895   8.893 -0.0231 -0.0652 -0.0225
  589ERGO    R4 9093  14.693   4.036   8.704 -0.3787  0.4071  0.0029
  589ERGO    R5 9094  14.480   4.069   8.735 -0.4757 -0.1538 -0.0108
  589ERGO    C1 9095  14.480   3.978   8.364 -0.2193 -0.1324 -0.0171
  589ERGO    C2 9096  14.543   3.849   8.095 -0.0152  0.1004  0.0554
  590ERGO   ROH 9097  18.075   8.974   9.873 -0.2570  0.0880 -0.0928
  590ERGO    R1 9098  18.052   9.144   9.648 -0.1106  0.0526 -0.1359
  590ERGO    R2 9099  18.259   9.307   9.562 -0.0166 -0.0429 -0.0945
  590ERGO    R3 9100  18.217   9.180   9.325  0.0202 -0.0746 -0.0840
  590ERGO    R4 9101  18.305   9.448   9.250 -0.0527 -0.0585 -0.1068
  590ERGO    R5 9102  18.124   9.348   9.183 -0.0241 -0.1133 -0.0997
  590ERGO    C1 9103  18.292   9.411   8.846 -0.0394 -0.0975 -0.1041
  590ERGO    C2 9104  18.142   9.488   8.471 -0.0562 -0.0269 -0.1212
  591ERGO   ROH 9105   3.088  14.933   9.539  0.1182  0.1658 -0.1233
  591ERGO    R1 9106   2.959  14.937   9.287  0.0572  0.0483 -0.0944
  591ERGO    R2 9107   2.992  15.143   9.106 -0.0230 -0.0128 -0.1797
  591ERGO    R3 9108   3.061  14.941   8.938 -0.0266 -0.0640 -0.1206
  591ERGO    R4 9109   3.024  15.174   8.764  0.1461 -0.0753 -0.1704
  591ERGO    R5 9110   2.929  14.980   8.742  0.0784 -0.0394 -0.1864
  591ERGO    C1 9111   3.108  15.003   8.406  0.2410 -0.1598 -0.1095
  591ERGO    C2 9112   3.219  14.992   8.005 -0.0377 -0.0347  0.1958
  592ERGO   ROH 9113   6.400  16.409   9.349  0.0592  0.1203 -0.0160
  592ERGO    R1 9114   6.245  16.338   9.123  0.1063  0.0664 -0.0322
  592ERGO    R2 9115   6.047  16.501   9.021 -0.0741 -0.0840  0.0635
  592ERGO    R3 9116   6.187  16.471   8.790 -0.0637  0.1639  0.0359
  592ERGO    R4 9117   6.005  16.696   8.739 -0.4321 -0.1150  0.0910
  592ERGO    R5 9118   6.026  16.516   8.618 -0.1666 -0.0704  0.0691
  592ERGO    C1 9119   6.112  16.782   8.357 -0.6309  0.0997  0.0812
  592ERGO    C2 9120   6.228  16.949   8.080 -0.0044 -0.4564  0.1755
  593ERGO   ROH 9121  10.772  16.889   9.105  0.2303 -0.0856 -0.0925
  593ERGO    R1 9122  10.983  16.829   8.926  0.0835 -0.2252 -0.2216
  593ERGO    R2 9123  10.938  16.750   8.665 -0.1260  0.2735 -0.3491
  593ERGO    R3 9124  11.105  16.958   8.608  0.2811  0.0461 -0.0404
  593ERGO    R4 9125  11.100  16.797   8.363 -0.0278  0.4018 -0.2775
  593ERGO    R5 9126  11.277  16.860   8.473  0.1001 -0.0962 -0.1730
  593ERGO    C1 9127  11.350  17.019   8.134  0.4116  0.2629  0.0539
  593ERGO    C2 9128  11.381  16.989   7.751 -0.1613  0.0822 -0.1332
  594ERGO   ROH 9129  18.512  18.806   9.532  0.1244  0.1928 -0.0218
  594ERGO    R1 9130  18.424  19.029   9.381 -0.0756  0.0528 -0.1181
  594ERGO    R2 9131  18.599  19.201   9.255 -0.2153  0.2881 -0.0069
  594ERGO    R3 9132  18.451  19.141   9.036  0.0345  0.0399 -0.1127
  594ERGO    R4 9133  18.579  19.396   8.970 -0.3955  0.2877  0.0050
  594ERGO    R5 9134  18.366  19.352   8.961 -0.3113 -0.1057 -0.1400
  594ERGO    C1 9135  18.428  19.453   8.599 -0.2658  0.0544 -0.0874
  594ERGO    C2 9136  18.557  19.356   8.333  0.1937  0.3075  0.0453
  595ERGO   ROH 9137   0.696  18.458   9.375 -0.0961  0.0928 -0.0996
  595ERGO    R1 9138   0.810  18.528   9.125 -0.0697  0.2262 -0.0510
  595ERGO    R2 9139   0.805  18.359   8.906  0.2288  0.2137 -0.0530
  595ERGO    R3 9140   0.692  18.574   8.784  0.0216  0.0784 -0.1038
  595ERGO    R4 9141   0.810  18.419   8.566  0.1573  0.1286 -0.0691
  595ERGO    R5 9142   0.844  18.630   8.608 -0.0366  0.1740 -0.1252
  595ERGO    C1 9143   0.707  18.656   8.253 -0.0788 -0.0478 -0.1259
  595ERGO    C2 9144   0.725  18.663   7.875 -0.4255 -0.1946  0.1776
  596ERGO   ROH 9145  16.221  12.647   9.385  0.1411 -0.0946 -0.1193
  596ERGO    R1 9146  16.265  12.612   9.107  0.2152 -0.2702 -0.0872
  596ERGO    R2 9147  16.328  12.821   8.938 -0.1291 -0.3035 -0.2744
  596ERGO    R3 9148  16.540  12.663   8.875  0.1473 -0.0100 -0.1108
  596ERGO    R4 9149  16.498  12.830   8.638 -0.2728 -0.4583 -0.3609
  596ERGO    R5 9150  16.509  12.612   8.643  0.1402 -0.4376 -0.0207
  596ERGO    C1 9151  16.796  12.686   8.403 -0.0968 -0.2730 -0.2577
  596ERGO    C2 9152  16.922  12.885   8.296  0.0875  0.0493 -0.1770
  597ERGO   ROH 9153   7.261  10.541   8.563  0.0435 -0.1273  0.0040
  597ERGO    R1 9154   7.351  10.409   8.329  0.1047 -0.0360 -0.0235
  597ERGO    R2 9155   7.242  10.172   8.241  0.1645 -0.0261 -0.1143
  597ERGO    R3 9156   7.208  10.310   8.010  0.1752  0.0369 -0.0794
  597ERGO    R4 9157   7.182  10.028   7.933 -0.2355  0.0622 -0.0844
  597ERGO    R5 9158   7.316  10.175   7.844 -0.1063 -0.0954 -0.1673
  597ERGO    C1 9159   7.116  10.073   7.536 -0.4582  0.1728 -0.0344
  597ERGO    C2 9160   6.927  10.040   7.306 -0.2767  0.2147 -0.0045
  598ERGO   ROH 9161   8.441  12.244   8.798 -0.1516 -0.0941 -0.0674
  598ERGO    R1 9162   8.495  12.147   8.538 -0.0652 -0.0338 -0.0729
  598ERGO    R2 9163   8.301  12.126   8.344 -0.0310 -0.1157 -0.1030
  598ERGO    R3 9164   8.475  12.275   8.198 -0.0915 -0.0018 -0.0584
  598ERGO    R4 9165   8.334  12.112   8.000  0.1815 -0.2114 -0.0799
  598ERGO    R5 9166   8.550  12.128   8.025  0.1518  0.0065  0.0384
  598ERGO    C1 9167   8.516  12.244   7.663  0.2486 -0.1601 -0.0246
  598ERGO    C2 9168   8.228  12.379   7.335  0.3239 -0.3610 -0.0775
  599ERGO   ROH 9169   0.057  11.359   9.859 -0.2057  0.0868  0.0238
  599ERGO    R1 9170  -0.190  11.355   9.722 -0.0584 -0.0196 -0.2444
  599ERGO    R2 9171  -0.381  11.553   9.753 -0.2705 -0.2221 -0.2693
  599ERGO    R3 9172  -0.362  11.569   9.483  0.0017  0.0339 -0.2420
  599ERGO    R4 9173  -0.588  11.743   9.551 -0.0834 -0.0437 -0.2985
  599ERGO    R5 9174  -0.589  11.579   9.408  0.0703  0.0868 -0.4593
  599ERGO    C1 9175  -0.691  11.868   9.180  0.2812  0.3005 -0.2899
  599ERGO    C2 9176  -0.920  12.035   8.997 -0.1006  0.0160 -0.1212
  600ERGO   ROH 9177   2.340   1.605   9.380  0.1101  0.3591 -0.0381
  600ERGO    R1 9178   2.332   1.469   9.132  0.1803  0.3196 -0.0199
  600ERGO    R2 9179   2.102   1.452   8.980  0.1582  0.0909  0.0292
  600ERGO    R3 9180   2.262   1.556   8.786  0.0252  0.2163 -0.0142
  600ERGO    R4 9181   2.135   1.323   8.661  0.2576  0.0585  0.0530
  600ERGO    R5 9182   2.349   1.364   8.672  0.2139  0.2854  0.0163
  600ERGO    C1 9183   2.305   1.344   8.293  0.1906  0.1573  0.0260
  600ERGO    C2 9184   2.298   1.372   8.008 -0.3467 -0.0138  0.1176
  601ERGO   ROH 9185   1.906   8.781   9.155  0.0688  0.0898 -0.0123
  601ERGO    R1 9186   1.680   8.789   8.985  0.1066  0.0483 -0.0653
  601ERGO    R2 9187   1.670   8.947   8.758  0.1142  0.0777 -0.0475
  601ERGO    R3 9188   1.607   8.711   8.637  0.2128  0.0766 -0.0927
  601ERGO    R4 9189   1.514   8.916   8.451 -0.1100  0.0652  0.0655
  601ERGO    R5 9190   1.397   8.752   8.532  0.0951 -0.0614  0.0928
  601ERGO    C1 9191   1.365   8.677   8.159 -0.1479  0.0567  0.0888
  601ERGO    C2 9192   1.331   8.684   7.907 -0.0530 -0.1977 -0.2818
  602ERGO   ROH 9193   3.110  16.243   9.249 -0.0290 -0.0290 -0.1911
  602ERGO    R1 9194   3.273  16.447   9.139 -0.0720  0.1238  0.0190
  602ERGO    R2 9195   3.327  16.466   8.868  0.2874  0.1514  0.0801
  602ERGO    R3 9196   3.233  16.719   8.901 -0.0140  0.0608 -0.0609
  602ERGO    R4 9197   3.412  16.736   8.670  0.3331  0.2411  0.2229
  602ERGO    R5 9198   3.420  16.859   8.850 -0.0704  0.2474  0.2375
  602ERGO    C1 9199   3.374  17.130   8.586  0.0767  0.2086  0.1736
  602ERGO    C2 9200   3.335  17.250   8.208 -0.2165 -0.4402  0.1849
  603ERGO   ROH 9201  11.780  11.993   9.063  0.2284 -0.0097 -0.0350
  603ERGO    R1 9202  11.951  12.095   8.861  0.2229  0.0298 -0.0192
  603ERGO    R2 9203  12.046  11.938   8.654  0.2061  0.0741 -0.0586
  603ERGO    R3 9204  11.939  12.135   8.500  0.2083  0.1147 -0.0100
  603ERGO    R4 9205  12.070  11.954   8.310 -0.0745 -0.0191 -0.0848
  603ERGO    R5 9206  12.101  12.169   8.326  0.0878 -0.0342 -0.1560
  603ERGO    C1 9207  11.983  12.147   7.964 -0.2358 -0.0354 -0.0545
  603ERGO    C2 9208  11.850  11.940   7.693 -0.3256 -0.1750 -0.2389
  604ERGO   ROH 9209  10.379   4.919   9.450 -0.0611  0.0667 -0.0585
  604ERGO    R1 9210  10.558   4.968   9.236  0.0408 -0.0969 -0.0127
  604ERGO    R2 9211  10.709   4.769   9.119 -0.2795 -0.2805 -0.1204
  604ERGO    R3 9212  10.593   4.860   8.891 -0.1131  0.0539 -0.0782
  604ERGO    R4 9213  10.825   4.707   8.800 -0.2263 -0.0954 -0.1382
  604ERGO    R5 9214  10.777   4.912   8.747 -0.0052  0.0096  0.0379
  604ERGO    C1 9215  10.784   4.756   8.400 -0.0390  0.3263 -0.1091
  604ERGO    C2 9216  10.840   4.685   8.113  0.1295  0.1034  0.1668
  605ERGO   ROH 9217   7.942  17.779   9.344 -0.0452  0.2185 -0.1548
  605ERGO    R1 9218   8.008  17.691   9.083 -0.0751  0.1574 -0.1426
  605ERGO    R2 9219   8.009  17.423   9.013  0.1215  0.1203 -0.0250
  605ERGO    R3 9220   7.840  17.508   8.817 -0.0323 -0.1036  0.0076
  605ERGO    R4 9221   7.976  17.276   8.702  0.2262  0.0610 -0.0075
  605ERGO    R5 9222   7.963  17.475   8.614 -0.0424  0.0361 -0.0184
  605ERGO    C1 9223   7.799  17.270   8.337  0.1428 -0.1835  0.0332
  605ERGO    C2 9224   7.821  17.200   8.099  0.4012  0.3039 -0.0483
  606ERGO   ROH 9225   2.357  12.633   9.064 -0.4044  0.0038  0.2270
  606ERGO    R1 9226   2.141  12.657   8.884 -0.2922  0.1745  0.1111
  606ERGO    R2 9227   2.137  12.844   8.679  0.0305  0.0826  0.0081
  606ERGO    R3 9228   2.092  12.625   8.524 -0.1532  0.0521  0.1034
  606ERGO    R4 9229   2.027  12.853   8.352  0.2855  0.0386 -0.0808
  606ERGO    R5 9230   1.899  12.682   8.396  0.0199  0.2399 -0.0741
  606ERGO    C1 9231   1.920  12.653   8.016  0.2616 -0.0157 -0.0431
  606ERGO    C2 9232   1.819  12.698   7.746 -0.2982 -0.0449  0.2913
  607ERGO   ROH 9233   4.807  14.849   9.251 -0.1235  0.0188  0.0423
  607ERGO    R1 9234   4.902  14.825   8.985 -0.0913 -0.0519  0.0590
  607ERGO    R2 9235   4.829  14.616   8.819 -0.2418  0.0159  0.0315
  607ERGO    R3 9236   4.757  14.818   8.652 -0.0347  0.0904  0.0318
  607ERGO    R4 9237   4.772  14.581   8.480 -0.4621  0.0357  0.0661
  607ERGO    R5 9238   4.874  14.771   8.448 -0.2032 -0.1157 -0.0178
  607ERGO    C1 9239   4.671  14.749   8.126 -0.3961  0.1172  0.0865
  607ERGO    C2 9240   4.659  14.804   7.804 -0.1617  0.0630 -0.0246
  608ERGO   ROH 9241  13.485   0.751   9.557  0.1065 -0.0050 -0.0692
  608ERGO    R1 9242  13.535   0.871   9.305  0.2212 -0.1735 -0.1310
  608ERGO    R2 9243  13.738   0.787   9.138  0.1812 -0.4182 -0.0768
  608ERGO    R3 9244  13.536   0.765   8.957  0.1729 -0.3649 -0.0706
  608ERGO    R4 9245  13.780   0.746   8.797  0.1442  0.0142 -0.1368
  608ERGO    R5 9246  13.614   0.884   8.765  0.0389 -0.0824  0.0532
  608ERGO    C1 9247  13.614   0.702   8.429  0.1149  0.3161 -0.1661
  608ERGO    C2 9248  13.628   0.745   8.073  0.1884  0.1537  0.0047
  609ERGO   ROH 9249  18.713   1.473   9.446 -0.0901 -0.0745 -0.0669
  609ERGO    R1 9250  18.658   1.344   9.200 -0.1843 -0.0282 -0.0708
  609ERGO    R2 9251  18.417   1.373   9.067 -0.1418  0.2007 -0.1021
  609ERGO    R3 9252  18.578   1.446   8.860 -0.0444  0.0419 -0.0831
  609ERGO    R4 9253  18.331   1.354   8.733 -0.0742  0.1690 -0.1177
  609ERGO    R5 9254  18.532   1.284   8.690 -0.1084  0.0263 -0.0512
  609ERGO    C1 9255  18.432   1.411   8.344  0.0566  0.0015 -0.1090
  609ERGO    C2 9256  18.537   1.461   8.031 -0.1599  0.1043  0.2438
  610ERGO   ROH 9257   6.950   2.908   9.183 -0.0259  0.0430 -0.0541
  610ERGO    R1 9258   6.983   3.027   8.928 -0.0675  0.0280 -0.0662
  610ERGO    R2 9259   7.200   2.972   8.766 -0.1322 -0.0373 -0.1283
  610ERGO    R3 9260   7.007   2.911   8.584 -0.2028  0.0146 -0.0723
  610ERGO    R4 9261   7.223   3.032   8.426 -0.1101 -0.2648 -0.1692
  610ERGO    R5 9262   7.013   3.093   8.428 -0.0607 -0.0834 -0.1850
  610ERGO    C1 9263   7.055   3.010   8.057 -0.1634 -0.3485 -0.1404
  610ERGO    C2 9264   7.162   3.050   7.676  0.0649 -0.1730 -0.0710
  611ERGO   ROH 9265   1.460   0.952   9.262  0.0732  0.4090  0.0126
  611ERGO    R1 9266   1.275   0.932   9.048 -0.0746  0.3287  0.1459
  611ERGO    R2 9267   1.097   1.134   8.986 -0.0279  0.3601  0.1105
  611ERGO    R3 9268   1.208   1.111   8.739 -0.1961  0.1274  0.0536
  611ERGO    R4 9269   0.986   1.297   8.702 -0.0076  0.3674  0.1071
  611ERGO    R5 9270   1.022   1.115   8.589 -0.2809  0.2751  0.1610
  611ERGO    C1 9271   1.025   1.371   8.306 -0.1537  0.1532  0.0518
  611ERGO    C2 9272   0.919   1.680   8.202 -0.0820  0.0272  0.0836
  612ERGO   ROH 9273   7.561   4.145   8.982 -0.1803 -0.0292 -0.0403
  612ERGO    R1 9274   7.488   4.006   8.747 -0.1470 -0.0126 -0.0592
  612ERGO    R2 9275   7.435   4.135   8.508 -0.1388  0.0036 -0.0456
  612ERGO    R3 9276   7.624   3.964   8.411 -0.1176  0.0305 -0.0546
  612ERGO    R4 9277   7.457   4.031   8.180 -0.1592 -0.0008 -0.0463
  612ERGO    R5 9278   7.506   3.831   8.251 -0.1178  0.0045 -0.0398
  612ERGO    C1 9279   7.646   3.810   7.897 -0.1510  0.0218 -0.0552
  612ERGO    C2 9280   7.770   3.934   7.629  0.2511  0.0293  0.0269
  613ERGO   ROH 9281  17.253   8.760   9.389 -0.0297  0.1251  0.0004
  613ERGO    R1 9282  17.274   8.785   9.108 -0.0013  0.0184 -0.0068
  613ERGO    R2 9283  17.493   8.694   8.966 -0.0003 -0.0622  0.0466
  613ERGO    R3 9284  17.305   8.558   8.824 -0.0053 -0.0907  0.0795
  613ERGO    R4 9285  17.522   8.608   8.633 -0.1238  0.0954 -0.0068
  613ERGO    R5 9286  17.312   8.658   8.607 -0.1611  0.0064  0.1185
  613ERGO    C1 9287  17.363   8.430   8.306 -0.2002  0.1605 -0.0070
  613ERGO    C2 9288  17.559   8.180   8.161 -0.0773 -0.1368 -0.0252
  614ERGO   ROH 9289   1.439  15.154   9.876  0.0374  0.1755  0.0515
  614ERGO    R1 9290   1.408  15.231   9.606  0.0905  0.2263  0.0598
  614ERGO    R2 9291   1.581  15.148   9.407  0.0444  0.1432  0.0543
  614ERGO    R3 9292   1.352  15.064   9.288 -0.0056  0.2976  0.0387
  614ERGO    R4 9293   1.522  15.156   9.067  0.1687 -0.0330  0.0272
  614ERGO    R5 9294   1.317  15.220   9.109  0.2176  0.2114 -0.0842
  614ERGO    C1 9295   1.272  15.081   8.756  0.1942  0.0092 -0.0032
  614ERGO    C2 9296   1.358  14.952   8.391  0.2906 -0.2258 -0.0584
  615ERGO   ROH 9297   8.528   9.175   9.131 -0.1583  0.0713  0.0912
  615ERGO    R1 9298   8.578   9.265   8.867 -0.1514  0.0528  0.0869
  615ERGO    R2 9299   8.677   9.098   8.670 -0.0034  0.0763  0.1424
  615ERGO    R3 9300   8.458   9.184   8.533 -0.0241 -0.0828  0.0728
  615ERGO    R4 9301   8.627   9.057   8.330 -0.0049 -0.2237  0.1759
  615ERGO    R5 9302   8.544   9.258   8.323 -0.0445 -0.2447  0.0051
  615ERGO    C1 9303   8.393   9.113   8.004 -0.0252 -0.5478  0.1301
  615ERGO    C2 9304   8.311   9.188   7.622  0.2959  0.0268 -0.3997
  616ERGO   ROH 9305  12.092  14.217   9.469  0.0797 -0.1046 -0.1161
  616ERGO    R1 9306  12.039  14.170   9.195 -0.1284  0.1146 -0.1169
  616ERGO    R2 9307  11.977  14.374   9.019  0.2007  0.3221 -0.0026
  616ERGO    R3 9308  12.185  14.271   8.877 -0.0535 -0.0362 -0.1317
  616ERGO    R4 9309  12.011  14.392   8.675  0.1326  0.4833 -0.0018
  616ERGO    R5 9310  12.085  14.187   8.677 -0.3026  0.3100 -0.1632
  616ERGO    C1 9311  12.226  14.306   8.343 -0.1458  0.2409 -0.1225
  616ERGO    C2 9312  12.336  14.248   7.989  0.1149  0.0317 -0.0877
  617ERGO   ROH 9313  14.416  11.732   9.406 -0.1324 -0.0102 -0.1465
  617ERGO    R1 9314  14.442  11.638   9.141  0.0344 -0.0021 -0.1343
  617ERGO    R2 9315  14.258  11.697   8.943 -0.0557 -0.3200 -0.1517
  617ERGO    R3 9316  14.478  11.786   8.810 -0.1852  0.0212 -0.1492
  617ERGO    R4 9317  14.273  11.759   8.603 -0.1101 -0.4311 -0.1747
  617ERGO    R5 9318  14.472  11.670   8.601  0.0544 -0.0801 -0.1039
  617ERGO    C1 9319  14.488  11.877   8.281 -0.2633 -0.1756 -0.1857
  617ERGO    C2 9320  14.492  12.069   8.086  0.0362  0.0046  0.1554
  618ERGO   ROH 9321   8.188   3.409   9.132 -0.1358  0.0042 -0.0955
  618ERGO    R1 9322   8.235   3.284   8.883 -0.1812  0.0940 -0.1493
  618ERGO    R2 9323   8.217   3.421   8.643  0.1054  0.2672 -0.0781
  618ERGO    R3 9324   8.469   3.325   8.607  0.0030 -0.0378 -0.0143
  618ERGO    R4 9325   8.356   3.341   8.337  0.0992  0.1212 -0.0438
  618ERGO    R5 9326   8.448   3.166   8.429 -0.1393  0.0012 -0.0316
  618ERGO    C1 9327   8.674   3.205   8.125 -0.0006 -0.2501  0.0362
  618ERGO    C2 9328   8.800   3.099   7.875 -0.0704  0.0021 -0.0357
  619ERGO   ROH 9329   8.270  16.238   9.319 -0.0727 -0.3172 -0.1583
  619ERGO    R1 9330   8.270  16.374   9.070 -0.0867 -0.1924 -0.0926
  619ERGO    R2 9331   8.436  16.589   9.019 -0.2044 -0.0497  0.0597
  619ERGO    R3 9332   8.510  16.440   8.805 -0.0451  0.0928  0.0164
  619ERGO    R4 9333   8.440  16.700   8.692 -0.5099 -0.0233  0.0638
  619ERGO    R5 9334   8.361  16.507   8.630 -0.2170 -0.1391  0.0804
  619ERGO    C1 9335   8.512  16.624   8.300 -0.5383  0.1261  0.0254
  619ERGO    C2 9336   8.526  16.895   8.116  0.0200 -0.2747  0.2386
  620ERGO   ROH 9337   6.232   9.237   8.895  0.0835 -0.2413 -0.1246
  620ERGO    R1 9338   6.246   9.379   8.651  0.2761 -0.2573 -0.1287
  620ERGO    R2 9339   6.392   9.289   8.434  0.1884 -0.4446 -0.1323
  620ERGO    R3 9340   6.156   9.318   8.304  0.2222 -0.1600 -0.1277
  620ERGO    R4 9341   6.358   9.320   8.092  0.2130 -0.1429 -0.1072
  620ERGO    R5 9342   6.205   9.471   8.125  0.3349 -0.0618 -0.0003
  620ERGO    C1 9343   6.116   9.365   7.769  0.2591  0.3001 -0.0883
  620ERGO    C2 9344   5.946   9.162   7.396 -0.0485  0.2976  0.0605
  621ERGO   ROH 9345  17.792  11.278   9.896 -0.0255  0.0040  0.1382
  621ERGO    R1 9346  17.815  11.452   9.674 -0.0901 -0.0339  0.1036
  621ERGO    R2 9347  18.014  11.425   9.484 -0.0884 -0.0028  0.1119
  621ERGO    R3 9348  17.804  11.420   9.311 -0.0848 -0.1061  0.1074
  621ERGO    R4 9349  18.012  11.572   9.171 -0.1325 -0.0199  0.1027
  621ERGO    R5 9350  17.807  11.636   9.208 -0.1693 -0.1034  0.0956
  621ERGO    C1 9351  17.814  11.652   8.827 -0.1548 -0.1270  0.0930
  621ERGO    C2 9352  17.831  11.550   8.477 -0.4479 -0.2729 -0.0206
  622ERGO   ROH 9353  18.854  17.986   9.605 -0.0438 -0.1260 -0.1117
  622ERGO    R1 9354  18.819  18.081   9.341  0.0358 -0.1696 -0.1373
  622ERGO    R2 9355  18.927  17.952   9.120 -0.2051 -0.4123 -0.1139
  622ERGO    R3 9356  18.669  17.957   9.033 -0.2232 -0.0618 -0.0588
  622ERGO    R4 9357  18.827  18.035   8.800 -0.1485 -0.3665 -0.1207
  622ERGO    R5 9358  18.660  18.144   8.885  0.0238 -0.0879 -0.1169
  622ERGO    C1 9359  18.527  18.087   8.532 -0.1328 -0.0107 -0.0728
  622ERGO    C2 9360  18.496  18.065   8.174 -0.1042  0.0486 -0.0202
  623ERGO   ROH 9361   1.739  11.857   9.255 -0.0298 -0.1922  0.0176
  623ERGO    R1 9362   1.609  11.820   9.007 -0.0140 -0.2268  0.0136
  623ERGO    R2 9363   1.579  12.023   8.822 -0.2141 -0.1860  0.0834
  623ERGO    R3 9364   1.697  11.844   8.654 -0.0586 -0.0220  0.0163
  623ERGO    R4 9365   1.491  11.975   8.491 -0.2710 -0.2437  0.1073
  623ERGO    R5 9366   1.517  11.761   8.521 -0.0048 -0.2182  0.0671
  623ERGO    C1 9367   1.551  11.780   8.141 -0.1582 -0.1234  0.0582
  623ERGO    C2 9368   1.399  11.818   7.840  0.1245  0.3179  0.2582
  624ERGO   ROH 9369   9.557   6.396   9.432 -0.1979 -0.2057 -0.0951
  624ERGO    R1 9370   9.581   6.405   9.150 -0.2337 -0.2197 -0.0993
  624ERGO    R2 9371   9.384   6.309   8.981 -0.3282 -0.0856 -0.0739
  624ERGO    R3 9372   9.399   6.558   8.874 -0.1725 -0.0928 -0.0680
  624ERGO    R4 9373   9.318   6.387   8.651  0.0245 -0.0755 -0.1450
  624ERGO    R5 9374   9.488   6.524   8.654  0.0443 -0.1104  0.0234
  624ERGO    C1 9375   9.294   6.667   8.358  0.3759 -0.0763 -0.1807
  624ERGO    C2 9376   9.166   6.886   8.169 -0.0373  0.0112 -0.1918
  625ERGO   ROH 9377  10.764  12.982   8.935 -0.0435  0.2620 -0.0995
  625ERGO    R1 9378  10.908  12.890   8.709  0.0400  0.1497 -0.0020
  625ERGO    R2 9379  10.782  12.790   8.484  0.1232  0.0184  0.0078
  625ERGO    R3 9380  10.932  12.978   8.357  0.1520 -0.0385 -0.0427
  625ERGO    R4 9381  10.781  12.846   8.143  0.0914 -0.0329 -0.0006
  625ERGO    R5 9382  10.997  12.874   8.152  0.0982 -0.0851 -0.0354
  625ERGO    C1 9383  10.920  13.056   7.826  0.0999 -0.1162 -0.0530
  625ERGO    C2 9384  10.660  13.036   7.541  0.0875  0.0053 -0.2534
  626ERGO   ROH 9385   1.815  10.022   9.129  0.3052 -0.2509 -0.1843
  626ERGO    R1 9386   1.812   9.939   8.858  0.0705 -0.2089 -0.1967
  626ERGO    R2 9387   1.578   9.892   8.720 -0.0567  0.0545 -0.0761
  626ERGO    R3 9388   1.684  10.069   8.543  0.0308 -0.0293 -0.1082
  626ERGO    R4 9389   1.599   9.843   8.378 -0.1095 -0.0086 -0.0706
  626ERGO    R5 9390   1.797   9.932   8.383 -0.0566 -0.1183 -0.0970
  626ERGO    C1 9391   1.712   9.980   8.014 -0.0581 -0.1240 -0.0975
  626ERGO    C2 9392   1.807   9.956   7.715  0.1135  0.0384  0.5355
  627ERGO   ROH 9393  17.758  18.630   8.825  0.0795  0.1402  0.0056
  627ERGO    R1 9394  17.648  18.697   8.574  0.2417  0.1867 -0.0547
  627ERGO    R2 9395  17.800  18.708   8.343  0.3414 -0.0377 -0.0064
  627ERGO    R3 9396  17.611  18.536   8.249  0.1925  0.1313 -0.0204
  627ERGO    R4 9397  17.717  18.668   8.010  0.3154  0.0383 -0.0089
  627ERGO    R5 9398  17.508  18.655   8.069  0.3034  0.2226 -0.0206
  627ERGO    C1 9399  17.492  18.484   7.728  0.1604  0.2410 -0.0235
  627ERGO    C2 9400  17.566  18.269   7.509  0.0799  0.0485 -0.0476
  628ERGO   ROH 9401  14.194   5.611   9.543  0.1350 -0.0642 -0.0175
  628ERGO    R1 9402  14.370   5.783   9.402  0.1256 -0.0684 -0.0354
  628ERGO    R2 9403  14.578   5.687   9.247  0.0260 -0.0797 -0.1690
  628ERGO    R3 9404  14.462   5.839   9.054 -0.0180  0.0289 -0.0575
  628ERGO    R4 9405  14.744   5.823   8.976 -0.0716 -0.0641 -0.2208
  628ERGO    R5 9406  14.626   6.005   9.002  0.0196 -0.0243 -0.0992
  628ERGO    C1 9407  14.731   6.045   8.637 -0.1698  0.0469 -0.1465
  628ERGO    C2 9408  14.879   6.146   8.344 -0.2972  0.1644 -0.0083
  629ERGO   ROH 9409   9.301  11.212   8.972 -0.0989 -0.2260 -0.1171
  629ERGO    R1 9410   9.343  11.043   8.749 -0.0812 -0.1665 -0.1592
  629ERGO    R2 9411   9.197  11.066   8.515 -0.0582 -0.0996 -0.1675
  629ERGO    R3 9412   9.443  11.084   8.401 -0.0466 -0.0740 -0.1386
  629ERGO    R4 9413   9.263  11.023   8.178 -0.0016 -0.1755 -0.1471
  629ERGO    R5 9414   9.443  10.913   8.233  0.0158 -0.1195 -0.0928
  629ERGO    C1 9415   9.532  11.014   7.876  0.0422 -0.1958 -0.1079
  629ERGO    C2 9416   9.629  11.301   7.690 -0.0393  0.2186  0.1402
  630ERGO   ROH 9417   5.501   7.873   9.258  0.1598 -0.2825  0.0954
  630ERGO    R1 9418   5.503   7.745   9.005 -0.0026 -0.1844  0.0436
  630ERGO    R2 9419   5.278   7.729   8.846  0.0008  0.2635 -0.0139
  630ERGO    R3 9420   5.442   7.841   8.660  0.2361  0.0633  0.0662
  630ERGO    R4 9421   5.312   7.618   8.520 -0.0411  0.2639 -0.0186
  630ERGO    R5 9422   5.527   7.655   8.535  0.0148 -0.0460  0.0691
  630ERGO    C1 9423   5.485   7.659   8.156  0.1555  0.0761  0.0539
  630ERGO    C2 9424   5.419   7.328   7.945  0.3561 -0.0305  0.0667
  631ERGO   ROH 9425   6.456  15.483   8.995 -0.0015  0.3089  0.0332
  631ERGO    R1 9426   6.490  15.562   8.726 -0.0214  0.2675  0.0177
  631ERGO    R2 9427   6.736  15.565   8.601 -0.0209  0.2968  0.0126
  631ERGO    R3 9428   6.609  15.409   8.418  0.0074  0.2356  0.0458
  631ERGO    R4 9429   6.797  15.570   8.261 -0.0888  0.2966  0.0008
  631ERGO    R5 9430   6.583  15.551   8.227 -0.0849  0.2096  0.0417
  631ERGO    C1 9431   6.714  15.427   7.891 -0.1018  0.2389  0.0251
  631ERGO    C2 9432   6.976  15.480   7.752 -0.0417  0.0537 -0.1595
  632ERGO   ROH 9433   7.705  18.703   8.964 -0.1691  0.0888 -0.2135
  632ERGO    R1 9434   7.766  18.763   8.694  0.1121  0.1698 -0.1364
  632ERGO    R2 9435   8.016  18.850   8.613  0.2698 -0.0218  0.1130
  632ERGO    R3 9436   7.998  18.640   8.442  0.2080  0.0768 -0.0018
  632ERGO    R4 9437   8.163  18.836   8.301 -0.0010  0.2225 -0.0301
  632ERGO    R5 9438   7.983  18.740   8.226 -0.0239  0.1975  0.0714
  632ERGO    C1 9439   8.232  18.630   7.959 -0.2168  0.4573 -0.2211
  632ERGO    C2 9440   8.386  18.569   7.642  0.1918 -0.1758  0.4908
  633ERGO   ROH 9441  18.580   6.952   9.251  0.0694  0.0614 -0.0521
  633ERGO    R1 9442  18.569   6.940   8.969 -0.0168 -0.0636 -0.0445
  633ERGO    R2 9443  18.359   6.822   8.833 -0.1616  0.0591  0.0679
  633ERGO    R3 9444  18.347   7.063   8.708  0.0225  0.0125 -0.0423
  633ERGO    R4 9445  18.215   6.877   8.524 -0.1209  0.0273  0.0435
  633ERGO    R5 9446  18.380   7.011   8.476 -0.0170 -0.1194 -0.0191
  633ERGO    C1 9447  18.120   7.135   8.226  0.0757 -0.0350 -0.0740
  633ERGO    C2 9448  17.840   7.227   8.125  0.1893  0.1144 -0.0476
  634ERGO   ROH 9449  10.830  14.300   9.014 -0.0047  0.2491 -0.0685
  634ERGO    R1 9450  11.045  14.268   8.832 -0.1074  0.1700 -0.1780
  634ERGO    R2 9451  11.110  14.024   8.720 -0.1084  0.0983 -0.0322
  634ERGO    R3 9452  11.085  14.161   8.487 -0.2940 -0.0854 -0.1218
  634ERGO    R4 9453  11.153  13.888   8.405 -0.0623 -0.0751  0.0484
  634ERGO    R5 9454  11.256  14.070   8.345 -0.2475 -0.0217 -0.1024
  634ERGO    C1 9455  11.154  13.937   8.003 -0.2099 -0.3486  0.0111
  634ERGO    C2 9456  10.996  13.899   7.775 -0.0229  0.1726  0.2105
  635ERGO   ROH 9457  17.469  17.920   9.840  0.0066 -0.2825  0.0571
  635ERGO    R1 9458  17.473  17.839   9.569  0.0400 -0.1402  0.0143
  635ERGO    R2 9459  17.251  17.731   9.443  0.0413 -0.0301 -0.0844
  635ERGO    R3 9460  17.296  17.930   9.264  0.1139  0.0559  0.0281
  635ERGO    R4 9461  17.154  17.724   9.112  0.1436  0.1390 -0.1189
  635ERGO    R5 9462  17.344  17.817   9.059  0.1691  0.1513 -0.0136
  635ERGO    C1 9463  17.138  17.908   8.751  0.2714  0.3181 -0.0334
  635ERGO    C2 9464  16.872  17.970   8.438 -0.2136 -0.1379 -0.1868
  636ERGO   ROH 9465  10.697  11.797   9.040 -0.2026  0.1085  0.1719
  636ERGO    R1 9466  10.699  11.828   8.759 -0.0112  0.2271  0.1845
  636ERGO    R2 9467  10.554  11.664   8.590  0.2247  0.1983  0.0049
  636ERGO    R3 9468  10.454  11.901   8.500  0.1336  0.1703  0.0303
  636ERGO    R4 9469  10.408  11.713   8.280  0.2503  0.1884 -0.0089
  636ERGO    R5 9470  10.510  11.904   8.267  0.1674  0.2359  0.0396
  636ERGO    C1 9471  10.230  11.963   8.015  0.1797  0.1562  0.0068
  636ERGO    C2 9472  10.016  12.132   7.746 -0.1506  0.0025 -0.0418
  637ERGO   ROH 9473   2.328  10.792   9.190 -0.3488  0.2052  0.0458
  637ERGO    R1 9474   2.454  10.750   8.941 -0.1630  0.2386  0.1315
  637ERGO    R2 9475   2.317  10.667   8.716  0.0348  0.0683  0.0636
  637ERGO    R3 9476   2.430  10.888   8.605 -0.0732  0.1321  0.0817
  637ERGO    R4 9477   2.368  10.712   8.377 -0.1100  0.1860  0.0571
  637ERGO    R5 9478   2.562  10.801   8.424 -0.1205  0.2265  0.0049
  637ERGO    C1 9479   2.504  10.945   8.075 -0.2957  0.3143  0.0702
  637ERGO    C2 9480   2.300  10.917   7.841 -0.0072  0.0055 -0.0010
  638ERGO   ROH 9481  16.503  16.735  10.052  0.1821  0.1020  0.0079
  638ERGO    R1 9482  16.650  16.712   9.811  0.0122 -0.1510 -0.0762
  638ERGO    R2 9483  16.556  16.572   9.592 -0.4378  0.1476 -0.0893
  638ERGO    R3 9484  16.602  16.807   9.463  0.0495  0.1035 -0.0140
  638ERGO    R4 9485  16.600  16.606   9.251 -0.3353  0.1668 -0.0741
  638ERGO    R5 9486  16.757  16.751   9.290 -0.0413 -0.1567 -0.0139
  638ERGO    C1 9487  16.669  16.846   8.931  0.1819  0.1366  0.0052
  638ERGO    C2 9488  16.834  17.022   8.668  0.0053 -0.0285  0.0321
  639ERGO   ROH 9489   9.613  18.266   9.164 -0.0650 -0.3412  0.0667
  639ERGO    R1 9490   9.828  18.342   8.997  0.0614 -0.3513  0.2260
  639ERGO    R2 9491  10.007  18.160   8.892 -0.1711 -0.4197 -0.0315
  639ERGO    R3 9492   9.935  18.273   8.655  0.0263  0.0608  0.1223
  639ERGO    R4 9493  10.176  18.118   8.594 -0.4016 -0.5754 -0.1463
  639ERGO    R5 9494  10.143  18.330   8.551  0.1657 -0.4025  0.1071
  639ERGO    C1 9495  10.207  18.200   8.198 -0.3504 -0.2151 -0.0686
  639ERGO    C2 9496  10.135  18.143   7.855  0.0245  0.0431 -0.1818
  640ERGO   ROH 9497   6.970   3.409   9.429  0.4054 -0.0886  0.0043
  640ERGO    R1 9498   6.917   3.489   9.163  0.3187 -0.0718  0.0252
  640ERGO    R2 9499   7.094   3.643   9.016  0.2804 -0.0772 -0.0306
  640ERGO    R3 9500   7.072   3.440   8.837  0.2029 -0.0679 -0.0305
  640ERGO    R4 9501   7.161   3.670   8.678 -0.0828  0.0003 -0.1000
  640ERGO    R5 9502   6.987   3.545   8.639 -0.0591 -0.0884  0.0668
  640ERGO    C1 9503   7.180   3.495   8.313 -0.3670  0.0541 -0.1405
  640ERGO    C2 9504   7.345   3.390   8.128 -0.0687 -0.0938  0.2656
  641ERGO   ROH 9505   1.862  15.442   9.661  0.0089  0.0961 -0.0787
  641ERGO    R1 9506   1.986  15.447   9.406 -0.1413  0.0113 -0.1553
  641ERGO    R2 9507   1.849  15.514   9.175 -0.1831  0.3509 -0.0407
  641ERGO    R3 9508   2.049  15.696   9.148  0.1064  0.0363 -0.0722
  641ERGO    R4 9509   2.011  15.587   8.879 -0.3434  0.3281 -0.1348
  641ERGO    R5 9510   2.198  15.597   8.989 -0.2121 -0.0868 -0.3041
  641ERGO    C1 9511   2.294  15.800   8.681 -0.1649  0.0196 -0.2192
  641ERGO    C2 9512   2.513  16.025   8.494  0.2091  0.0977  0.1991
  642ERGO   ROH 9513  17.915  13.926   9.970  0.1236 -0.1238  0.0945
  642ERGO    R1 9514  17.915  13.919   9.687  0.1097  0.0114  0.0909
  642ERGO    R2 9515  17.838  14.136   9.533  0.2077  0.1235  0.1966
  642ERGO    R3 9516  18.082  14.100   9.419  0.1870  0.0604  0.1719
  642ERGO    R4 9517  17.947  14.296   9.247  0.1849  0.0163  0.1270
  642ERGO    R5 9518  18.039  14.109   9.183  0.1551 -0.0134  0.1755
  642ERGO    C1 9519  18.240  14.356   8.973  0.1521 -0.1055  0.0632
  642ERGO    C2 9520  18.423  14.355   8.694  0.1081  0.0621  0.0043
  643ERGO   ROH 9521  13.334  10.110   9.440  0.0558  0.0819 -0.1513
  643ERGO    R1 9522  13.364  10.140   9.160 -0.0238  0.0829 -0.1609
  643ERGO    R2 9523  13.194  10.018   8.978 -0.0749  0.0750 -0.1174
  643ERGO    R3 9524  13.165  10.273   8.886 -0.1079  0.0763 -0.1005
  643ERGO    R4 9525  13.087  10.104   8.661 -0.0307  0.0966 -0.1258
  643ERGO    R5 9526  13.236  10.263   8.658 -0.0671  0.1203 -0.0838
  643ERGO    C1 9527  12.998  10.393   8.390 -0.0359  0.1103 -0.1150
  643ERGO    C2 9528  13.058  10.502   8.091  0.0732  0.0418  0.3943
  644ERGO   ROH 9529  15.423  14.318   9.098 -0.1947  0.0877 -0.1501
  644ERGO    R1 9530  15.547  14.235   8.857 -0.0972 -0.1049 -0.0303
  644ERGO    R2 9531  15.703  14.404   8.705 -0.0930 -0.2231 -0.1148
  644ERGO    R3 9532  15.888  14.206   8.732 -0.0470 -0.1613  0.0964
  644ERGO    R4 9533  15.990  14.374   8.514 -0.2731 -0.5159 -0.3540
  644ERGO    R5 9534  15.957  14.158   8.508 -0.2655 -0.5662  0.0855
  644ERGO    C1 9535  16.329  14.170   8.428 -0.3349 -0.6283 -0.2948
  644ERGO    C2 9536  16.645  14.100   8.499  0.3279 -0.3132 -0.0407
  645ERGO   ROH 9537   2.509  18.286   9.357  0.1037  0.0243 -0.1039
  645ERGO    R1 9538   2.488  18.514   9.190  0.1765 -0.0056 -0.1546
  645ERGO    R2 9539   2.553  18.508   8.922 -0.0496 -0.1486 -0.2097
  645ERGO    R3 9540   2.302  18.607   8.891  0.0130  0.0746 -0.0295
  645ERGO    R4 9541   2.456  18.727   8.673 -0.0613 -0.1634 -0.2179
  645ERGO    R5 9542   2.335  18.833   8.820  0.1652  0.0150 -0.1542
  645ERGO    C1 9543   2.163  18.947   8.500 -0.0093  0.0377 -0.0535
  645ERGO    C2 9544   2.085  19.045   8.225  0.0188  0.3584  0.0010
  646ERGO   ROH 9545   3.888  11.190   8.883  0.0477  0.0077 -0.0428
  646ERGO    R1 9546   3.760  11.351   8.688  0.0814  0.0605 -0.0227
  646ERGO    R2 9547   3.900  11.512   8.512  0.1259 -0.0555 -0.1007
  646ERGO    R3 9548   3.759  11.375   8.324 -0.0299  0.0010 -0.0256
  646ERGO    R4 9549   3.908  11.578   8.173  0.1923 -0.2496 -0.1379
  646ERGO    R5 9550   3.693  11.543   8.167  0.1546 -0.0120 -0.1149
  646ERGO    C1 9551   3.780  11.488   7.799  0.0847 -0.3096 -0.0890
  646ERGO    C2 9552   3.893  11.747   7.498  0.5029  0.1185 -0.2916
  647ERGO   ROH 9553  14.983  13.950   9.534  0.0967 -0.0809 -0.0866
  647ERGO    R1 9554  15.003  14.021   9.261 -0.0180 -0.1854 -0.1239
  647ERGO    R2 9555  15.228  13.968   9.110  0.0303  0.0015 -0.1261
  647ERGO    R3 9556  15.048  13.847   8.945  0.1467 -0.2858 -0.0455
  647ERGO    R4 9557  15.281  13.902   8.775 -0.0141  0.0933 -0.1510
  647ERGO    R5 9558  15.075  13.960   8.735 -0.1300 -0.2375 -0.0564
  647ERGO    C1 9559  15.145  13.749   8.425  0.0693 -0.1229 -0.0896
  647ERGO    C2 9560  15.280  13.450   8.249  0.1609  0.0002  0.0504
  648ERGO   ROH 9561   8.226  15.070   8.863 -0.1861  0.0758 -0.0881
  648ERGO    R1 9562   8.171  15.074   8.586 -0.1087  0.1327 -0.1038
  648ERGO    R2 9563   8.312  15.232   8.408  0.0184  0.0865 -0.0512
  648ERGO    R3 9564   8.352  14.996   8.280 -0.0605  0.0788 -0.0603
  648ERGO    R4 9565   8.445  15.200   8.091  0.0855  0.0433 -0.0184
  648ERGO    R5 9566   8.299  15.043   8.051  0.0235  0.1189 -0.0687
  648ERGO    C1 9567   8.559  14.960   7.785  0.0505  0.0113 -0.0079
  648ERGO    C2 9568   8.646  14.864   7.481 -0.0492 -0.0817  0.2464
  649ERGO   ROH 9569  11.448  15.216   9.332  0.1672 -0.1801  0.0259
  649ERGO    R1 9570  11.493  15.220   9.053  0.0951  0.0055  0.0155
  649ERGO    R2 9571  11.336  15.079   8.874  0.0488  0.1242 -0.0394
  649ERGO    R3 9572  11.308  15.323   8.757  0.0184  0.2029  0.1298
  649ERGO    R4 9573  11.315  15.134   8.533  0.2166  0.3706 -0.0121
  649ERGO    R5 9574  11.441  15.310   8.558  0.1348  0.4040  0.1912
  649ERGO    C1 9575  11.276  15.394   8.225  0.2856  0.5879  0.1625
  649ERGO    C2 9576  11.200  15.602   7.992  0.7032  0.1821 -0.0268
  650ERGO   ROH 9577   5.670   4.005   9.292 -0.0538 -0.1723 -0.0264
  650ERGO    R1 9578   5.502   3.937   9.074 -0.0476 -0.1963 -0.0237
  650ERGO    R2 9579   5.390   4.126   8.907 -0.0817 -0.2113 -0.0194
  650ERGO    R3 9580   5.508   3.978   8.713 -0.0609 -0.1904 -0.0227
  650ERGO    R4 9581   5.374   4.195   8.569  0.1028 -0.0803 -0.0033
  650ERGO    R5 9582   5.352   3.982   8.532  0.0241 -0.0545 -0.0928
  650ERGO    C1 9583   5.476   4.095   8.189  0.2296  0.0156  0.0030
  650ERGO    C2 9584   5.656   4.055   7.883 -0.3347 -0.0460  0.0136
  651ERGO   ROH 9585  18.302  17.048  10.031 -0.2903  0.0150 -0.0537
  651ERGO    R1 9586  18.323  17.050   9.749 -0.0744  0.1369 -0.0391
  651ERGO    R2 9587  18.466  17.242   9.611  0.0893  0.1576  0.1552
  651ERGO    R3 9588  18.591  17.026   9.503  0.1072  0.1690  0.1535
  651ERGO    R4 9589  18.486  17.176   9.273 -0.2193 -0.0284  0.1691
  651ERGO    R5 9590  18.452  16.965   9.317 -0.0484 -0.0237  0.3295
  651ERGO    C1 9591  18.616  16.934   8.974 -0.3819 -0.1261  0.1757
  651ERGO    C2 9592  18.612  16.834   8.665  0.0893  0.1162 -0.1303
  652ERGO   ROH 9593   3.629  13.069   9.082  0.0201 -0.1916  0.2033
  652ERGO    R1 9594   3.771  13.072   8.837 -0.0378 -0.1534  0.1697
  652ERGO    R2 9595   3.701  12.913   8.623 -0.0849 -0.1247  0.1627
  652ERGO    R3 9596   3.697  13.150   8.490 -0.1222 -0.1057  0.1984
  652ERGO    R4 9597   3.665  12.948   8.281  0.0582 -0.0859  0.1513
  652ERGO    R5 9598   3.814  13.107   8.286 -0.0101 -0.0248  0.2452
  652ERGO    C1 9599   3.641  13.191   7.957  0.1065 -0.0456  0.1782
  652ERGO    C2 9600   3.459  13.339   7.617  0.0589 -0.1421  0.2431
  653ERGO   ROH 9601   7.379  13.754   9.001  0.0142 -0.2771  0.1078
  653ERGO    R1 9602   7.350  13.704   8.724  0.0368 -0.1249  0.0775
  653ERGO    R2 9603   7.104  13.688   8.601  0.0458 -0.1279  0.0623
  653ERGO    R3 9604   7.209  13.879   8.438 -0.0080 -0.0012  0.1736
  653ERGO    R4 9605   6.979  13.774   8.290  0.1410 -0.1305  0.0229
  653ERGO    R5 9606   7.184  13.789   8.217  0.1710  0.0420  0.1324
  653ERGO    C1 9607   7.005  14.003   7.956  0.1458 -0.0130  0.1045
  653ERGO    C2 9608   6.739  14.111   7.759 -0.0233  0.2604  0.1761
  654ERGO   ROH 9609   0.408   7.407   9.225 -0.1813  0.2463  0.2107
  654ERGO    R1 9610   0.211   7.522   9.057 -0.2081 -0.0549  0.0290
  654ERGO    R2 9611   0.257   7.751   8.909 -0.4447  0.0673  0.1408
  654ERGO    R3 9612   0.175   7.594   8.702  0.0489 -0.0290  0.0060
  654ERGO    R4 9613   0.240   7.852   8.579 -0.3847  0.1734  0.1700
  654ERGO    R5 9614   0.053   7.742   8.560 -0.1516 -0.2193 -0.0284
  654ERGO    C1 9615   0.154   7.764   8.193  0.1135  0.1447  0.0603
  654ERGO    C2 9616   0.151   7.599   7.866  0.1447  0.1464 -0.3893
  655ERGO   ROH 9617   6.693   6.203   9.222  0.1204 -0.1234  0.0714
  655ERGO    R1 9618   6.629   6.319   8.971  0.1662  0.1210  0.1698
  655ERGO    R2 9619   6.819   6.433   8.807  0.2452  0.0108  0.1824
  655ERGO    R3 9620   6.717   6.261   8.623 -0.0211  0.2494  0.0997
  655ERGO    R4 9621   6.884   6.448   8.468  0.2969  0.0478  0.1936
  655ERGO    R5 9622   6.674   6.399   8.431  0.2169  0.4027  0.1529
  655ERGO    C1 9623   6.826   6.295   8.097  0.0770  0.2932  0.1224
  655ERGO    C2 9624   6.994   6.485   7.781 -0.0634 -0.1568 -0.1341
  656ERGO   ROH 9625   3.393   1.161   8.923 -0.2304 -0.1933 -0.0480
  656ERGO    R1 9626   3.405   1.166   8.640 -0.0894 -0.0388 -0.0416
  656ERGO    R2 9627   3.415   0.935   8.487  0.0194  0.0428 -0.1643
  656ERGO    R3 9628   3.199   1.047   8.364  0.0643  0.0788 -0.2092
  656ERGO    R4 9629   3.283   0.832   8.185 -0.0052 -0.0093 -0.1350
  656ERGO    R5 9630   3.253   1.040   8.131  0.0708 -0.0169 -0.2045
  656ERGO    C1 9631   3.004   0.876   7.894  0.0226 -0.0059 -0.1601
  656ERGO    C2 9632   2.766   0.885   7.568 -0.2846  0.1299  0.1215
  657ERGO   ROH 9633   3.924   3.830   9.293 -0.2354  0.0616 -0.0755
  657ERGO    R1 9634   3.987   3.776   9.022 -0.0347  0.2070 -0.0611
  657ERGO    R2 9635   3.806   3.661   8.848  0.2362 -0.1179 -0.1415
  657ERGO    R3 9636   3.862   3.880   8.696 -0.1177  0.0127 -0.0921
  657ERGO    R4 9637   3.768   3.679   8.505  0.3976 -0.1747 -0.1625
  657ERGO    R5 9638   3.955   3.790   8.495  0.1846  0.2101 -0.0458
  657ERGO    C1 9639   3.798   3.894   8.163  0.1593 -0.0852 -0.1285
  657ERGO    C2 9640   3.674   4.035   7.785  0.0076 -0.0574  0.0158
  658ERGO   ROH 9641  13.372   1.828   9.495  0.0464 -0.0644  0.0253
  658ERGO    R1 9642  13.275   1.922   9.247  0.0511 -0.0364  0.0337
  658ERGO    R2 9643  13.414   1.891   9.010  0.0809  0.0365  0.0392
  658ERGO    R3 9644  13.182   1.777   8.926  0.1117  0.0050 -0.0020
  658ERGO    R4 9645  13.353   1.784   8.687  0.1457  0.0332  0.0280
  658ERGO    R5 9646  13.151   1.863   8.705  0.1337  0.0028 -0.0041
  658ERGO    C1 9647  13.100   1.614   8.420  0.2123  0.0016 -0.0171
  658ERGO    C2 9648  13.163   1.611   8.140  0.2605 -0.0452 -0.2529
  659ERGO   ROH 9649   2.975  14.049   9.457 -0.0881 -0.0720  0.0339
  659ERGO    R1 9650   3.081  14.031   9.195 -0.1158 -0.0725  0.0224
  659ERGO    R2 9651   2.995  13.842   9.012 -0.1652 -0.0464  0.0173
  659ERGO    R3 9652   2.954  14.060   8.855 -0.1435 -0.0284  0.0368
  659ERGO    R4 9653   3.017  13.844   8.667 -0.0437  0.0124  0.0248
  659ERGO    R5 9654   3.115  14.038   8.680 -0.0786  0.0253  0.0902
  659ERGO    C1 9655   2.991  14.049   8.319  0.0473  0.0636  0.0476
  659ERGO    C2 9656   2.872  14.102   8.029 -0.0739  0.0097 -0.0029
  660ERGO   ROH 9657  11.664   4.243   9.433 -0.0336 -0.0498  0.0139
  660ERGO    R1 9658  11.602   4.066   9.220 -0.1077  0.0088 -0.0146
  660ERGO    R2 9659  11.373   4.091   9.068  0.0051  0.2643 -0.1565
  660ERGO    R3 9660  11.549   4.094   8.861  0.1383  0.0573 -0.0483
  660ERGO    R4 9661  11.290   4.037   8.737  0.1616  0.2928 -0.2004
  660ERGO    R5 9662  11.473   3.920   8.716  0.0601  0.1102 -0.0669
  660ERGO    C1 9663  11.407   4.008   8.350  0.3776  0.1150 -0.1244
  660ERGO    C2 9664  11.512   4.017   7.982  0.1292  0.1866 -0.1295
  661ERGO   ROH 9665   8.938  15.498   9.301 -0.1443 -0.2729 -0.0626
  661ERGO    R1 9666   9.076  15.655   9.110 -0.1938 -0.0497  0.0808
  661ERGO    R2 9667   9.210  15.544   8.895  0.1692  0.1611  0.1840
  661ERGO    R3 9668   9.055  15.715   8.752  0.0421 -0.0477  0.0666
  661ERGO    R4 9669   9.284  15.661   8.578  0.1907  0.1870  0.1987
  661ERGO    R5 9670   9.211  15.857   8.639 -0.0686  0.1129  0.1187
  661ERGO    C1 9671   9.182  15.890   8.260  0.0839  0.0059  0.0969
  661ERGO    C2 9672   9.366  15.920   7.985 -0.0004 -0.0746 -0.1381
  662ERGO   ROH 9673   5.075  11.513   8.926  0.2637 -0.1704 -0.0149
  662ERGO    R1 9674   4.986  11.561   8.662  0.1056 -0.1188  0.0476
  662ERGO    R2 9675   5.125  11.474   8.440 -0.0372 -0.0892 -0.0496
  662ERGO    R3 9676   4.887  11.360   8.375 -0.0849 -0.0608  0.0693
  662ERGO    R4 9677   5.042  11.356   8.126 -0.1691 -0.1583  0.0099
  662ERGO    R5 9678   4.842  11.438   8.154 -0.1471 -0.1092  0.0611
  662ERGO    C1 9679   4.770  11.179   7.883 -0.2907 -0.1717  0.1562
  662ERGO    C2 9680   4.582  11.002   7.758 -0.0069  0.3140  0.1618
  663ERGO   ROH 9681  18.028  16.030   9.993  0.1650 -0.1293 -0.1884
  663ERGO    R1 9682  17.845  15.969   9.785  0.1769 -0.1318 -0.2002
  663ERGO    R2 9683  17.668  16.155   9.683 -0.0491 -0.2155  0.0082
  663ERGO    R3 9684  17.782  16.086   9.446 -0.0211  0.1160 -0.0781
  663ERGO    R4 9685  17.516  16.183   9.374 -0.1638 -0.1984  0.0666
  663ERGO    R5 9686  17.603  15.991   9.319  0.0806 -0.0338 -0.0989
  663ERGO    C1 9687  17.535  16.134   8.971 -0.2040  0.1225  0.0195
  663ERGO    C2 9688  17.392  16.265   8.592 -0.1988  0.0023  0.1672
  664ERGO   ROH 9689   2.326   2.693   9.408  0.2627  0.0580  0.0814
  664ERGO    R1 9690   2.276   2.525   9.186  0.1053  0.1277  0.0628
  664ERGO    R2 9691   2.057   2.559   9.020  0.1029  0.3141  0.0998
  664ERGO    R3 9692   2.246   2.566   8.825  0.0804  0.2054  0.0738
  664ERGO    R4 9693   2.005   2.673   8.698  0.1116  0.2889  0.0897
  664ERGO    R5 9694   2.128   2.508   8.625  0.0316  0.2269  0.0977
  664ERGO    C1 9695   2.152   2.745   8.327  0.0957  0.1721  0.0593
  664ERGO    C2 9696   2.402   2.830   8.082 -0.0208  0.1802 -0.1534
  665ERGO   ROH 9697   1.926   4.548   8.391  0.0405 -0.0531 -0.0987
  665ERGO    R1 9698   1.956   4.796   8.524  0.0384 -0.0555 -0.0940
  665ERGO    R2 9699   2.120   4.828   8.743  0.0654 -0.0503 -0.1151
  665ERGO    R3 9700   2.227   5.028   8.593  0.0292 -0.0363 -0.1227
  665ERGO    R4 9701   2.305   5.092   8.868  0.1649 -0.1044 -0.1464
  665ERGO    R5 9702   2.202   5.224   8.729  0.1224 -0.0596 -0.0722
  665ERGO    C1 9703   2.513   5.434   8.800  0.1888 -0.1227 -0.1718
  665ERGO    C2 9704   2.777   5.630   8.972  0.0238 -0.1748 -0.1888
  666ERGO   ROH 9705   9.442  17.366   9.519 -0.0190  0.0375 -0.2258
  666ERGO    R1 9706   9.472  17.224   9.276  0.2561  0.1200 -0.2428
  666ERGO    R2 9707   9.265  17.193   9.096  0.2365 -0.4559 -0.1321
  666ERGO    R3 9708   9.444  17.299   8.921 -0.1400  0.0589 -0.2313
  666ERGO    R4 9709   9.270  17.129   8.756  0.3562 -0.6433 -0.0970
  666ERGO    R5 9710   9.488  17.121   8.766  0.4173  0.0903 -0.1377
  666ERGO    C1 9711   9.441  17.191   8.394  0.0728 -0.2690 -0.1698
  666ERGO    C2 9712   9.356  17.192   8.045 -0.1229 -0.0649  0.0951
  667ERGO   ROH 9713   6.601  19.009   8.751  0.3244 -0.2711 -0.0959
  667ERGO    R1 9714   6.612  19.169   8.518  0.0395 -0.0224  0.0537
  667ERGO    R2 9715   6.724  19.081   8.282  0.1942  0.3954 -0.0411
  667ERGO    R3 9716   6.483  19.151   8.178  0.0600  0.0741  0.0409
  667ERGO    R4 9717   6.658  19.120   7.945  0.0134  0.2760 -0.0205
  667ERGO    R5 9718   6.537  19.295   7.994 -0.1952  0.1267  0.0043
  667ERGO    C1 9719   6.393  19.209   7.651 -0.2179 -0.0952  0.0685
  667ERGO    C2 9720   6.358  19.104   7.391  0.0245 -0.0073  0.3538
  668ERGO   ROH 9721   4.856   5.036   9.101  0.1659  0.1260 -0.2159
  668ERGO    R1 9722   4.776   4.986   8.834  0.2587 -0.0400 -0.2141
  668ERGO    R2 9723   4.615   5.160   8.691 -0.0454 -0.3273 -0.2361
  668ERGO    R3 9724   4.818   5.148   8.511 -0.0117  0.0081 -0.2277
  668ERGO    R4 9725   4.574   5.160   8.348 -0.0180 -0.2317 -0.2397
  668ERGO    R5 9726   4.732   5.010   8.334  0.1759 -0.0276 -0.2933
  668ERGO    C1 9727   4.741   5.147   7.979  0.0297  0.1388 -0.2338
  668ERGO    C2 9728   4.720   5.100   7.642 -0.0595  0.0355 -0.0305
  669ERGO   ROH 9729   7.863   6.053   9.347  0.0111  0.1479  0.2050
  669ERGO    R1 9730   7.866   6.188   9.098 -0.0629  0.1345  0.1979
  669ERGO    R2 9731   7.965   6.072   8.867 -0.1303  0.1258  0.1804
  669ERGO    R3 9732   7.720   6.137   8.769 -0.1573  0.1194  0.2396
  669ERGO    R4 9733   7.881   6.078   8.532 -0.1616  0.2497  0.1892
  669ERGO    R5 9734   7.767   6.259   8.568 -0.1976  0.2176  0.2830
  669ERGO    C1 9735   7.603   6.142   8.244 -0.2052  0.3159  0.2497
  669ERGO    C2 9736   7.426   6.097   8.020 -0.0939 -0.0866  0.0399
  670ERGO   ROH 9737  13.172  16.264   9.556  0.0075 -0.3348 -0.0545
  670ERGO    R1 9738  13.210  16.365   9.294 -0.0173 -0.1327  0.0174
  670ERGO    R2 9739  13.397  16.260   9.120  0.0254  0.0558 -0.0540
  670ERGO    R3 9740  13.182  16.236   8.955  0.0389  0.1007 -0.0777
  670ERGO    R4 9741  13.382  16.379   8.796  0.0804  0.0725 -0.0502
  670ERGO    R5 9742  13.177  16.442   8.833  0.0879  0.1064 -0.0695
  670ERGO    C1 9743  13.172  16.425   8.452  0.1251  0.1241 -0.0702
  670ERGO    C2 9744  13.303  16.631   8.266 -0.3086  0.1229  0.0271
  671ERGO   ROH 9745  16.616  11.883   9.691 -0.1123  0.0414 -0.0022
  671ERGO    R1 9746  16.713  11.895   9.426 -0.1020  0.0942  0.0036
  671ERGO    R2 9747  16.849  11.685   9.307 -0.0190  0.1492 -0.0044
  671ERGO    R3 9748  16.658  11.713   9.116 -0.0207  0.0942 -0.0104
  671ERGO    R4 9749  16.858  11.537   8.995  0.0330  0.1579 -0.0068
  671ERGO    R5 9750  16.780  11.722   8.910 -0.0188  0.1338 -0.0060
  671ERGO    C1 9751  16.683  11.477   8.634  0.0620  0.1112 -0.0140
  671ERGO    C2 9752  16.753  11.317   8.341  0.0633  0.1657 -0.3036
  672ERGO   ROH 9753   7.763  13.448   8.936  0.0843  0.1058 -0.1331
  672ERGO    R1 9754   7.808  13.295   8.702  0.1458  0.0398 -0.0783
  672ERGO    R2 9755   7.872  13.410   8.459  0.0198 -0.0160 -0.1373
  672ERGO    R3 9756   8.085  13.241   8.472  0.1406  0.1351 -0.1081
  672ERGO    R4 9757   8.006  13.241   8.189  0.0299 -0.0955 -0.0828
  672ERGO    R5 9758   8.030  13.066   8.317  0.1972 -0.0010  0.0214
  672ERGO    C1 9759   8.283  12.983   8.044  0.1491 -0.0002 -0.0236
  672ERGO    C2 9760   8.440  12.728   8.011  0.1569  0.1216 -0.0156
  673ERGO   ROH 9761   6.799   4.691   9.098 -0.1175  0.2940 -0.3398
  673ERGO    R1 9762   6.614   4.599   8.905 -0.1349  0.0697 -0.2192
  673ERGO    R2 9763   6.555   4.740   8.675 -0.3789 -0.0491 -0.2331
  673ERGO    R3 9764   6.621   4.507   8.553 -0.2317 -0.0279 -0.1965
  673ERGO    R4 9765   6.522   4.679   8.337 -0.1435 -0.0478 -0.2582
  673ERGO    R5 9766   6.452   4.478   8.385 -0.1179 -0.0710 -0.3078
  673ERGO    C1 9767   6.564   4.424   8.025  0.1317 -0.0270 -0.2385
  673ERGO    C2 9768   6.630   4.376   7.640  0.3339  0.0144  0.0394
  674ERGO   ROH 9769  17.167  13.501   9.906  0.1978 -0.3634 -0.0548
  674ERGO    R1 9770  17.217  13.421   9.640 -0.1018 -0.2449 -0.1508
  674ERGO    R2 9771  17.047  13.485   9.431 -0.1451  0.1759  0.0041
  674ERGO    R3 9772  17.275  13.586   9.320 -0.0566 -0.0930 -0.0654
  674ERGO    R4 9773  17.092  13.549   9.094 -0.2013  0.1909 -0.0003
  674ERGO    R5 9774  17.295  13.471   9.111 -0.2910 -0.0767 -0.1001
  674ERGO    C1 9775  17.331  13.681   8.794 -0.1510 -0.0527 -0.0685
  674ERGO    C2 9776  17.384  13.592   8.438  0.3833  0.1012 -0.3941
  675PSPI    C1 9777   6.995   2.026   5.040 -0.2161 -0.4387 -0.0555
  675PSPI    C2 9778   7.001   1.783   4.723 -0.4254 -0.1552 -0.2813
  675PSPI    C3 9779   6.768   2.108   4.722  0.0469  0.1960 -0.0946
  675PSPI   PO4 9780   6.959   1.933   5.216  0.0950  0.0371 -0.0601
  675PSPI   GL1 9781   6.555   1.827   5.531  0.0918 -0.0139 -0.0896
  675PSPI   GL2 9782   6.416   2.096   5.684  0.2871  0.1372  0.3863
  675PSPI   C1A 9783   6.395   1.655   5.874 -0.1596 -0.0053  0.0047
  675PSPI   C2A 9784   6.197   1.559   6.219 -0.0257  0.0203  0.1029
  675PSPI   C3A 9785   5.787   1.691   6.386  0.2429 -0.1749 -0.0639
  675PSPI   C4A 9786   5.277   1.881   6.503 -0.0786 -0.3086 -0.0411
  675PSPI   C1B 9787   6.460   2.068   6.092 -0.0149 -0.1291  0.0812
  675PSPI   C2B 9788   6.526   1.791   6.540  0.1425  0.2342 -0.0136
  675PSPI   C3B 9789   6.476   1.721   7.018  0.3950 -0.0969  0.0763
  675PSPI   C4B 9790   6.570   1.414   7.327 -0.1867 -0.0082  0.1645
  676PSPI    C1 9791   6.220  10.753   5.133 -0.0617 -0.1643 -0.1507
  676PSPI    C2 9792   6.541  10.991   5.110 -0.1462 -0.0464 -0.1197
  676PSPI    C3 9793   6.470  10.723   4.822 -0.0672 -0.0129 -0.1706
  676PSPI   PO4 9794   5.992  10.832   5.161  0.0373 -0.1551 -0.0647
  676PSPI   GL1 9795   5.886  10.930   5.461  0.2394  0.0005 -0.0809
  676PSPI   GL2 9796   6.062  10.733   5.649 -0.3175 -0.1175  0.1021
  676PSPI   C1A 9797   5.571  10.862   5.793 -0.0178  0.0968  0.2265
  676PSPI   C2A 9798   5.550  10.773   6.290 -0.1180 -0.1786 -0.0760
  676PSPI   C3A 9799   5.535  10.822   6.723  0.0538  0.0605 -0.0377
  676PSPI   C4A 9800   5.727  11.006   7.021 -0.0545 -0.0884 -0.2839
  676PSPI   C1B 9801   6.032  10.822   6.061 -0.0238  0.3163 -0.3665
  676PSPI   C2B 9802   6.109  10.814   6.473  0.2449 -0.3632 -0.0754
  676PSPI   C3B 9803   6.037  10.720   6.827  0.1762  0.0143 -0.3382
  676PSPI   C4B 9804   6.230  10.555   7.190  0.2160 -0.2788 -0.1024
  677PSPI    C1 9805  16.994   1.608   5.500  0.1442 -0.0209 -0.1505
  677PSPI    C2 9806  17.001   1.593   5.100  0.0198 -0.1473 -0.1488
  677PSPI    C3 9807  16.765   1.344   5.305 -0.0084 -0.0006 -0.0009
  677PSPI   PO4 9808  17.251   1.497   5.586  0.1375  0.2242 -0.2172
  677PSPI   GL1 9809  17.432   1.430   5.921  0.0087  0.2700 -0.3303
  677PSPI   GL2 9810  17.179   1.516   6.093 -0.1717  0.2028  0.0425
  677PSPI   C1A 9811  17.562   1.189   6.291  0.0513  0.1498  0.2458
  677PSPI   C2A 9812  17.438   1.183   6.800  0.0788  0.0245 -0.1734
  677PSPI   C3A 9813  17.450   1.225   7.291 -0.0230 -0.0279  0.2878
  677PSPI   C4A 9814  17.572   1.518   7.559 -0.4322 -0.2851 -0.2947
  677PSPI   C1B 9815  17.357   1.548   6.487 -0.0976 -0.1186  0.1270
  677PSPI   C2B 9816  17.736   1.571   6.798 -0.2966 -0.0694  0.1033
  677PSPI   C3B 9817  17.900   1.760   7.096 -0.0146  0.2996 -0.1166
  677PSPI   C4B 9818  18.129   2.117   7.160 -0.1188  0.1428 -0.0681
  678PSPI    C1 9819  13.887  16.956   5.532 -0.1135  0.1221  0.0350
  678PSPI    C2 9820  14.187  16.979   5.269  0.0367  0.0911  0.2013
  678PSPI    C3 9821  13.838  16.816   5.161  0.0355  0.2428 -0.0312
  678PSPI   PO4 9822  14.049  16.941   5.751 -0.0672  0.1259  0.0594
  678PSPI   GL1 9823  14.051  17.032   6.063  0.2274  0.2640  0.1301
  678PSPI   GL2 9824  14.002  17.214   6.236  0.0894  0.0826  0.1405
  678PSPI   C1A 9825  14.078  16.799   6.482  0.2591  0.0957 -0.0291
  678PSPI   C2A 9826  14.139  16.736   6.922  0.1604  0.2021  0.1951
  678PSPI   C3A 9827  14.131  16.450   7.180  0.1661 -0.1701  0.1865
  678PSPI   C4A 9828  14.291  16.202   7.577  0.5124  0.1274 -0.2215
  678PSPI   C1B 9829  13.821  17.227   6.585 -0.1792 -0.5144  0.0406
  678PSPI   C2B 9830  13.812  17.136   6.959 -0.3545  0.0234  0.1385
  678PSPI   C3B 9831  13.902  17.046   7.304 -0.1895  0.0693 -0.1900
  678PSPI   C4B 9832  13.802  17.062   7.701  0.1763  0.0018  0.0467
  679PSPI    C1 9833  16.411  11.264   5.451  0.0495 -0.0421  0.0141
  679PSPI    C2 9834  16.568  11.629   5.494 -0.1154  0.0477 -0.1307
  679PSPI    C3 9835  16.732  11.370   5.238  0.2142 -0.1070  0.2270
  679PSPI   PO4 9836  16.431  11.161   5.805  0.0423 -0.0071 -0.0019
  679PSPI   GL1 9837  16.599  11.087   6.246 -0.2249 -0.1063 -0.1894
  679PSPI   GL2 9838  16.789  11.373   6.091 -0.1203 -0.0588 -0.0009
  679PSPI   C1A 9839  16.594  10.858   6.643 -0.3078  0.0388  0.2087
  679PSPI   C2A 9840  16.665  10.787   6.991 -0.0690 -0.0144 -0.0977
  679PSPI   C3A 9841  16.552  10.616   7.387  0.0340  0.2097  0.0549
  679PSPI   C4A 9842  16.582  10.196   7.691 -0.3990  0.1262  0.0498
  679PSPI   C1B 9843  16.812  11.406   6.558 -0.0786 -0.4234  0.0993
  679PSPI   C2B 9844  16.685  11.299   6.869 -0.2136  0.2541 -0.0057
  679PSPI   C3B 9845  16.811  11.151   7.284  0.0178  0.3660  0.1021
  679PSPI   C4B 9846  16.467  11.125   7.546  0.1667  0.0490 -0.0971
  680PSPI    C1 9847  13.471  11.916   5.889 -0.0901 -0.1835  0.0508
  680PSPI    C2 9848  13.687  11.892   5.553 -0.1762  0.3039 -0.0466
  680PSPI    C3 9849  13.835  12.081   5.873 -0.0187 -0.3175  0.2618
  680PSPI   PO4 9850  13.307  11.657   5.933 -0.0979  0.1027  0.2818
  680PSPI   GL1 9851  13.282  11.366   6.222  0.0876 -0.0324  0.4164
  680PSPI   GL2 9852  13.034  11.054   6.173 -0.1057  0.0684 -0.0632
  680PSPI   C1A 9853  13.340  11.554   6.596 -0.1748  0.0554  0.1243
  680PSPI   C2A 9854  13.161  11.576   6.992  0.0039 -0.0219 -0.1369
  680PSPI   C3A 9855  13.038  11.610   7.487 -0.0055  0.4567  0.0477
  680PSPI   C4A 9856  12.749  11.462   7.871  0.0755 -0.1053  0.1794
  680PSPI   C1B 9857  12.901  11.297   6.504  0.1705 -0.1794 -0.1844
  680PSPI   C2B 9858  12.485  11.365   6.789  0.2465 -0.3472  0.1905
  680PSPI   C3B 9859  12.257  11.166   7.076  0.0346 -0.1255 -0.0858
  680PSPI   C4B 9860  11.928  10.984   7.259  0.0281  0.0934  0.2944
  681PSPI    C1 9861   6.614   7.466   5.250  0.0193  0.1916 -0.1533
  681PSPI    C2 9862   6.619   7.341   4.870 -0.0404  0.0121 -0.0961
  681PSPI    C3 9863   6.556   7.728   4.953 -0.2452  0.0158 -0.2602
  681PSPI   PO4 9864   6.822   7.389   5.329 -0.0610 -0.1075  0.0216
  681PSPI   GL1 9865   7.187   7.627   5.478 -0.0929 -0.2108 -0.0357
  681PSPI   GL2 9866   7.570   7.646   5.532 -0.4344  0.2422  0.0041
  681PSPI   C1A 9867   7.162   7.652   5.948 -0.0714 -0.0705  0.3632
  681PSPI   C2A 9868   7.117   7.936   6.296 -0.1627 -0.1199 -0.0038
  681PSPI   C3A 9869   7.078   8.357   6.460  0.1982  0.2482  0.1543
  681PSPI   C4A 9870   6.809   8.529   6.705  0.0294 -0.0866 -0.1517
  681PSPI   C1B 9871   7.569   7.942   5.757  0.1633 -0.2619 -0.3331
  681PSPI   C2B 9872   7.190   8.283   5.923  0.0429  0.3101 -0.1043
  681PSPI   C3B 9873   6.849   8.260   5.964  0.0214 -0.0660  0.0270
  681PSPI   C4B 9874   6.516   8.314   5.857 -0.1447  0.2710  0.2537
  682PSPI    C1 9875   7.590   4.459   5.076  0.1569 -0.1066  0.1357
  682PSPI    C2 9876   7.488   4.309   4.720  0.1655  0.0668  0.0592
  682PSPI    C3 9877   7.206   4.456   4.963  0.1935  0.2421 -0.0124
  682PSPI   PO4 9878   7.805   4.274   5.095 -0.3079 -0.1850  0.0945
  682PSPI   GL1 9879   7.826   4.069   5.413  0.0695  0.5933 -0.2509
  682PSPI   GL2 9880   8.114   4.346   5.557  0.0118  0.3905 -0.0622
  682PSPI   C1A 9881   7.481   4.066   5.715 -0.0168  0.1131 -0.0578
  682PSPI   C2A 9882   7.302   4.166   6.110  0.0961  0.1168 -0.1195
  682PSPI   C3A 9883   7.462   4.095   6.511  0.2252 -0.1600  0.0208
  682PSPI   C4A 9884   7.595   4.002   6.889 -0.1750  0.1468  0.0575
  682PSPI   C1B 9885   8.000   4.103   5.888  0.4159  0.0792 -0.1021
  682PSPI   C2B 9886   7.880   4.088   6.259  0.2009  0.2158  0.1807
  682PSPI   C3B 9887   7.839   3.701   6.525  0.1277 -0.1805 -0.4265
  682PSPI   C4B 9888   8.141   3.719   6.866 -0.1796 -0.0387  0.1110
  683PSPI    C1 9889  10.003  16.962   5.508 -0.0958  0.0146  0.1238
  683PSPI    C2 9890   9.812  16.748   5.230 -0.0199  0.0517  0.0427
  683PSPI    C3 9891   9.842  17.145   5.191 -0.0466  0.0622  0.1262
  683PSPI   PO4 9892   9.852  16.888   5.792  0.0634 -0.0016  0.3453
  683PSPI   GL1 9893   9.827  17.090   6.147 -0.1870  0.2325  0.2199
  683PSPI   GL2 9894   9.763  17.413   6.067  0.0341 -0.2492  0.0117
  683PSPI   C1A 9895   9.727  17.208   6.511  0.1576 -0.0714  0.0260
  683PSPI   C2A 9896   9.808  17.172   6.896  0.1778  0.0293 -0.1632
  683PSPI   C3A 9897   9.868  17.380   7.321  0.0753  0.4756 -0.3993
  683PSPI   C4A 9898  10.003  17.138   7.648  0.0085 -0.2670  0.0985
  683PSPI   C1B 9899   9.541  17.670   6.299 -0.2794  0.0047 -0.0581
  683PSPI   C2B 9900   9.462  18.092   6.207 -0.3946  0.1111  0.3163
  683PSPI   C3B 9901   9.198  18.380   6.235  0.1867 -0.0698 -0.0644
  683PSPI   C4B 9902   8.873  18.429   5.924 -0.4002 -0.0376 -0.0893
  684PSPI    C1 9903   9.036   2.925   4.627  0.0714  0.1607 -0.0194
  684PSPI    C2 9904   9.391   3.075   4.520 -0.0987  0.1678 -0.6087
  684PSPI    C3 9905   9.290   2.704   4.411 -0.0006 -0.1044  0.1625
  684PSPI   PO4 9906   8.920   2.934   4.870 -0.0594  0.1488  0.2586
  684PSPI   GL1 9907   8.798   2.960   5.219 -0.0521  0.0671  0.3397
  684PSPI   GL2 9908   8.772   2.819   5.517  0.0031  0.1026  0.0637
  684PSPI   C1A 9909   8.442   3.232   5.499 -0.2455 -0.1774 -0.0253
  684PSPI   C2A 9910   8.237   3.122   5.891  0.2854  0.0754  0.0173
  684PSPI   C3A 9911   8.290   3.322   6.326 -0.1058  0.3053  0.1130
  684PSPI   C4A 9912   8.579   3.382   6.699  0.4012 -0.3043  0.1787
  684PSPI   C1B 9913   9.153   2.774   5.853 -0.0197 -0.1066  0.2308
  684PSPI   C2B 9914   9.043   2.708   6.221 -0.1506 -0.1500  0.1763
  684PSPI   C3B 9915   9.156   2.518   6.583  0.0519  0.2702 -0.1448
  684PSPI   C4B 9916   9.114   2.623   6.952 -0.0666  0.0531 -0.3164
  685PSPI    C1 9917   1.234   4.053   5.260 -0.0283 -0.0008  0.1009
  685PSPI    C2 9918   1.109   4.045   4.880 -0.2721  0.1360  0.1757
  685PSPI    C3 9919   1.121   3.707   5.094 -0.1904  0.0681  0.0650
  685PSPI   PO4 9920   1.166   4.333   5.381  0.0920 -0.0295 -0.1126
  685PSPI   GL1 9921   1.190   4.564   5.820 -0.0531  0.0955  0.2846
  685PSPI   GL2 9922   1.120   4.890   5.866 -0.0161 -0.0331  0.0746
  685PSPI   C1A 9923   1.448   4.287   5.970 -0.2253 -0.0730 -0.1660
  685PSPI   C2A 9924   1.621   3.909   6.055 -0.0116  0.0171  0.1298
  685PSPI   C3A 9925   1.692   3.721   6.404 -0.1024 -0.1626  0.1555
  685PSPI   C4A 9926   1.478   3.688   6.800  0.2672 -0.1314 -0.3979
  685PSPI   C1B 9927   1.128   4.910   6.319  0.2745 -0.4210  0.2002
  685PSPI   C2B 9928   1.227   5.153   6.609 -0.2271  0.0675  0.1833
  685PSPI   C3B 9929   1.212   4.954   7.107 -0.2959  0.2469 -0.1717
  685PSPI   C4B 9930   1.248   4.656   7.354 -0.2939  0.2385 -0.3739
  686PSPI    C1 9931   4.411  17.639   5.410 -0.0739  0.0431 -0.0241
  686PSPI    C2 9932   4.640  17.456   5.138 -0.1080  0.0556 -0.0613
  686PSPI    C3 9933   4.804  17.600   5.474 -0.0756 -0.0136 -0.0472
  686PSPI   PO4 9934   4.232  17.429   5.470  0.0147 -0.0555 -0.0348
  686PSPI   GL1 9935   3.793  17.581   5.676  0.1254 -0.1158 -0.3026
  686PSPI   GL2 9936   3.762  17.846   5.830 -0.1222  0.2862  0.1564
  686PSPI   C1A 9937   4.008  17.415   6.111  0.3244 -0.0235  0.4492
  686PSPI   C2A 9938   3.968  17.435   6.554  0.0245 -0.1198  0.2388
  686PSPI   C3A 9939   3.957  17.460   6.937  0.4486  0.2867 -0.0554
  686PSPI   C4A 9940   3.893  17.576   7.466 -0.0330 -0.0023  0.0635
  686PSPI   C1B 9941   3.907  17.874   6.276 -0.3892  0.0086  0.3147
  686PSPI   C2B 9942   4.021  17.927   6.690  0.0762  0.0839 -0.0639
  686PSPI   C3B 9943   4.268  17.903   7.047  0.0483  0.2673  0.0105
  686PSPI   C4B 9944   4.156  17.973   7.446 -0.0686 -0.0211  0.2589
  687PSPI    C1 9945  14.492   1.645   5.624 -0.0489  0.0228 -0.1736
  687PSPI    C2 9946  14.374   2.021   5.559 -0.1190 -0.0202 -0.2982
  687PSPI    C3 9947  14.213   1.722   5.348 -0.1765 -0.1372 -0.0915
  687PSPI   PO4 9948  14.478   1.563   5.865 -0.1704 -0.2666  0.1368
  687PSPI   GL1 9949  14.209   1.520   6.252  0.0751 -0.0278  0.2488
  687PSPI   GL2 9950  14.585   1.358   6.326  0.2651 -0.0050 -0.0406
  687PSPI   C1A 9951  14.177   1.688   6.617  0.4952 -0.0009 -0.1887
  687PSPI   C2A 9952  14.153   1.767   7.084 -0.0663 -0.0192 -0.4671
  687PSPI   C3A 9953  14.560   1.701   7.351 -0.1635 -0.1016 -0.1279
  687PSPI   C4A 9954  14.720   1.630   7.772 -0.1583  0.0204  0.2103
  687PSPI   C1B 9955  14.608   1.273   6.739  0.2699  0.0967  0.0475
  687PSPI   C2B 9956  14.660   1.280   7.113  0.4257 -0.1049 -0.3255
  687PSPI   C3B 9957  14.747   1.181   7.533  0.1237 -0.1859  0.0272
  687PSPI   C4B 9958  14.982   1.229   7.890 -0.1808 -0.0626 -0.0032
  688PSPI    C1 9959  16.265   7.008   5.749 -0.0833  0.2346  0.1777
  688PSPI    C2 9960  16.129   7.384   5.740  0.0311  0.2719 -0.2189
  688PSPI    C3 9961  16.488   7.298   5.587  0.0175  0.0035 -0.1055
  688PSPI   PO4 9962  16.212   6.904   5.972  0.3498  0.0523 -0.1393
  688PSPI   GL1 9963  16.097   6.926   6.415  0.0032  0.2769 -0.1096
  688PSPI   GL2 9964  16.484   6.905   6.447 -0.0716 -0.0155 -0.0941
  688PSPI   C1A 9965  16.070   7.171   6.853  0.1730  0.3835 -0.1275
  688PSPI   C2A 9966  16.104   7.342   7.222 -0.1321 -0.1286 -0.3174
  688PSPI   C3A 9967  16.295   7.489   7.581 -0.1945 -0.3728  0.0437
  688PSPI   C4A 9968  16.625   7.711   7.828 -0.4657 -0.1398  0.0594
  688PSPI   C1B 9969  16.525   7.374   6.620 -0.2329 -0.1200 -0.0080
  688PSPI   C2B 9970  16.593   7.533   7.062 -0.1363 -0.1089 -0.0767
  688PSPI   C3B 9971  16.825   7.396   7.444  0.3296  0.5544  0.1067
  688PSPI   C4B 9972  17.070   7.424   7.781  0.3587 -0.0207  0.5731
  689PSPI    C1 9973  11.444   4.464   5.477 -0.1501 -0.0777 -0.1339
  689PSPI    C2 9974  11.520   4.072   5.473 -0.0546 -0.0629  0.0869
  689PSPI    C3 9975  11.735   4.319   5.244  0.0598 -0.1099  0.1423
  689PSPI   PO4 9976  11.072   4.432   5.491 -0.1205 -0.1346  0.0992
  689PSPI   GL1 9977  10.892   4.562   5.901  0.0871  0.0204  0.0289
  689PSPI   GL2 9978  11.037   4.383   6.204 -0.0569  0.0124  0.3956
  689PSPI   C1A 9979  10.750   4.813   6.229 -0.0121 -0.0140 -0.1434
  689PSPI   C2A 9980  10.586   4.929   6.581  0.0775  0.1647 -0.0777
  689PSPI   C3A 9981  10.567   5.319   6.849  0.1081  0.0605  0.0087
  689PSPI   C4A 9982  10.451   5.646   7.015 -0.1810 -0.0222  0.0719
  689PSPI   C1B 9983  11.107   4.649   6.527  0.2584  0.1715 -0.0888
  689PSPI   C2B 9984  11.408   4.948   6.725  0.0407 -0.3110 -0.0747
  689PSPI   C3B 9985  11.666   4.844   7.140  0.0141 -0.0286  0.0044
  689PSPI   C4B 9986  11.827   4.741   7.502 -0.0015  0.1690 -0.0256
  690PSPI    C1 9987  15.764  15.431   5.314 -0.1370 -0.2082 -0.1206
  690PSPI    C2 9988  15.909  15.772   5.164 -0.2693 -0.0913  0.0135
  690PSPI    C3 9989  15.526  15.674   5.104 -0.3569  0.0165  0.3721
  690PSPI   PO4 9990  15.834  15.429   5.534  0.0812 -0.2267  0.2337
  690PSPI   GL1 9991  15.941  15.630   5.923  0.3019 -0.0350 -0.3516
  690PSPI   GL2 9992  15.986  15.236   6.017 -0.0147  0.1477  0.2750
  690PSPI   C1A 9993  16.221  15.618   6.358 -0.1698 -0.0851  0.1873
  690PSPI   C2A 9994  16.230  15.553   6.824 -0.1849 -0.1406  0.2916
  690PSPI   C3A 9995  16.240  15.627   7.217 -0.0067  0.0881 -0.2362
  690PSPI   C4A 9996  15.997  15.594   7.571 -0.2288  0.2897  0.1856
  690PSPI   C1B 9997  15.946  15.215   6.490 -0.2881  0.0828 -0.0912
  690PSPI   C2B 9998  15.720  15.015   6.876  0.0701 -0.3738  0.1424
  690PSPI   C3B 9999  15.348  15.086   7.091  0.1177 -0.1691 -0.0186
  690PSPI   C4B10000  14.980  14.874   7.195 -0.0562 -0.1688  0.4975
  691PSPI    C110001   7.171  16.084   5.179 -0.0351 -0.2005  0.0569
  691PSPI    C210002   7.430  15.988   5.469  0.0740  0.0998  0.0630
  691PSPI    C310003   7.422  16.360   5.323 -0.1978  0.0334 -0.1003
  691PSPI   PO410004   6.994  15.888   5.281  0.0143  0.0182 -0.0182
  691PSPI   GL110005   6.774  15.858   5.689 -0.2419  0.1047 -0.3002
  691PSPI   GL210006   6.815  16.148   5.869  0.0294  0.0914 -0.1656
  691PSPI   C1A10007   6.959  15.694   6.127 -0.3269 -0.1440 -0.0632
  691PSPI   C2A10008   7.158  15.314   6.460 -0.1739 -0.1461  0.0621
  691PSPI   C3A10009   7.468  15.163   6.269 -0.3994 -0.0047  0.1323
  691PSPI   C4A10010   7.673  15.149   5.882 -0.0323  0.0805  0.0715
  691PSPI   C1B10011   6.720  16.135   6.267 -0.2279  0.0916  0.1864
  691PSPI   C2B10012   6.676  16.054   6.601 -0.1268 -0.0336 -0.2739
  691PSPI   C3B10013   6.404  16.009   6.852 -0.1513 -0.1082 -0.1614
  691PSPI   C4B10014   6.189  16.184   7.103  0.0639 -0.0010  0.0006
  692PSPI    C110015  17.785  14.835   5.516 -0.0424  0.0941 -0.1621
  692PSPI    C210016  18.184  14.865   5.535 -0.0460  0.1513 -0.1731
  692PSPI    C310017  18.015  14.524   5.413 -0.0011  0.1141 -0.1313
  692PSPI   PO410018  17.730  14.833   5.862 -0.3238 -0.0898 -0.3008
  692PSPI   GL110019  17.761  15.078   6.308 -0.0200 -0.1251 -0.2853
  692PSPI   GL210020  17.491  15.146   6.260  0.0696  0.1738 -0.3226
  692PSPI   C1A10021  18.003  15.217   6.657  0.0867 -0.1222 -0.1638
  692PSPI   C2A10022  17.916  15.345   7.061 -0.1076 -0.0687  0.0761
  692PSPI   C3A10023  17.695  15.703   7.232  0.2629 -0.0279 -0.0921
  692PSPI   C4A10024  17.472  16.050   7.039 -0.0186  0.2209  0.0996
  692PSPI   C1B10025  17.157  15.296   6.528  0.2126 -0.1973 -0.2157
  692PSPI   C2B10026  16.803  15.470   6.812  0.0990  0.2300 -0.0736
  692PSPI   C3B10027  16.722  15.593   7.253  0.0192 -0.3956 -0.1325
  692PSPI   C4B10028  16.879  15.417   7.679 -0.0912 -0.2266  0.0935
  693PSPI    C110029  17.215   5.436   5.625  0.1068  0.0751 -0.0663
  693PSPI    C210030  16.832   5.492   5.726  0.1515 -0.0230  0.1629
  693PSPI    C310031  16.960   5.597   5.362 -0.1137 -0.0733  0.0530
  693PSPI   PO410032  17.356   5.519   5.868 -0.3687 -0.0179 -0.1032
  693PSPI   GL110033  17.539   5.749   6.286  0.1136 -0.2282 -0.2894
  693PSPI   GL210034  17.237   5.807   6.458 -0.1339  0.1150  0.1457
  693PSPI   C1A10035  17.732   6.087   6.545  0.0827 -0.1767 -0.2556
  693PSPI   C2A10036  17.952   6.157   6.925  0.0978  0.1670 -0.0393
  693PSPI   C3A10037  17.799   6.124   7.387 -0.2025 -0.1468 -0.0250
  693PSPI   C4A10038  17.536   6.044   7.701 -0.0832 -0.3247 -0.2331
  693PSPI   C1B10039  17.068   5.713   6.844 -0.1534 -0.0172  0.1097
  693PSPI   C2B10040  16.909   5.399   7.187  0.0141 -0.0904 -0.0734
  693PSPI   C3B10041  16.850   5.074   7.371  0.2965  0.2529  0.0881
  693PSPI   C4B10042  16.794   4.659   7.497  0.0362  0.0791  0.1159
  694PSPI    C110043   3.158   7.229   4.898 -0.1037 -0.0611 -0.0150
  694PSPI    C210044   2.759   7.248   4.896 -0.1076 -0.1398 -0.2000
  694PSPI    C310045   2.974   7.571   4.801 -0.1191  0.0098  0.2550
  694PSPI   PO410046   3.250   7.034   5.202  0.0587  0.0978 -0.0151
  694PSPI   GL110047   3.120   6.877   5.582 -0.3004 -0.0465  0.0116
  694PSPI   GL210048   3.185   6.506   5.577  0.1664  0.1123 -0.1171
  694PSPI   C1A10049   3.462   7.031   5.913 -0.0536 -0.1632  0.0288
  694PSPI   C2A10050   3.786   7.239   5.966  0.3572 -0.0209  0.1563
  694PSPI   C3A10051   4.109   7.370   6.183 -0.0910 -0.0218  0.3287
  694PSPI   C4A10052   4.026   7.434   6.628  0.0830  0.2295  0.1005
  694PSPI   C1B10053   2.997   6.429   6.037 -0.2738  0.1191 -0.2299
  694PSPI   C2B10054   3.141   6.323   6.406  0.0851  0.1080 -0.0761
  694PSPI   C3B10055   3.382   6.361   6.738 -0.0905 -0.1050 -0.0944
  694PSPI   C4B10056   3.377   6.452   7.129 -0.2082 -0.1100  0.1848
  695POPI    C110057  10.417   3.431   5.621 -0.0175 -0.0997 -0.0094
  695POPI    C210058  10.341   3.281   5.984 -0.0280  0.0415  0.0475
  695POPI    C310059  10.394   3.035   5.673  0.1148 -0.0851  0.1704
  695POPI   PO410060  10.547   3.706   5.738 -0.0561  0.3559  0.2997
  695POPI   GL110061  10.547   3.751   6.179 -0.2260  0.3634  0.2873
  695POPI   GL210062  10.877   3.951   6.240 -0.1065 -0.2718 -0.0239
  695POPI   C1A10063  10.286   3.671   6.599 -0.0860  0.2023  0.1010
  695POPI   D2A10064  10.156   3.553   7.049  0.0930  0.2797 -0.2184
  695POPI   C3A10065  10.403   3.234   7.202 -0.0602  0.1933 -0.1307
  695POPI   C4A10066  10.652   3.009   7.453  0.0097 -0.1198 -0.1243
  695POPI   C1B10067  11.212   4.150   6.535  0.0292  0.2123  0.1024
  695POPI   C2B10068  11.118   3.967   7.043 -0.0664  0.2578  0.2030
  695POPI   C3B10069  11.112   4.116   7.527 -0.4652 -0.0076  0.0166
  695POPI   C4B10070  10.989   3.957   7.888 -0.0126  0.0792 -0.0490
  696POPI    C110071   9.828   6.714   4.992  0.1986 -0.0328  0.0837
  696POPI    C210072   9.979   6.355   4.900  0.1920  0.0257 -0.1625
  696POPI    C310073   9.811   6.581   4.616  0.1035  0.1811  0.0105
  696POPI   PO410074   9.717   6.584   5.334  0.2588  0.2499  0.1184
  696POPI   GL110075   9.636   6.464   5.716  0.0655  0.0080  0.1237
  696POPI   GL210076   9.804   6.478   5.906  0.0346 -0.2344 -0.0519
  696POPI   C1A10077   9.400   6.340   6.206 -0.2731 -0.0038 -0.2536
  696POPI   D2A10078   8.952   6.354   6.364 -0.1104 -0.0010  0.0559
  696POPI   C3A10079   8.629   6.594   6.136  0.1895  0.2470  0.0300
  696POPI   C4A10080   8.699   6.681   5.765 -0.5476  0.2400 -0.3317
  696POPI   C1B10081   9.863   6.084   6.187  0.1508  0.1241  0.1002
  696POPI   C2B10082   9.758   5.986   6.615 -0.0029 -0.0666  0.0646
  696POPI   C3B10083   9.589   5.838   6.950  0.1325  0.0151 -0.1928
  696POPI   C4B10084   9.167   5.814   7.186 -0.5484 -0.4027  0.1600
  697POPI    C110085   6.709   9.809   4.729 -0.0663  0.0097 -0.1330
  697POPI    C210086   6.996   9.834   5.006  0.1618 -0.1022 -0.3547
  697POPI    C310087   6.979  10.104   4.711 -0.2636  0.1961 -0.0677
  697POPI   PO410088   6.482   9.799   4.862  0.2515  0.0111 -0.0291
  697POPI   GL110089   6.337   9.894   5.309 -0.1043  0.1854 -0.0500
  697POPI   GL210090   6.479  10.109   5.508 -0.4835  0.2296 -0.1522
  697POPI   C1A10091   6.816   9.751   5.539  0.3090 -0.1645 -0.0812
  697POPI   D2A10092   6.860   9.375   5.704 -0.0889 -0.0145  0.2282
  697POPI   C3A10093   6.947   9.225   6.088 -0.0057 -0.0030 -0.3638
  697POPI   C4A10094   6.942   9.082   6.497  0.1360  0.3701 -0.2392
  697POPI   C1B10095   6.690  10.067   5.956  0.2370  0.0797 -0.0854
  697POPI   C2B10096   6.662  10.019   6.443 -0.1955 -0.0727  0.0004
  697POPI   C3B10097   6.987  10.101   6.788  0.0956 -0.1546 -0.1141
  697POPI   C4B10098   7.419  10.178   6.948 -0.2156 -0.1908 -0.0812
  698POPI    C110099  18.921   7.665   5.883  0.1942  0.1627  0.2282
  698POPI    C210100  18.814   7.832   5.535 -0.3467 -0.2377  0.1891
  698POPI    C310101  19.125   7.581   5.549 -0.3240 -0.2223 -0.0062
  698POPI   PO410102  18.731   7.630   5.986  0.2237  0.1368 -0.0907
  698POPI   GL110103  18.604   7.734   6.289 -0.4794  0.2187 -0.1553
  698POPI   GL210104  18.450   7.630   6.471 -0.0397 -0.2720  0.5151
  698POPI   C1A10105  18.912   7.740   6.639 -0.0640  0.0096  0.1937
  698POPI   D2A10106  19.064   7.947   6.941 -0.0012  0.1315 -0.2476
  698POPI   C3A10107  19.294   8.144   7.162 -0.1664 -0.0901  0.2626
  698POPI   C4A10108  19.569   8.381   7.478 -0.2211 -0.1485 -0.1103
  698POPI   C1B10109  18.445   7.891   6.821  0.2687  0.0398  0.0515
  698POPI   C2B10110  18.602   7.676   7.224 -0.0429  0.2630 -0.3726
  698POPI   C3B10111  19.060   7.598   7.337 -0.1022  0.3263 -0.2194
  698POPI   C4B10112  19.511   7.647   7.433  0.2308  0.0974  0.0267
  699POPI    C110113   2.626   5.999   5.132  0.0328 -0.1637 -0.1260
  699POPI    C210114   2.691   6.304   4.881  0.2811 -0.0982  0.0143
  699POPI    C310115   2.831   5.940   4.794  0.2447 -0.1064 -0.0098
  699POPI   PO410116   2.793   6.110   5.476 -0.2591  0.1528 -0.2162
  699POPI   GL110117   3.024   5.905   5.798  0.0557 -0.1777 -0.1482
  699POPI   GL210118   3.368   6.002   5.841  0.2723 -0.3524  0.3730
  699POPI   C1A10119   3.083   5.539   6.033 -0.2177  0.0345 -0.3073
  699POPI   D2A10120   3.264   5.208   6.236 -0.1798 -0.1252 -0.1079
  699POPI   C3A10121   3.562   5.231   6.550  0.0700  0.2263 -0.0617
  699POPI   C4A10122   3.910   5.300   6.886  0.2934 -0.0916 -0.0086
  699POPI   C1B10123   3.368   5.867   6.364  0.3655  0.0478 -0.2403
  699POPI   C2B10124   3.185   5.694   6.764 -0.2504  0.4282 -0.1772
  699POPI   C3B10125   2.951   5.603   7.194  0.0471 -0.2664 -0.2123
  699POPI   C4B10126   2.916   5.360   7.652 -0.1783  0.1410 -0.2089
  700POPI    C110127  15.104   9.344   5.341  0.1472  0.2808  0.0204
  700POPI    C210128  14.973   9.694   5.197  0.0734  0.2226 -0.0550
  700POPI    C310129  15.246   9.483   4.994  0.1023  0.2261 -0.0200
  700POPI   PO410130  15.155   9.422   5.668 -0.3603  0.1130  0.0953
  700POPI   GL110131  15.024   9.439   6.093  0.0803  0.0812 -0.1779
  700POPI   GL210132  15.081   9.106   6.047 -0.0471 -0.3434 -0.2482
  700POPI   C1A10133  14.842   9.410   6.513 -0.1111  0.3465  0.0460
  700POPI   D2A10134  14.737   9.372   6.911 -0.0780 -0.1993  0.1156
  700POPI   C3A10135  14.347   9.492   7.133  0.2294 -0.1448  0.1027
  700POPI   C4A10136  14.047   9.666   7.386  0.1019  0.0560  0.4283
  700POPI   C1B10137  15.127   8.929   6.473  0.2076  0.0606 -0.0867
  700POPI   C2B10138  15.081   8.942   6.832  0.0103 -0.0036 -0.2178
  700POPI   C3B10139  15.046   9.047   7.166  0.0955  0.0889  0.0395
  700POPI   C4B10140  14.900   9.289   7.428 -0.0576  0.0928 -0.0779
  701POPI    C110141   9.026   0.496   5.041 -0.0600 -0.2341  0.2719
  701POPI    C210142   8.647   0.616   5.085  0.0126  0.1210 -0.0190
  701POPI    C310143   8.917   0.863   4.922  0.3111 -0.2237 -0.0581
  701POPI   PO410144   9.055   0.247   5.267  0.1890  0.1280  0.2030
  701POPI   GL110145   8.880   0.210   5.692  0.0194  0.1383  0.0381
  701POPI   GL210146   8.825   0.421   5.762 -0.0306 -0.1583 -0.2503
  701POPI   C1A10147   8.508   0.016   5.820 -0.1627  0.0846 -0.0267
  701POPI   D2A10148   8.317   0.056   6.186 -0.2412  0.1825  0.1319
  701POPI   C3A10149   8.027  -0.093   6.386  0.1556  0.2259  0.3728
  701POPI   C4A10150   7.675   0.023   6.692  0.2564 -0.0092 -0.2751
  701POPI   C1B10151   8.689   0.393   6.111  0.1152 -0.0768 -0.0824
  701POPI   C2B10152   8.628   0.242   6.491  0.1703  0.4130 -0.2366
  701POPI   C3B10153   8.387   0.059   6.780 -0.2850 -0.2398 -0.0859
  701POPI   C4B10154   8.083  -0.219   6.905 -0.0844  0.2204 -0.3951
  702POPI    C110155   2.480  17.222   4.878 -0.0027 -0.2224 -0.1394
  702POPI    C210156   2.162  17.055   5.054  0.1441 -0.1986  0.1557
  702POPI    C310157   2.311  16.897   4.718 -0.1506 -0.2349  0.0386
  702POPI   PO410158   2.689  17.230   5.074  0.1584  0.3779  0.1716
  702POPI   GL110159   2.755  17.131   5.492 -0.2039  0.2304  0.3868
  702POPI   GL210160   2.346  16.963   5.513  0.2441  0.1456  0.2254
  702POPI   C1A10161   3.003  16.961   5.857  0.2858  0.0887  0.1622
  702POPI   D2A10162   2.981  16.927   6.282 -0.0547 -0.0617  0.1830
  702POPI   C3A10163   2.966  16.932   6.673  0.1256 -0.2168 -0.1964
  702POPI   C4A10164   3.134  17.100   6.965  0.0114 -0.0287  0.2095
  702POPI   C1B10165   2.521  17.116   5.893 -0.1161  0.4627 -0.1553
  702POPI   C2B10166   2.487  17.287   6.337 -0.2016  0.1093  0.2027
  702POPI   C3B10167   2.184  17.449   6.422  0.0201 -0.1683  0.0163
  702POPI   C4B10168   2.199  17.488   6.862  0.0180 -0.1537  0.1180
  703POPI    C110169  13.942  13.414   5.425  0.4018 -0.1109  0.1779
  703POPI    C210170  13.768  13.237   5.111  0.1333  0.3560  0.0548
  703POPI    C310171  14.158  13.328   5.100  0.2740 -0.2068  0.1178
  703POPI   PO410172  13.890  13.312   5.628  0.3131 -0.1410 -0.1411
  703POPI   GL110173  13.608  13.415   5.791  0.1040  0.3390 -0.3711
  703POPI   GL210174  13.402  13.582   5.864 -0.1504 -0.1359  0.0055
  703POPI   C1A10175  13.609  13.309   6.289  0.2546  0.1950 -0.1707
  703POPI   D2A10176  13.685  13.310   6.752 -0.2795  0.2299 -0.1876
  703POPI   C3A10177  13.996  13.069   6.911  0.0072 -0.1116  0.0560
  703POPI   C4A10178  14.250  13.059   7.255 -0.0871 -0.2696 -0.1550
  703POPI   C1B10179  13.131  13.665   6.240  0.0676 -0.0670 -0.2593
  703POPI   C2B10180  12.943  13.751   6.767  0.0411 -0.4068  0.3057
  703POPI   C3B10181  13.174  14.071   7.144 -0.0385  0.1696 -0.3555
  703POPI   C4B10182  13.461  14.338   7.384 -0.0090 -0.0170  0.3240
  704POPI    C110183   5.057  17.796   5.079  0.1127  0.1976 -0.0339
  704POPI    C210184   5.251  18.071   4.863 -0.0187  0.2660 -0.0660
  704POPI    C310185   4.901  17.926   4.735  0.0134  0.1390 -0.0113
  704POPI   PO410186   5.198  17.921   5.400 -0.1624 -0.0067 -0.0326
  704POPI   GL110187   5.524  18.101   5.705 -0.0694 -0.0866 -0.2020
  704POPI   GL210188   5.396  18.371   5.675 -0.1184  0.1666  0.0837
  704POPI   C1A10189   5.584  17.993   6.137 -0.0905  0.0936 -0.1063
  704POPI   D2A10190   5.449  17.823   6.556 -0.1507 -0.1072  0.1392
  704POPI   C3A10191   5.411  17.401   6.674 -0.0121 -0.1507 -0.1634
  704POPI   C4A10192   5.698  17.096   6.623  0.2708 -0.5923  0.0960
  704POPI   C1B10193   5.505  18.504   6.075 -0.0455 -0.1643  0.1073
  704POPI   C2B10194   5.584  18.341   6.500  0.0465 -0.0454 -0.0064
  704POPI   C3B10195   5.434  18.166   6.899 -0.4095  0.1234 -0.1578
  704POPI   C4B10196   5.457  17.772   7.088  0.0705 -0.3127 -0.1042
  705POPI    C110197  18.735   3.499   5.375  0.0133 -0.0877  0.0446
  705POPI    C210198  18.413   3.320   5.220  0.0318  0.0256 -0.1276
  705POPI    C310199  18.757   3.119   5.254 -0.0010 -0.0320 -0.1361
  705POPI   PO410200  18.644   3.666   5.614 -0.2073  0.1758 -0.0563
  705POPI   GL110201  18.780   3.800   6.067  0.2850  0.5108  0.1220
  705POPI   GL210202  19.120   3.602   6.052 -0.0734  0.0438  0.0699
  705POPI   C1A10203  18.585   4.173   6.394  0.2023 -0.2704 -0.1113
  705POPI   D2A10204  18.376   4.335   6.817 -0.2043  0.0805 -0.1086
  705POPI   C3A10205  18.525   4.299   7.208  0.1408 -0.0413  0.2805
  705POPI   C4A10206  18.413   4.602   7.480  0.0887 -0.1885 -0.4338
  705POPI   C1B10207  19.110   3.758   6.416 -0.0022 -0.0750  0.0538
  705POPI   C2B10208  19.260   3.822   6.830 -0.1634  0.0701  0.0986
  705POPI   C3B10209  19.264   4.065   7.182 -0.2347  0.2043  0.1505
  705POPI   C4B10210  19.468   4.343   7.541  0.2765  0.3034 -0.1789
  706POPI    C110211   5.782   6.562   5.351 -0.1269 -0.0129  0.1022
  706POPI    C210212   6.039   6.372   5.110 -0.0456  0.1454  0.0621
  706POPI    C310213   5.684   6.491   4.970 -0.0862  0.0465  0.0803
  706POPI   PO410214   5.997   6.686   5.513 -0.0645  0.4591  0.3639
  706POPI   GL110215   5.799   6.753   5.912 -0.0326 -0.0960 -0.0612
  706POPI   GL210216   5.838   7.081   5.865  0.0866  0.0850 -0.0668
  706POPI   C1A10217   5.790   6.545   6.258  0.1131  0.0102  0.1551
  706POPI   D2A10218   5.812   6.553   6.679  0.1370 -0.0927 -0.2051
  706POPI   C3A10219   5.964   6.178   6.903 -0.1481 -0.1966 -0.1567
  706POPI   C4A10220   6.024   6.031   7.287 -0.1177  0.3210 -0.0781
  706POPI   C1B10221   6.082   7.071   6.242  0.2008  0.0574 -0.0163
  706POPI   C2B10222   6.329   7.148   6.602  0.0708  0.0503  0.1427
  706POPI   C3B10223   6.546   7.159   6.980  0.3390  0.2556  0.0597
  706POPI   C4B10224   6.478   6.935   7.298 -0.0159 -0.1573 -0.1513
  707POPI    C110225   3.796  11.238   5.066  0.0311  0.0490  0.1226
  707POPI    C210226   3.772  10.839   5.036 -0.0021  0.0323  0.3581
  707POPI    C310227   4.077  11.035   4.866 -0.0653 -0.0776  0.1142
  707POPI   PO410228   3.705  11.352   5.314  0.1571 -0.0072 -0.0407
  707POPI   GL110229   3.657  11.275   5.644  0.0783  0.0858  0.0555
  707POPI   GL210230   3.422  11.326   5.731 -0.0176 -0.0531 -0.1600
  707POPI   C1A10231   3.883  11.510   6.051  0.1005 -0.0479 -0.0129
  707POPI   D2A10232   3.959  11.344   6.478 -0.1221  0.1963 -0.1885
  707POPI   C3A10233   4.225  11.076   6.765 -0.2419  0.0016 -0.0357
  707POPI   C4A10234   4.594  10.743   6.768  0.1809 -0.1195  0.0466
  707POPI   C1B10235   3.627  11.054   6.062  0.3027  0.1069  0.2541
  707POPI   C2B10236   3.653  10.912   6.547  0.3795 -0.1480  0.0901
  707POPI   C3B10237   3.712  11.035   7.001  0.1734  0.0837 -0.0374
  707POPI   C4B10238   3.675  11.146   7.383 -0.0904  0.3541 -0.1453
  708POPI    C110239   8.746   4.575   4.995 -0.0512 -0.1834 -0.0326
  708POPI    C210240   9.122   4.712   4.991 -0.1091 -0.0254 -0.1471
  708POPI    C310241   9.053   4.318   4.973  0.0575 -0.0716  0.1528
  708POPI   PO410242   8.668   4.717   5.247  0.0054  0.1850 -0.2943
  708POPI   GL110243   8.829   4.652   5.661  0.1449 -0.1204 -0.1657
  708POPI   GL210244   9.100   4.516   5.416 -0.1089 -0.0107  0.2169
  708POPI   C1A10245   8.703   4.602   6.073 -0.0074  0.0200  0.1823
  708POPI   D2A10246   8.719   4.409   6.524  0.1523  0.5709  0.0856
  708POPI   C3A10247   8.881   4.733   6.877  0.1941  0.2006  0.2264
  708POPI   C4A10248   9.261   4.615   7.098  0.1438 -0.0132 -0.0877
  708POPI   C1B10249   9.067   4.128   5.723 -0.1231 -0.1794  0.1849
  708POPI   C2B10250   9.000   4.173   6.202  0.3476  0.0545 -0.1169
  708POPI   C3B10251   8.856   3.919   6.502 -0.1088 -0.0027  0.3271
  708POPI   C4B10252   8.642   4.015   6.828  0.5302  0.1827  0.2419
  709POPI    C110253  13.207  12.996   5.744  0.0944  0.1720  0.0445
  709POPI    C210254  13.559  12.882   5.894  0.1517  0.0296 -0.1933
  709POPI    C310255  13.527  12.971   5.506 -0.1246 -0.1837 -0.2226
  709POPI   PO410256  12.991  12.745   5.898 -0.3327  0.1392 -0.0038
  709POPI   GL110257  13.185  12.648   6.283  0.2487 -0.1598 -0.0212
  709POPI   GL210258  13.489  12.390   6.125 -0.0802 -0.0067 -0.2342
  709POPI   C1A10259  13.090  12.699   6.603 -0.0800  0.0849 -0.0868
  709POPI   D2A10260  12.929  12.741   7.020  0.1633 -0.1353 -0.0384
  709POPI   C3A10261  13.146  12.723   7.362  0.1421 -0.0730 -0.0359
  709POPI   C4A10262  12.954  13.154   7.697  0.0012 -0.1846  0.2965
  709POPI   C1B10263  13.662  12.791   6.455 -0.0588  0.2856  0.2034
  709POPI   C2B10264  13.540  12.846   6.762 -0.1864  0.1065 -0.0123
  709POPI   C3B10265  13.600  12.868   7.200  0.2730 -0.0362  0.2066
  709POPI   C4B10266  13.808  13.197   7.452  0.2117 -0.1018  0.0750
  710POPI    C110267  16.473   3.720   5.774  0.0311  0.1753  0.0847
  710POPI    C210268  16.432   4.000   5.491  0.0544  0.1454  0.0516
  710POPI    C310269  16.112   3.874   5.696  0.0463  0.2077  0.0776
  710POPI   PO410270  16.777   3.760   5.978 -0.1749  0.0575 -0.0204
  710POPI   GL110271  16.831   4.079   6.365  0.0580 -0.0962  0.0336
  710POPI   GL210272  16.675   4.262   6.376 -0.1941  0.1608 -0.0983
  710POPI   C1A10273  17.243   4.137   6.619  0.2006 -0.0469 -0.1234
  710POPI   D2A10274  17.449   4.337   6.902  0.2657 -0.1276  0.0789
  710POPI   C3A10275  17.928   4.477   6.754 -0.1832 -0.2595  0.1738
  710POPI   C4A10276  18.171   4.802   6.593 -0.1134 -0.1510  0.1418
  710POPI   C1B10277  16.465   4.474   6.640 -0.0095  0.0201  0.1464
  710POPI   C2B10278  16.547   4.734   7.104  0.0957 -0.2837  0.0064
  710POPI   C3B10279  16.359   4.895   7.466  0.0690  0.4172  0.1377
  710POPI   C4B10280  16.508   5.036   7.809 -0.2919  0.2571 -0.0745
  711POPI    C110281  13.616   8.041   5.280 -0.0009 -0.1728  0.1557
  711POPI    C210282  13.773   7.885   4.947 -0.1217  0.0392 -0.0035
  711POPI    C310283  13.985   8.145   5.166 -0.0948  0.0060  0.0102
  711POPI   PO410284  13.517   7.860   5.432  0.1167  0.3093 -0.2848
  711POPI   GL110285  13.606   7.861   5.866 -0.0533 -0.0804 -0.0259
  711POPI   GL210286  13.837   7.663   6.075  0.0369  0.0672 -0.2469
  711POPI   C1A10287  13.422   8.068   6.160  0.2642 -0.1543 -0.0258
  711POPI   D2A10288  13.001   8.148   6.280 -0.0096 -0.4590 -0.1127
  711POPI   C3A10289  12.868   8.253   6.669  0.0180  0.1416  0.0080
  711POPI   C4A10290  13.019   8.417   7.019 -0.0336 -0.0286 -0.1819
  711POPI   C1B10291  13.819   7.841   6.452 -0.0774 -0.2150 -0.0725
  711POPI   C2B10292  13.888   7.693   6.892  0.1464  0.0371 -0.1744
  711POPI   C3B10293  14.109   7.874   7.246 -0.1042  0.2114  0.3094
  711POPI   C4B10294  14.214   8.173   7.390 -0.2416 -0.2043  0.2488
  712POPI    C110295  13.343   9.830   5.413 -0.0583 -0.0790 -0.0899
  712POPI    C210296  12.958   9.847   5.306 -0.1079 -0.2915  0.0491
  712POPI    C310297  13.155   9.500   5.289  0.0572 -0.1989  0.0505
  712POPI   PO410298  13.348   9.844   5.675  0.0373  0.1571 -0.1643
  712POPI   GL110299  13.547   9.725   6.049 -0.2839  0.3067  0.0609
  712POPI   GL210300  13.812   9.544   5.952  0.1155 -0.3799 -0.0938
  712POPI   C1A10301  13.623  10.061   6.368 -0.1097  0.2219  0.0155
  712POPI   D2A10302  13.327  10.525   6.448 -0.3035  0.1890  0.4073
  712POPI   C3A10303  13.265  10.375   6.820  0.0422 -0.0927  0.1675
  712POPI   C4A10304  12.972  10.573   7.090  0.1058  0.0492 -0.0501
  712POPI   C1B10305  13.736   9.313   6.235 -0.2521 -0.1516 -0.0925
  712POPI   C2B10306  13.434   9.046   6.535  0.1767  0.0864 -0.3779
  712POPI   C3B10307  13.020   8.949   6.653 -0.2814  0.2029  0.2222
  712POPI   C4B10308  12.866   9.002   7.112  0.1112  0.0810  0.2245
  713POPI    C110309   8.709  10.486   5.195 -0.0619 -0.1759 -0.3894
  713POPI    C210310   8.580  10.175   4.978 -0.1766 -0.0670 -0.4787
  713POPI    C310311   8.317  10.428   5.140 -0.0857 -0.0546 -0.3492
  713POPI   PO410312   8.960  10.396   5.308  0.0328 -0.0750  0.0189
  713POPI   GL110313   8.918  10.672   5.694 -0.1397  0.1901 -0.1361
  713POPI   GL210314   8.888  10.453   5.913 -0.2633  0.1859  0.0170
  713POPI   C1A10315   9.368  10.895   5.845  0.1532 -0.1297 -0.3089
  713POPI   D2A10316   9.717  10.985   6.050  0.1391 -0.0484  0.2374
  713POPI   C3A10317   9.868  10.941   6.476 -0.0533  0.1423  0.0346
  713POPI   C4A10318  10.131  10.772   6.688 -0.2934  0.1248  0.0405
  713POPI   C1B10319   8.981  10.911   6.237 -0.0871 -0.1389 -0.0291
  713POPI   C2B10320   8.771  11.158   6.609 -0.3199  0.4408  0.3056
  713POPI   C3B10321   8.535  11.072   6.955 -0.1493 -0.1311  0.0257
  713POPI   C4B10322   8.253  10.850   7.247  0.2205 -0.1116  0.2256
  714POPI    C110323  17.311  12.053   5.468  0.2917 -0.0784 -0.2848
  714POPI    C210324  17.193  12.349   5.225  0.2064 -0.0545 -0.2147
  714POPI    C310325  17.340  12.010   5.071  0.4041  0.0648 -0.2931
  714POPI   PO410326  17.552  12.187   5.669  0.0159  0.3354 -0.1299
  714POPI   GL110327  17.754  12.223   6.108 -0.0744  0.1557 -0.1284
  714POPI   GL210328  17.545  11.995   6.121 -0.0372 -0.2575 -0.0186
  714POPI   C1A10329  18.042  11.894   6.192  0.0556  0.0029 -0.2120
  714POPI   D2A10330  18.519  11.772   6.259 -0.2870 -0.0447 -0.0433
  714POPI   C3A10331  18.892  11.577   6.400  0.0982  0.0032 -0.1258
  714POPI   C4A10332  19.328  11.527   6.307 -0.1515 -0.2379  0.0900
  714POPI   C1B10333  17.297  12.221   6.506  0.0634 -0.3193 -0.2593
  714POPI   C2B10334  17.137  12.109   6.953 -0.0301  0.1577  0.0900
  714POPI   C3B10335  16.903  11.996   7.362 -0.1669 -0.3100  0.1601
  714POPI   C4B10336  16.767  12.145   7.743  0.1389  0.1967  0.0701
  715POPI    C110337  17.019   6.308   5.871  0.0780  0.0790  0.1379
  715POPI    C210338  17.002   6.448   5.497 -0.1545  0.0168  0.1242
  715POPI    C310339  17.199   6.653   5.778 -0.1357  0.1574  0.0096
  715POPI   PO410340  16.774   6.293   5.969 -0.0783  0.0050  0.0657
  715POPI   GL110341  16.703   6.367   6.403  0.1913 -0.3102  0.3211
  715POPI   GL210342  16.761   6.138   6.431 -0.2541  0.1635 -0.0866
  715POPI   C1A10343  16.586   6.539   6.761  0.3887 -0.0943 -0.1138
  715POPI   D2A10344  16.738   6.506   7.148  0.0996  0.0304 -0.0091
  715POPI   C3A10345  16.778   6.741   7.461 -0.1828  0.0213 -0.4852
  715POPI   C4A10346  16.967   6.923   7.863 -0.1135  0.1140  0.1865
  715POPI   C1B10347  16.733   6.066   6.873  0.3079  0.2815  0.3943
  715POPI   C2B10348  16.705   5.932   7.263  0.1194  0.1370  0.0008
  715POPI   C3B10349  16.550   5.845   7.665  0.0383  0.3977 -0.0523
  715POPI   C4B10350  16.621   5.659   8.028 -0.0963 -0.0626  0.0956
  716POPI    C110351  11.617   2.735   5.935  0.1308  0.0556 -0.2675
  716POPI    C210352  11.354   2.505   5.740  0.0573 -0.0999  0.0080
  716POPI    C310353  11.224   2.790   5.987  0.1451 -0.2318  0.2087
  716POPI   PO410354  11.810   2.891   5.867  0.2817 -0.1597 -0.0915
  716POPI   GL110355  12.176   2.924   6.089  0.0859 -0.3230  0.0274
  716POPI   GL210356  12.396   2.754   5.987 -0.0334 -0.0224 -0.1230
  716POPI   C1A10357  12.091   2.834   6.489  0.0025 -0.2783 -0.2566
  716POPI   D2A10358  12.225   2.768   6.901 -0.2288  0.1084  0.0611
  716POPI   C3A10359  12.068   2.794   7.318 -0.0010 -0.0592  0.3944
  716POPI   C4A10360  11.809   2.699   7.520 -0.3592 -0.1920  0.0535
  716POPI   C1B10361  12.595   2.819   6.378  0.0819 -0.1326  0.0777
  716POPI   C2B10362  12.704   2.668   6.752 -0.0917  0.1133  0.0373
  716POPI   C3B10363  12.640   2.698   7.197  0.1336 -0.2324 -0.1023
  716POPI   C4B10364  12.450   2.380   7.402  0.1390  0.0035  0.1437
  717POPI    C110365   8.460  15.259   4.889 -0.0506 -0.2705  0.1050
  717POPI    C210366   8.342  15.404   4.536 -0.1336  0.0015  0.2413
  717POPI    C310367   8.732  15.369   4.618 -0.1133 -0.2493  0.0507
  717POPI   PO410368   8.346  15.048   4.952  0.1888  0.0192 -0.1210
  717POPI   GL110369   8.363  14.955   5.343 -0.0166  0.0447 -0.1088
  717POPI   GL210370   8.259  14.655   5.358 -0.3116  0.1558 -0.5062
  717POPI   C1A10371   8.253  15.119   5.758  0.1944 -0.0935 -0.2455
  717POPI   D2A10372   8.327  15.392   6.151  0.0089 -0.2489 -0.0383
  717POPI   C3A10373   8.146  15.117   6.474  0.0556 -0.4403 -0.0567
  717POPI   C4A10374   7.827  14.992   6.856 -0.1167  0.1611 -0.1285
  717POPI   C1B10375   7.965  14.710   5.644  0.0188 -0.1114  0.0479
  717POPI   C2B10376   7.610  14.635   5.857 -0.0035  0.0239 -0.0198
  717POPI   C3B10377   7.301  14.698   6.271  0.2173 -0.0991 -0.2718
  717POPI   C4B10378   7.367  14.739   6.696 -0.3151 -0.2227 -0.1766
  718POPI    C110379   1.036  17.911   5.471 -0.2649  0.0872 -0.1908
  718POPI    C210380   1.110  17.858   5.082  0.0580  0.1632 -0.1424
  718POPI    C310381   1.163  17.555   5.338  0.3385  0.2537 -0.0896
  718POPI   PO410382   1.012  18.216   5.489 -0.3229 -0.1253 -0.0712
  718POPI   GL110383   0.993  18.437   5.884 -0.1662 -0.0234  0.0112
  718POPI   GL210384   1.222  18.542   6.013  0.1898  0.4244 -0.2795
  718POPI   C1A10385   0.669  18.420   6.246  0.0382 -0.1888 -0.0343
  718POPI   D2A10386   0.668  18.357   6.669  0.0435  0.2957  0.0660
  718POPI   C3A10387   0.689  18.404   7.055  0.1498  0.0002 -0.1891
  718POPI   C4A10388   0.521  18.511   7.498  0.0209 -0.0297 -0.1390
  718POPI   C1B10389   1.186  18.557   6.327  0.1547  0.1121 -0.0526
  718POPI   C2B10390   1.124  18.593   6.817  0.0192  0.0791  0.1933
  718POPI   C3B10391   1.236  18.511   7.176 -0.0091  0.0535 -0.1111
  718POPI   C4B10392   1.016  18.202   7.444  0.0386 -0.1267  0.0683
  719POPI    C110393  11.097   8.517   5.507 -0.2580  0.1276 -0.0460
  719POPI    C210394  10.964   8.201   5.301  0.3380 -0.0877 -0.1214
  719POPI    C310395  11.019   8.552   5.116 -0.3707  0.0882 -0.0274
  719POPI   PO410396  10.981   8.583   5.784  0.1254  0.3446 -0.0053
  719POPI   GL110397  11.093   8.808   6.101 -0.1965  0.3277 -0.0794
  719POPI   GL210398  11.257   8.508   6.192  0.0769 -0.3682  0.1381
  719POPI   C1A10399  10.893   8.932   6.428  0.3198  0.1197  0.3084
  719POPI   D2A10400  10.609   8.617   6.671 -0.1242 -0.1173  0.0954
  719POPI   C3A10401  10.684   8.437   7.099 -0.1562  0.2993  0.3102
  719POPI   C4A10402  10.633   8.175   7.376  0.3736  0.2887 -0.2659
  719POPI   C1B10403  11.382   8.759   6.500 -0.1667 -0.0700  0.0574
  719POPI   C2B10404  11.657   9.010   6.878  0.0906  0.0240 -0.1406
  719POPI   C3B10405  11.351   8.973   7.302 -0.2808  0.1135 -0.2659
  719POPI   C4B10406  11.505   8.896   7.706  0.4873  0.0060  0.0562
  720POPI    C110407  10.601   8.571   5.389  0.1414 -0.0941 -0.0681
  720POPI    C210408  10.260   8.592   5.181  0.1774 -0.2596 -0.1457
  720POPI    C310409  10.501   8.276   5.138  0.2797 -0.2029  0.0034
  720POPI   PO410410  10.382   8.617   5.715  0.3935 -0.0122  0.0187
  720POPI   GL110411   9.884   8.563   5.853 -0.1387 -0.1827  0.2116
  720POPI   GL210412   9.549   8.789   5.701  0.2581 -0.0704  0.0255
  720POPI   C1A10413   9.854   8.330   6.233 -0.0694 -0.1348 -0.2413
  720POPI   D2A10414   9.892   8.118   6.705 -0.0851  0.3960 -0.3466
  720POPI   C3A10415   9.568   8.277   6.959  0.0662 -0.0525 -0.0017
  720POPI   C4A10416   9.581   8.470   7.355  0.1001 -0.0816 -0.1197
  720POPI   C1B10417   9.797   8.921   6.156 -0.2239  0.2543  0.2106
  720POPI   C2B10418   9.971   9.170   6.598  0.1541  0.1630  0.0468
  720POPI   C3B10419   9.973   9.544   6.719  0.3204  0.1295 -0.2566
  720POPI   C4B10420   9.884   9.902   6.637 -0.0826 -0.2680  0.3990
  721POPI    C110421  17.861  13.925   5.875 -0.0082  0.1401 -0.0471
  721POPI    C210422  18.094  14.249   5.905 -0.2742  0.3312 -0.0077
  721POPI    C310423  17.723  14.283   5.759 -0.3255  0.0535  0.0532
  721POPI   PO410424  17.974  13.842   6.136  0.1065  0.1855 -0.3205
  721POPI   GL110425  17.965  14.089   6.516 -0.0145 -0.1082  0.0213
  721POPI   GL210426  18.158  13.998   6.658 -0.2420 -0.2402 -0.2125
  721POPI   C1A10427  17.900  14.454   6.746 -0.3729 -0.1662  0.0887
  721POPI   D2A10428  17.933  14.795   7.010 -0.1370  0.0182  0.0920
  721POPI   C3A10429  17.701  14.950   7.361 -0.2234 -0.5255 -0.0885
  721POPI   C4A10430  17.575  15.329   7.529  0.0661 -0.2663 -0.1198
  721POPI   C1B10431  17.961  13.917   6.944 -0.0272  0.1199 -0.3412
  721POPI   C2B10432  17.974  13.847   7.369  0.1825 -0.0464  0.1470
  721POPI   C3B10433  18.217  13.817   7.723  0.2307  0.2483 -0.0942
  721POPI   C4B10434  18.216  13.446   7.880 -0.2672 -0.0416 -0.1788
  722POPI    C110435  16.285  17.298   5.524  0.2589 -0.1544  0.0878
  722POPI    C210436  16.156  16.968   5.338  0.2030 -0.1639  0.1427
  722POPI    C310437  15.894  17.218   5.506  0.2140  0.1175 -0.2436
  722POPI   PO410438  16.545  17.128   5.756 -0.3435 -0.0965 -0.0221
  722POPI   GL110439  16.547  17.001   6.277 -0.0300 -0.0218 -0.0241
  722POPI   GL210440  16.309  17.012   6.376 -0.1375 -0.1747 -0.0807
  722POPI   C1A10441  16.617  16.987   6.781  0.5654 -0.0798 -0.2105
  722POPI   D2A10442  16.845  16.811   7.134 -0.0250 -0.0734  0.5007
  722POPI   C3A10443  16.846  16.880   7.524 -0.0183  0.1992 -0.2032
  722POPI   C4A10444  16.773  16.574   7.835  0.0979 -0.1642 -0.2114
  722POPI   C1B10445  16.034  16.993   6.643 -0.1792 -0.2119  0.0609
  722POPI   C2B10446  16.087  16.995   7.071  0.1652  0.1189  0.0177
  722POPI   C3B10447  16.220  17.165   7.299 -0.1552 -0.1405 -0.1714
  722POPI   C4B10448  16.402  17.139   7.635  0.2709  0.0254 -0.0197
  723POPI    C110449   3.521   4.522   5.380 -0.2401 -0.2742  0.1574
  723POPI    C210450   3.376   4.501   5.008  0.0349 -0.0219  0.0325
  723POPI    C310451   3.659   4.245   5.127  0.0920  0.0261  0.0008
  723POPI   PO410452   3.266   4.662   5.570  0.1832 -0.1710  0.0952
  723POPI   GL110453   3.249   4.693   5.998  0.2626  0.1811  0.1983
  723POPI   GL210454   2.936   4.881   5.950  0.0915  0.2813  0.2469
  723POPI   C1A10455   3.574   4.710   6.266 -0.1396  0.0629 -0.3442
  723POPI   D2A10456   3.722   4.784   6.658  0.3631  0.1388  0.2048
  723POPI   C3A10457   3.583   4.903   7.005 -0.1900  0.2017 -0.0487
  723POPI   C4A10458   3.196   4.820   7.227  0.0489 -0.1274  0.0480
  723POPI   C1B10459   2.973   4.773   6.369 -0.0975  0.0255 -0.1273
  723POPI   C2B10460   3.105   5.012   6.723 -0.1566  0.0717 -0.2371
  723POPI   C3B10461   3.295   5.316   7.034  0.0641  0.0542  0.0231
  723POPI   C4B10462   3.639   5.516   7.219  0.0352  0.0887  0.3968
  724POPI    C110463  18.475  15.761   5.721 -0.0115 -0.3484 -0.2844
  724POPI    C210464  18.082  15.718   5.786 -0.0068 -0.0408 -0.0237
  724POPI    C310465  18.212  15.957   5.493 -0.0129  0.0777  0.0697
  724POPI   PO410466  18.544  15.856   6.070 -0.1839 -0.0123 -0.2875
  724POPI   GL110467  18.667  15.981   6.503  0.3886 -0.0467 -0.0321
  724POPI   GL210468  18.986  15.765   6.436  0.2174  0.0900 -0.0356
  724POPI   C1A10469  18.791  16.139   6.994 -0.1401  0.3425 -0.0327
  724POPI   D2A10470  19.106  16.082   7.329  0.2275 -0.1383 -0.1838
  724POPI   C3A10471  19.129  16.160   7.776 -0.1064 -0.0616  0.0105
  724POPI   C4A10472  19.297  16.350   8.054 -0.3351 -0.2571 -0.1114
  724POPI   C1B10473  18.915  15.632   6.893  0.0347 -0.1395  0.0919
  724POPI   C2B10474  19.171  15.630   7.310  0.3322 -0.1745  0.2299
  724POPI   C3B10475  19.434  15.844   7.619 -0.1236 -0.0896  0.2471
  724POPI   C4B10476  19.678  16.090   7.925 -0.1044 -0.2028  0.0937
  725POPI    C110477  16.513   0.924   5.384 -0.1162  0.0201  0.0451
  725POPI    C210478  16.849   0.725   5.298 -0.0821  0.0504  0.1081
  725POPI    C310479  16.665   0.939   5.015  0.0135  0.1249  0.1016
  725POPI   PO410480  16.550   0.845   5.633  0.3967 -0.1268 -0.1918
  725POPI   GL110481  16.404   0.999   5.990  0.1398 -0.2121 -0.0330
  725POPI   GL210482  16.510   0.784   6.084 -0.2552  0.2393  0.1348
  725POPI   C1A10483  16.214   1.002   6.420 -0.1347 -0.0392  0.1635
  725POPI   D2A10484  16.317   1.135   6.828  0.1921  0.0702 -0.3658
  725POPI   C3A10485  16.545   0.934   7.191 -0.0514 -0.0011  0.0138
  725POPI   C4A10486  16.776   0.682   7.552  0.1824  0.0267  0.1755
  725POPI   C1B10487  16.605   0.688   6.511  0.0879 -0.2283 -0.4478
  725POPI   C2B10488  16.433   0.578   6.862  0.1038  0.1343  0.2810
  725POPI   C3B10489  16.347   0.511   7.240 -0.0566 -0.0309  0.1905
  725POPI   C4B10490  16.119   0.756   7.526 -0.0027 -0.1374 -0.1920
  726POPI    C110491  19.008  11.943   5.478  0.0551  0.0146  0.0468
  726POPI    C210492  19.228  12.157   5.221 -0.0432 -0.0167 -0.0641
  726POPI    C310493  18.858  12.041   5.120 -0.0828 -0.0284  0.0923
  726POPI   PO410494  19.201  11.798   5.634  0.0711 -0.0183 -0.3896
  726POPI   GL110495  19.415  11.882   6.014  0.2408  0.1143  0.1548
  726POPI   GL210496  19.682  12.197   6.049  0.0406  0.0392  0.2403
  726POPI   C1A10497  19.192  11.985   6.369 -0.1615  0.0158 -0.2120
  726POPI   D2A10498  18.832  11.969   6.661 -0.2071  0.2584  0.0069
  726POPI   C3A10499  18.569  11.627   6.811  0.2173  0.0947 -0.1340
  726POPI   C4A10500  18.144  11.576   6.715  0.1145  0.2378  0.0072
  726POPI   C1B10501  19.416  12.460   6.428 -0.1459 -0.1237  0.0896
  726POPI   C2B10502  19.551  12.433   6.828 -0.3213 -0.1362  0.0381
  726POPI   C3B10503  19.675  12.249   7.298  0.1639 -0.1994  0.0273
  726POPI   C4B10504  19.488  12.130   7.632  0.0849 -0.2697 -0.7322
  727POPI    C110505   0.570   3.339   5.587  0.0147 -0.0770 -0.0087
  727POPI    C210506   0.892   3.105   5.624  0.1060  0.0988  0.3479
  727POPI    C310507   0.936   3.494   5.543 -0.0315  0.0635  0.0955
  727POPI   PO410508   0.410   3.228   5.896  0.1640  0.2903 -0.1055
  727POPI   GL110509   0.452   3.361   6.374 -0.2484 -0.0436 -0.0455
  727POPI   GL210510   0.496   3.037   6.389 -0.0854 -0.2452  0.0124
  727POPI   C1A10511   0.488   3.411   6.790  0.3480  0.1305 -0.1932
  727POPI   D2A10512   0.287   3.562   7.247  0.0968 -0.0723  0.0994
  727POPI   C3A10513   0.157   3.190   7.424  0.2030 -0.3081 -0.0175
  727POPI   C4A10514  -0.204   2.877   7.516  0.2438 -0.4049  0.0843
  727POPI   C1B10515   0.256   2.989   6.735 -0.2150 -0.1955  0.2674
  727POPI   C2B10516   0.184   2.841   7.053  0.0287  0.3103  0.0016
  727POPI   C3B10517   0.252   2.477   7.478  0.4741  0.3028  0.0082
  727POPI   C4B10518   0.506   2.189   7.620 -0.0001 -0.0211 -0.5990
  728POPI    C110519   4.757   2.540   5.223 -0.0370  0.1446 -0.3113
  728POPI    C210520   4.766   2.409   4.845 -0.1017  0.1155 -0.3028
  728POPI    C310521   4.608   2.767   4.929 -0.1794  0.0787 -0.2911
  728POPI   PO410522   5.034   2.530   5.302 -0.1734  0.2383  0.0802
  728POPI   GL110523   5.401   2.758   5.392  0.3564 -0.1182  0.1367
  728POPI   GL210524   5.458   2.421   5.579  0.1597  0.0147 -0.1048
  728POPI   C1A10525   5.690   2.821   5.776 -0.2157  0.0722 -0.2221
  728POPI   D2A10526   5.700   2.852   6.156 -0.0194  0.0267  0.1260
  728POPI   C3A10527   5.451   2.699   6.457 -0.1894  0.0546 -0.2142
  728POPI   C4A10528   5.242   2.366   6.622  0.0191  0.0413  0.1171
  728POPI   C1B10529   5.271   2.611   5.998  0.2112 -0.0061 -0.2586
  728POPI   C2B10530   4.937   2.737   6.379 -0.4321  0.1329  0.2094
  728POPI   C3B10531   5.030   2.803   6.859  0.1141 -0.1294  0.2169
  728POPI   C4B10532   5.388   2.670   7.231 -0.0912  0.4572  0.1299
  729POPI    C110533   9.313   5.864   4.885  0.1618  0.0837 -0.1590
  729POPI    C210534   8.977   5.721   4.722  0.0988  0.1599 -0.0969
  729POPI    C310535   9.328   5.666   4.538  0.0943 -0.1952 -0.0055
  729POPI   PO410536   9.395   5.839   5.105 -0.3014  0.0135  0.1173
  729POPI   GL110537   9.261   5.916   5.496  0.2324 -0.1912  0.0206
  729POPI   GL210538   9.415   5.935   5.780  0.0721 -0.0478  0.1167
  729POPI   C1A10539   8.999   5.580   5.818 -0.0592 -0.1122  0.0978
  729POPI   D2A10540   8.794   5.077   5.970 -0.1103 -0.0080 -0.2519
  729POPI   C3A10541   8.952   4.918   6.327 -0.1567 -0.2161  0.2004
  729POPI   C4A10542   9.238   4.997   6.662  0.0463 -0.1770  0.2463
  729POPI   C1B10543   9.377   5.858   6.224 -0.1800  0.1072  0.0724
  729POPI   C2B10544   9.261   6.063   6.671 -0.3894  0.2007  0.1283
  729POPI   C3B10545   8.849   6.147   6.804 -0.2507 -0.0494  0.5544
  729POPI   C4B10546   8.557   6.183   7.177 -0.3706 -0.1510 -0.1743
  730POPI    C110547   0.897   7.630   5.358  0.1740 -0.0139  0.0382
  730POPI    C210548   1.157   7.371   5.519 -0.0069 -0.0862  0.2187
  730POPI    C310549   0.877   7.242   5.264  0.1431 -0.0053  0.0093
  730POPI   PO410550   1.061   7.888   5.498 -0.1462 -0.0865  0.0453
  730POPI   GL110551   1.206   8.146   5.770 -0.2593  0.0912 -0.0661
  730POPI   GL210552   0.938   8.159   5.961 -0.2212 -0.1027  0.3398
  730POPI   C1A10553   1.323   7.907   6.126  0.0525  0.2698 -0.0329
  730POPI   D2A10554   1.368   7.663   6.426 -0.1783  0.0325  0.2299
  730POPI   C3A10555   1.606   7.628   6.870  0.0746  0.1503  0.4359
  730POPI   C4A10556   1.467   7.721   7.229 -0.1355  0.2921  0.1961
  730POPI   C1B10557   0.766   8.270   6.387  0.1010 -0.1822 -0.0249
  730POPI   C2B10558   0.686   8.512   6.711 -0.0131  0.1249  0.0680
  730POPI   C3B10559   0.555   8.654   7.104  0.2429 -0.0539  0.3036
  730POPI   C4B10560   0.468   8.932   7.332 -0.0240 -0.1409  0.0384
  731POPI    C110561   6.844  12.363   5.035 -0.0856 -0.0486 -0.0619
  731POPI    C210562   7.201  12.194   4.973 -0.1156 -0.1872  0.1357
  731POPI    C310563   6.893  12.100   4.737 -0.0484 -0.1491  0.0322
  731POPI   PO410564   6.940  12.529   5.249 -0.0599  0.0349  0.0187
  731POPI   GL110565   7.141  12.294   5.530 -0.1119 -0.0382  0.3702
  731POPI   GL210566   7.270  11.940   5.539  0.1042 -0.0284 -0.1106
  731POPI   C1A10567   7.442  12.307   5.900 -0.1476 -0.2515  0.1489
  731POPI   D2A10568   7.300  12.469   6.369  0.1977  0.2381  0.1706
  731POPI   C3A10569   7.464  12.647   6.665 -0.0597 -0.0825  0.1731
  731POPI   C4A10570   7.778  12.833   6.917  0.1527  0.0437 -0.0445
  731POPI   C1B10571   7.276  11.781   5.962 -0.3833  0.0289 -0.0272
  731POPI   C2B10572   7.507  11.955   6.243 -0.2518 -0.1222 -0.1257
  731POPI   C3B10573   7.498  12.109   6.686  0.0151 -0.0421  0.1486
  731POPI   C4B10574   7.147  12.274   6.919 -0.0182 -0.0327  0.0964
  732POPI    C110575  13.482  12.492   5.592  0.0580  0.0045  0.1042
  732POPI    C210576  13.342  12.174   5.395  0.0593  0.0110  0.0928
  732POPI    C310577  13.170  12.289   5.738  0.0455  0.0107  0.0860
  732POPI   PO410578  13.734  12.486   5.615 -0.0626 -0.1641  0.0336
  732POPI   GL110579  14.002  12.592   5.978  0.0657 -0.1228  0.0305
  732POPI   GL210580  14.059  12.864   5.847 -0.0303  0.2234 -0.0379
  732POPI   C1A10581  14.020  12.409   6.263  0.0941 -0.3199 -0.0187
  732POPI   D2A10582  13.616  12.307   6.627  0.3948  0.7397 -0.1078
  732POPI   C3A10583  13.589  11.917   6.867  0.0835  0.0687  0.0884
  732POPI   C4A10584  13.400  11.857   7.351  0.0228 -0.1179  0.0920
  732POPI   C1B10585  14.146  13.022   6.310 -0.0788 -0.0509 -0.2254
  732POPI   C2B10586  14.176  12.744   6.563 -0.1306 -0.2206  0.1158
  732POPI   C3B10587  13.987  12.585   6.952 -0.3216 -0.1910 -0.1994
  732POPI   C4B10588  13.981  12.650   7.428 -0.0123 -0.0464  0.0061
  733POPI    C110589   5.446   3.295   4.959  0.0993 -0.0776  0.0406
  733POPI    C210590   5.547   2.916   4.879  0.1693 -0.0889  0.1795
  733POPI    C310591   5.785   3.216   4.761 -0.2296 -0.0397 -0.5628
  733POPI   PO410592   5.354   3.284   5.285 -0.2199  0.2175  0.1069
  733POPI   GL110593   5.517   3.437   5.635  0.1713  0.2372 -0.0015
  733POPI   GL210594   5.867   3.351   5.746  0.0495 -0.0573  0.0063
  733POPI   C1A10595   5.246   3.136   5.936  0.1790 -0.0585 -0.1626
  733POPI   D2A10596   4.824   3.038   5.977  0.0596 -0.1632  0.3597
  733POPI   C3A10597   4.593   3.093   6.323  0.0163  0.0730  0.2204
  733POPI   C4A10598   4.573   3.236   6.740  0.2391  0.0689 -0.0216
  733POPI   C1B10599   5.781   3.402   6.172  0.4171 -0.3972 -0.3086
  733POPI   C2B10600   5.848   3.177   6.539  0.0582 -0.0416 -0.2791
  733POPI   C3B10601   6.049   3.134   6.996  0.0061 -0.0931 -0.3451
  733POPI   C4B10602   6.300   3.143   7.348  0.1502 -0.1815  0.0357
  734POPI    C110603  15.767   1.520   5.501  0.0230  0.0605 -0.0187
  734POPI    C210604  15.509   1.217   5.544  0.1942 -0.1000 -0.1112
  734POPI    C310605  15.732   1.246   5.213  0.3137  0.0232 -0.0212
  734POPI   PO410606  15.931   1.520   5.687  0.0192  0.0069 -0.0318
  734POPI   GL110607  15.937   1.713   6.048 -0.2433 -0.2622 -0.5558
  734POPI   GL210608  16.143   1.955   5.923 -0.1479  0.0722 -0.0965
  734POPI   C1A10609  15.628   1.737   6.474  0.2760  0.3496  0.0199
  734POPI   D2A10610  15.761   1.719   6.921  0.0161 -0.1432 -0.1549
  734POPI   C3A10611  15.499   1.687   7.342 -0.1967 -0.1536 -0.1670
  734POPI   C4A10612  15.054   1.595   7.449  0.1197  0.0808 -0.0421
  734POPI   C1B10613  16.405   1.962   6.281  0.1855 -0.0241  0.0943
  734POPI   C2B10614  16.586   2.175   6.566  0.1567 -0.0347 -0.0972
  734POPI   C3B10615  16.810   2.079   6.923 -0.0973  0.0325 -0.2635
  734POPI   C4B10616  16.946   2.226   7.329  0.0366 -0.2585  0.2724
  735POPI    C110617   6.358  14.717   4.584 -0.0292 -0.1594  0.0615
  735POPI    C210618   6.186  14.740   4.224 -0.0284 -0.0310  0.0689
  735POPI    C310619   6.317  15.072   4.404  0.2000 -0.1235  0.0766
  735POPI   PO410620   6.144  14.539   4.735  0.1665  0.2589  0.0549
  735POPI   GL110621   6.126  14.480   5.154 -0.1996  0.2132 -0.2596
  735POPI   GL210622   5.851  14.305   5.160  0.0559  0.1258 -0.1660
  735POPI   C1A10623   6.375  14.570   5.527  0.1919  0.0195 -0.0378
  735POPI   D2A10624   6.588  14.509   5.886 -0.0717  0.1997  0.4123
  735POPI   C3A10625   6.695  14.153   6.192  0.0456  0.3404 -0.0517
  735POPI   C4A10626   6.656  13.835   6.566  0.1352  0.0422  0.0442
  735POPI   C1B10627   5.788  14.584   5.541  0.0493 -0.0294 -0.0250
  735POPI   C2B10628   5.757  14.771   5.912 -0.2113  0.4201  0.1002
  735POPI   C3B10629   5.879  14.793   6.352  0.1889 -0.3035 -0.0480
  735POPI   C4B10630   6.007  14.623   6.750  0.0334 -0.3929  0.1078
  736POPI    C110631   0.536  18.080   5.406  0.0373 -0.2530  0.1109
  736POPI    C210632   0.355  17.877   5.113 -0.1373  0.1996 -0.1052
  736POPI    C310633   0.672  18.105   5.031  0.0511  0.0285  0.1329
  736POPI   PO410634   0.319  18.024   5.632 -0.2336  0.1939 -0.0005
  736POPI   GL110635   0.392  18.022   6.063 -0.0624  0.0383 -0.2061
  736POPI   GL210636   0.773  18.006   5.939 -0.1909  0.2029 -0.0659
  736POPI   C1A10637   0.223  18.154   6.371  0.0161  0.2881 -0.0059
  736POPI   D2A10638   0.239  18.012   6.663 -0.2435  0.1986 -0.1345
  736POPI   C3A10639   0.271  18.185   6.979  0.0964  0.0866  0.4821
  736POPI   C4A10640   0.283  18.606   7.054  0.2010  0.0388  0.2875
  736POPI   C1B10641   0.648  17.809   6.468 -0.2697  0.2121  0.2336
  736POPI   C2B10642   0.727  17.921   6.895  0.0449 -0.0902  0.2160
  736POPI   C3B10643   0.672  17.895   7.272 -0.1349  0.1806 -0.0985
  736POPI   C4B10644   0.844  17.633   7.575 -0.2859 -0.1841  0.0297
  737POPI    C110645  11.039  14.531   4.891 -0.1199 -0.0110 -0.0596
  737POPI    C210646  11.153  14.265   4.615  0.0019  0.0073 -0.0273
  737POPI    C310647  11.318  14.630   4.622 -0.0173  0.0146  0.0552
  737POPI   PO410648  11.081  14.410   5.071  0.2289 -0.2199  0.0687
  737POPI   GL110649  11.212  14.392   5.597 -0.0928  0.1979  0.3432
  737POPI   GL210650  11.476  14.552   5.737  0.0592  0.0698  0.0451
  737POPI   C1A10651  11.245  14.016   5.986  0.0583 -0.1244 -0.2024
  737POPI   D2A10652  11.239  13.458   5.967 -0.0439 -0.0872 -0.0118
  737POPI   C3A10653  10.813  13.259   6.232 -0.1404 -0.0272 -0.3094
  737POPI   C4A10654  10.500  13.052   6.495 -0.1871 -0.1616 -0.3117
  737POPI   C1B10655  11.553  14.278   6.228  0.0615 -0.0989 -0.1815
  737POPI   C2B10656  11.548  14.498   6.527  0.1931 -0.1944  0.1006
  737POPI   C3B10657  11.742  14.424   6.860 -0.1279  0.0270  0.1790
  737POPI   C4B10658  11.764  14.504   7.316  0.1383  0.1732  0.1961
  738POPI    C110659  15.970  10.521   5.383  0.1243  0.1562  0.2122
  738POPI    C210660  16.219  10.824   5.460  0.0760  0.3962 -0.5000
  738POPI    C310661  16.360  10.483   5.306  0.0625  0.2331 -0.1597
  738POPI   PO410662  15.720  10.550   5.714 -0.2127 -0.0410 -0.2435
  738POPI   GL110663  15.703  10.541   6.187  0.0384 -0.1571 -0.0937
  738POPI   GL210664  15.788  10.842   6.225  0.0694 -0.0223 -0.2569
  738POPI   C1A10665  15.352  10.318   6.412 -0.0364 -0.1764  0.1370
  738POPI   D2A10666  14.996  10.279   6.511 -0.2305 -0.1802 -0.1287
  738POPI   C3A10667  14.873  10.289   6.855  0.0895 -0.0589  0.0955
  738POPI   C4A10668  14.602  10.235   7.171  0.0489  0.0184  0.4066
  738POPI   C1B10669  15.636  10.736   6.651  0.1074 -0.3570  0.2361
  738POPI   C2B10670  15.578  10.931   7.036 -0.0040  0.3100  0.1308
  738POPI   C3B10671  15.725  11.384   6.905  0.3906 -0.0616  0.1613
  738POPI   C4B10672  15.653  11.651   7.279 -0.1447  0.2576  0.3180
  739POPI    C110673   5.762   3.706   4.772  0.0996 -0.1660  0.1352
  739POPI    C210674   5.806   3.997   4.501 -0.2051 -0.1417  0.1083
  739POPI    C310675   6.010   3.655   4.462  0.0489  0.0125  0.0641
  739POPI   PO410676   5.623   3.915   4.969 -0.1901  0.0013  0.0232
  739POPI   GL110677   5.674   3.942   5.476 -0.0519  0.0489 -0.3537
  739POPI   GL210678   5.264   3.858   5.515  0.0188 -0.1978 -0.1722
  739POPI   C1A10679   5.534   4.263   5.731 -0.2384  0.1741 -0.1044
  739POPI   D2A10680   5.316   4.408   6.038 -0.1252  0.3455  0.0803
  739POPI   C3A10681   5.023   4.086   6.177 -0.3901  0.0741 -0.1343
  739POPI   C4A10682   4.977   4.058   6.596  0.2571  0.2591  0.4372
  739POPI   C1B10683   5.510   3.838   5.975  0.0481  0.1985  0.0757
  739POPI   C2B10684   5.459   4.009   6.443 -0.1394  0.1934  0.1666
  739POPI   C3B10685   5.400   3.933   6.885 -0.2084 -0.1817 -0.1744
  739POPI   C4B10686   5.273   3.920   7.320  0.3677 -0.2193  0.0222
  740POPI    C110687  13.864   0.997   5.904  0.1321  0.1368 -0.0758
  740POPI    C210688  13.710   1.045   5.538  0.1971 -0.0828 -0.1334
  740POPI    C310689  13.721   0.681   5.705 -0.0089  0.0448  0.1669
  740POPI   PO410690  13.723   1.214   6.018  0.1314  0.2399 -0.0791
  740POPI   GL110691  13.304   1.196   6.317  0.0562 -0.1816  0.2130
  740POPI   GL210692  12.989   1.008   6.392  0.3344  0.1400 -0.2168
  740POPI   C1A10693  13.406   1.336   6.798 -0.0040 -0.1225  0.1195
  740POPI   D2A10694  13.775   1.446   7.006  0.0561  0.1509 -0.1915
  740POPI   C3A10695  13.691   1.660   7.367  0.0655  0.2716 -0.1279
  740POPI   C4A10696  13.386   1.683   7.704 -0.1597 -0.0260  0.0112
  740POPI   C1B10697  13.216   0.829   6.783  0.1783 -0.0132 -0.1005
  740POPI   C2B10698  13.285   0.783   7.211 -0.1963 -0.2290 -0.2171
  740POPI   C3B10699  13.303   0.873   7.631  0.4090 -0.1061 -0.0853
  740POPI   C4B10700  13.367   1.198   7.890 -0.0112  0.0630  0.2805
  741POPI    C110701   9.844   7.916   5.875  0.0142  0.0776 -0.0844
  741POPI    C210702   9.678   7.923   5.511  0.0965  0.1672 -0.1207
  741POPI    C310703   9.502   8.114   5.815 -0.0990 -0.1072 -0.0574
  741POPI   PO410704   9.976   7.654   5.941  0.0172  0.0936  0.2851
  741POPI   GL110705   9.781   7.439   6.198  0.2301 -0.0211 -0.1554
  741POPI   GL210706   9.689   7.742   6.314  0.1048  0.2671 -0.1240
  741POPI   C1A10707   9.832   7.112   6.541 -0.1973 -0.1271 -0.0886
  741POPI   D2A10708  10.005   6.872   6.908 -0.2339  0.0788  0.4108
  741POPI   C3A10709  10.320   6.627   6.851  0.0200  0.0916 -0.0778
  741POPI   C4A10710  10.762   6.720   7.036  0.2871 -0.0467 -0.1494
  741POPI   C1B10711   9.758   7.615   6.657 -0.1948  0.0392  0.2706
  741POPI   C2B10712   9.678   7.362   6.979 -0.1063  0.1443 -0.1875
  741POPI   C3B10713   9.671   7.043   7.315  0.0705 -0.1408  0.0826
  741POPI   C4B10714   9.430   6.908   7.729 -0.0869 -0.2301  0.0131
  742POPS   CNO10715  18.137  10.359   5.597  0.0681 -0.1127  0.2475
  742POPS   PO410716  18.493  10.629   5.662  0.0869 -0.1367  0.3282
  742POPS   GL110717  18.463  10.606   6.060  0.3520  0.2122  0.0676
  742POPS   GL210718  18.132  10.737   6.077  0.2911  0.3078  0.1100
  742POPS   C1A10719  18.517  10.622   6.486  0.0690 -0.0243 -0.0119
  742POPS   D2A10720  18.549  10.517   6.864 -0.1008  0.4017  0.1297
  742POPS   C3A10721  18.853  10.756   7.320 -0.1423 -0.0304 -0.4018
  742POPS   C4A10722  18.836  11.051   7.563  0.2248 -0.2105  0.2097
  742POPS   C1B10723  17.985  10.610   6.462  0.0858  0.2612 -0.2778
  742POPS   C2B10724  18.049  10.591   6.908 -0.1777  0.0559  0.2384
  742POPS   C3B10725  17.987  10.661   7.413  0.2095 -0.0269 -0.0910
  742POPS   C4B10726  17.612  10.758   7.558  0.1458 -0.2997 -0.0941
  743POPS   CNO10727  16.526  12.595   5.943 -0.1797  0.0503  0.0148
  743POPS   PO410728  16.945  12.764   5.901 -0.0482  0.1123  0.2701
  743POPS   GL110729  17.033  12.639   6.294  0.0884 -0.1042 -0.0739
  743POPS   GL210730  17.209  12.867   6.478 -0.2770 -0.1435  0.1056
  743POPS   C1A10731  16.815  12.540   6.564 -0.1067  0.0733  0.1902
  743POPS   D2A10732  16.693  12.409   6.991 -0.1592 -0.0859  0.1442
  743POPS   C3A10733  16.765  12.517   7.302  0.0398 -0.0136 -0.1478
  743POPS   C4A10734  17.019  12.883   7.376  0.1435  0.1631  0.2370
  743POPS   C1B10735  16.920  12.990   6.766  0.1759 -0.0311  0.0387
  743POPS   C2B10736  16.551  12.973   7.102 -0.0515  0.2285 -0.2868
  743POPS   C3B10737  16.143  13.119   7.084 -0.1381 -0.1098 -0.0913
  743POPS   C4B10738  15.855  13.404   6.799 -0.5489 -0.0611 -0.3001
  744POPS   CNO10739   8.564  10.911   5.378 -0.2625  0.0470  0.0955
  744POPS   PO410740   8.420  11.282   5.076  0.0604 -0.1853  0.0155
  744POPS   GL110741   8.314  11.528   5.438  0.0054 -0.1309 -0.0139
  744POPS   GL210742   8.191  11.366   5.668  0.1815 -0.1135  0.2934
  744POPS   C1A10743   8.255  11.936   5.666  0.0913 -0.2094  0.1732
  744POPS   D2A10744   7.948  12.075   6.043  0.0942 -0.4572 -0.3118
  744POPS   C3A10745   7.987  11.863   6.382  0.1683 -0.0687 -0.0344
  744POPS   C4A10746   7.791  11.724   6.755 -0.0207  0.1657  0.2003
  744POPS   C1B10747   8.451  11.639   6.035  0.1059  0.1409  0.0020
  744POPS   C2B10748   8.650  11.809   6.364  0.0856 -0.0835  0.0498
  744POPS   C3B10749   8.720  12.013   6.752 -0.2027  0.1741  0.0741
  744POPS   C4B10750   8.715  12.383   7.136 -0.3083  0.1399 -0.2919
  745POPS   CNO10751  15.549  18.485   5.024  0.1758 -0.0625  0.2582
  745POPS   PO410752  15.740  18.620   5.466 -0.0050 -0.0078 -0.2614
  745POPS   GL110753  15.875  18.671   5.870  0.1270 -0.0720 -0.1078
  745POPS   GL210754  16.324  18.695   6.010 -0.2321 -0.0535 -0.1574
  745POPS   C1A10755  15.814  18.393   6.303  0.1644  0.2269  0.0123
  745POPS   D2A10756  15.716  18.269   6.647  0.0324  0.0193  0.2602
  745POPS   C3A10757  15.818  18.209   7.062  0.1816 -0.3394  0.3703
  745POPS   C4A10758  15.857  18.120   7.446 -0.2816 -0.1142 -0.0280
  745POPS   C1B10759  16.143  18.770   6.304 -0.0071  0.1142 -0.2749
  745POPS   C2B10760  16.069  18.619   6.763  0.0502  0.2156 -0.3872
  745POPS   C3B10761  16.089  18.595   7.246  0.0339  0.2187  0.0348
  745POPS   C4B10762  16.211  18.352   7.623  0.1372  0.0735  0.1211
  746POPS   CNO10763   3.788   9.243   5.250  0.0003  0.1563 -0.0484
  746POPS   PO410764   3.297   9.577   5.222 -0.0563  0.2726 -0.0392
  746POPS   GL110765   3.436   9.486   5.580 -0.2526  0.0273 -0.4576
  746POPS   GL210766   3.759   9.483   5.713  0.1797 -0.0350  0.3836
  746POPS   C1A10767   3.421   9.728   5.945 -0.2552  0.1903  0.2766
  746POPS   D2A10768   3.711   9.741   6.171  0.0377 -0.1105  0.0353
  746POPS   C3A10769   3.661   9.651   6.556  0.1183  0.2606 -0.2828
  746POPS   C4A10770   3.684   9.394   6.942 -0.0418 -0.1432 -0.4100
  746POPS   C1B10771   4.017   9.385   6.073 -0.2584  0.0160 -0.1222
  746POPS   C2B10772   4.017   9.370   6.448 -0.0075  0.0877 -0.0664
  746POPS   C3B10773   4.196   9.452   6.798 -0.0660 -0.1279 -0.1202
  746POPS   C4B10774   4.127   9.661   7.254 -0.1728  0.0714 -0.0221
  747POPS   CNO10775   5.196  10.535   4.996  0.0308  0.2356 -0.3271
  747POPS   PO410776   5.183  10.157   5.214  0.0598  0.2958  0.2096
  747POPS   GL110777   4.786  10.285   5.309 -0.0039  0.0765 -0.0788
  747POPS   GL210778   4.644  10.492   5.429  0.0615 -0.0457 -0.0387
  747POPS   C1A10779   4.419   9.956   5.644  0.2711  0.2053 -0.1462
  747POPS   D2A10780   4.134   9.858   5.863  0.1301 -0.3280 -0.1758
  747POPS   C3A10781   3.764  10.126   5.797 -0.2951  0.0410 -0.1952
  747POPS   C4A10782   3.325  10.316   5.748  0.0141 -0.1297 -0.2588
  747POPS   C1B10783   4.663  10.329   5.829  0.2163  0.2628 -0.1860
  747POPS   C2B10784   4.589  10.057   6.196  0.2797 -0.2634  0.2453
  747POPS   C3B10785   4.638   9.836   6.598 -0.1413 -0.0136 -0.1895
  747POPS   C4B10786   4.682   9.826   6.994 -0.0330 -0.0659 -0.4308
  748POPS   CNO10787  11.044  10.231   5.448  0.2386  0.3616 -0.1528
  748POPS   PO410788  10.730   9.987   5.451  0.0417 -0.0762  0.1411
  748POPS   GL110789  10.886   9.821   5.823 -0.1640  0.0922 -0.0107
  748POPS   GL210790  11.192   9.715   5.892  0.3167  0.2241 -0.3287
  748POPS   C1A10791  10.752   9.690   6.148 -0.0743  0.0753  0.0392
  748POPS   D2A10792  10.840   9.525   6.566  0.1921  0.0064 -0.4441
  748POPS   C3A10793  11.087   9.227   6.865 -0.2229  0.1463 -0.1160
  748POPS   C4A10794  11.073   8.719   6.884 -0.1513  0.0847 -0.3294
  748POPS   C1B10795  11.297   9.811   6.217 -0.0408  0.0887 -0.0252
  748POPS   C2B10796  11.292   9.843   6.697 -0.1690  0.2743 -0.1616
  748POPS   C3B10797  11.278  10.006   7.128 -0.3265  0.2693  0.0453
  748POPS   C4B10798  11.122   9.911   7.614  0.1456 -0.0820  0.1138
  749POPS   CNO10799  15.096   7.555   5.463 -0.1965  0.2887  0.3041
  749POPS   PO410800  14.942   7.324   5.800 -0.0525 -0.5046  0.1526
  749POPS   GL110801  15.093   7.538   6.207 -0.1782 -0.0006  0.1705
  749POPS   GL210802  15.441   7.361   6.324  0.3817 -0.0282 -0.0207
  749POPS   C1A10803  15.043   7.625   6.644  0.0599  0.1578  0.1492
  749POPS   D2A10804  15.179   7.577   6.974 -0.2036  0.2928 -0.0353
  749POPS   C3A10805  15.216   7.756   7.369 -0.0167 -0.0833 -0.0880
  749POPS   C4A10806  15.502   8.078   7.421 -0.1012 -0.3598 -0.2460
  749POPS   C1B10807  15.575   7.499   6.702 -0.0403  0.0441 -0.1414
  749POPS   C2B10808  15.761   7.784   6.989 -0.2431 -0.1826 -0.1566
  749POPS   C3B10809  16.078   7.868   7.309 -0.0122 -0.1510  0.2489
  749POPS   C4B10810  16.325   8.065   7.536 -0.0541  0.0616 -0.0928
  750POPS   CNO10811   5.232  14.995   5.043  0.1996 -0.0218  0.1029
  750POPS   PO410812   5.631  15.220   4.910  0.1509 -0.1654  0.2664
  750POPS   GL110813   5.712  15.166   5.277  0.1210 -0.3598 -0.0929
  750POPS   GL210814   5.571  15.001   5.418 -0.0406 -0.0321 -0.0361
  750POPS   C1A10815   5.849  15.301   5.662  0.0818 -0.1944  0.0196
  750POPS   D2A10816   6.062  15.413   6.108  0.2048 -0.0454  0.1359
  750POPS   C3A10817   6.121  15.246   6.462 -0.1602  0.2115 -0.1252
  750POPS   C4A10818   6.432  15.076   6.735 -0.2714 -0.1560  0.3216
  750POPS   C1B10819   5.419  15.142   5.869 -0.1186  0.1342 -0.1795
  750POPS   C2B10820   5.542  15.182   6.270 -0.0825  0.4297  0.1483
  750POPS   C3B10821   5.432  15.531   6.635  0.1491 -0.0760  0.1353
  750POPS   C4B10822   5.488  15.620   6.935 -0.3465 -0.0727 -0.0674
  751POPS   CNO10823  16.398   3.450   5.268  0.0337 -0.0892  0.1132
  751POPS   PO410824  16.189   3.277   5.685 -0.1576  0.2397 -0.0688
  751POPS   GL110825  16.074   3.447   6.104  0.0514 -0.0550 -0.2014
  751POPS   GL210826  16.171   3.278   6.446 -0.1395  0.0109  0.1204
  751POPS   C1A10827  15.978   3.723   6.456 -0.3355 -0.2744  0.2582
  751POPS   D2A10828  15.735   3.493   6.751 -0.0850 -0.4140  0.0303
  751POPS   C3A10829  15.801   3.120   6.744  0.0796  0.0971  0.2321
  751POPS   C4A10830  16.182   3.003   6.951  0.0841  0.1165 -0.1838
  751POPS   C1B10831  16.372   3.496   6.846  0.5403  0.0751 -0.0177
  751POPS   C2B10832  16.642   3.563   7.148  0.1585  0.1047 -0.0909
  751POPS   C3B10833  16.671   3.552   7.595  0.0676  0.2530 -0.1182
  751POPS   C4B10834  16.742   3.554   7.960  0.1474  0.0501  0.2339
  752POPS   CNO10835   4.459  17.855   4.962 -0.0755  0.1434 -0.1068
  752POPS   PO410836   4.687  18.128   5.205 -0.0916 -0.2566  0.0250
  752POPS   GL110837   4.732  18.055   5.680 -0.0839 -0.0138  0.2458
  752POPS   GL210838   4.438  18.387   5.744 -0.0341  0.2530  0.3686
  752POPS   C1A10839   4.979  18.194   6.048 -0.0040 -0.1247 -0.0373
  752POPS   D2A10840   5.068  18.272   6.526 -0.0248 -0.1043  0.1602
  752POPS   C3A10841   4.969  17.885   6.836  0.1374  0.0414  0.2029
  752POPS   C4A10842   4.745  17.784   7.103 -0.0710 -0.2239  0.0451
  752POPS   C1B10843   4.611  18.503   6.140 -0.1070  0.0837  0.2379
  752POPS   C2B10844   4.723  18.637   6.571 -0.1818  0.1396 -0.1055
  752POPS   C3B10845   4.927  18.764   6.871  0.3633  0.1318  0.0212
  752POPS   C4B10846   5.070  18.705   7.224  0.0223  0.0027  0.0555
  753POPS   CNO10847   6.820  17.171   4.891 -0.0786  0.2067  0.1083
  753POPS   PO410848   6.557  17.466   5.141 -0.0213 -0.2005 -0.0179
  753POPS   GL110849   6.592  17.356   5.563 -0.2628  0.0296 -0.2144
  753POPS   GL210850   6.415  17.077   5.543  0.1268 -0.0384  0.3479
  753POPS   C1A10851   6.768  17.473   5.964 -0.1977  0.2141  0.2826
  753POPS   D2A10852   7.017  17.441   6.279 -0.0667 -0.1443  0.0640
  753POPS   C3A10853   7.125  17.616   6.651  0.1435 -0.2037  0.0809
  753POPS   C4A10854   7.260  17.736   7.023 -0.4047 -0.2390 -0.2135
  753POPS   C1B10855   6.219  17.054   6.025  0.2124 -0.1863 -0.2014
  753POPS   C2B10856   6.126  17.167   6.411  0.4820 -0.0964 -0.0722
  753POPS   C3B10857   6.288  17.284   6.762 -0.0715  0.2960 -0.1100
  753POPS   C4B10858   6.391  17.324   7.242  0.0449  0.0750  0.3297
  754POPS   CNO10859   3.426  12.931   5.270 -0.0117 -0.2325 -0.2869
  754POPS   PO410860   3.544  13.272   5.569  0.3781 -0.2258  0.2066
  754POPS   GL110861   3.488  13.190   6.004  0.1100 -0.1967  0.0784
  754POPS   GL210862   3.130  13.215   6.173  0.0041 -0.0339  0.0589
  754POPS   C1A10863   3.589  13.495   6.396 -0.2594  0.2017  0.1829
  754POPS   D2A10864   3.830  13.895   6.360  0.1135 -0.0161 -0.0525
  754POPS   C3A10865   3.849  14.343   6.303  0.0031  0.2757  0.0960
  754POPS   C4A10866   3.548  14.694   6.396 -0.3943  0.0450  0.1284
  754POPS   C1B10867   3.290  13.179   6.600  0.1365  0.0634 -0.0874
  754POPS   C2B10868   3.324  13.352   7.013 -0.1283  0.0887  0.0601
  754POPS   C3B10869   3.796  13.274   7.172 -0.1053  0.0776 -0.0371
  754POPS   C4B10870   3.832  12.872   7.447 -0.2995 -0.0983  0.4313
  755POPS   CNO10871   8.717   9.664   4.884  0.1546 -0.0091 -0.0404
  755POPS   PO410872   8.935   9.915   5.233 -0.2303 -0.2312 -0.0113
  755POPS   GL110873   8.738  10.007   5.599  0.0864  0.3843  0.1732
  755POPS   GL210874   8.997   9.948   5.770 -0.1216 -0.0936 -0.0805
  755POPS   C1A10875   8.508  10.035   5.972 -0.2758 -0.0595  0.2074
  755POPS   D2A10876   8.507   9.958   6.374 -0.0930 -0.1399  0.1667
  755POPS   C3A10877   8.525  10.237   6.660 -0.0381 -0.2444  0.0282
  755POPS   C4A10878   8.331  10.511   6.886  0.2624  0.3174 -0.0348
  755POPS   C1B10879   8.990   9.924   6.179 -0.0695  0.1824  0.0335
  755POPS   C2B10880   8.937   9.855   6.623  0.2623 -0.0788  0.1648
  755POPS   C3B10881   8.554   9.686   6.792 -0.0032  0.0776  0.0354
  755POPS   C4B10882   8.202   9.690   6.831  0.0511  0.0276  0.1722
  756POPS   CNO10883   5.826  18.578   4.733 -0.0240  0.2975 -0.0243
  756POPS   PO410884   5.506  18.541   5.015 -0.0590 -0.0394  0.0158
  756POPS   GL110885   5.506  18.733   5.328 -0.0322  0.2538  0.1406
  756POPS   GL210886   5.687  19.082   5.271  0.0266 -0.0716  0.2318
  756POPS   C1A10887   5.849  18.670   5.629  0.0440  0.0623 -0.2082
  756POPS   D2A10888   6.121  18.827   5.981 -0.3589 -0.3065  0.5263
  756POPS   C3A10889   5.979  18.612   6.309 -0.1874 -0.1306  0.1738
  756POPS   C4A10890   5.969  18.497   6.841  0.1245 -0.1809  0.1060
  756POPS   C1B10891   5.797  19.172   5.742 -0.0090  0.2671 -0.0115
  756POPS   C2B10892   5.801  19.053   6.213  0.1560 -0.0143 -0.0062
  756POPS   C3B10893   5.962  19.011   6.617  0.2533 -0.0091  0.0210
  756POPS   C4B10894   6.164  19.220   6.854 -0.3121  0.1595  0.0499
  757POPS   CNO10895   1.237  11.906   5.652 -0.0378  0.0656 -0.1104
  757POPS   PO410896   1.049  12.244   5.650 -0.0940 -0.1281  0.2490
  757POPS   GL110897   1.286  12.418   5.948  0.1067  0.1128 -0.1995
  757POPS   GL210898   1.644  12.543   5.884 -0.0733 -0.0673 -0.3993
  757POPS   C1A10899   1.475  12.267   6.336 -0.1027 -0.0740 -0.1836
  757POPS   D2A10900   1.500  12.390   6.791  0.0670 -0.0017  0.2303
  757POPS   C3A10901   1.564  12.121   7.128  0.3438  0.0777 -0.0202
  757POPS   C4A10902   1.493  11.668   7.343 -0.2603 -0.1614 -0.0699
  757POPS   C1B10903   2.073  12.763   5.982  0.0097 -0.4237 -0.0166
  757POPS   C2B10904   2.500  12.923   6.126 -0.0258  0.0909  0.0700
  757POPS   C3B10905   2.705  12.912   6.434  0.0807 -0.0757  0.0394
  757POPS   C4B10906   3.024  12.787   6.774 -0.0240  0.1036 -0.2803
  758POPS   CNO10907  15.886   5.212   5.606 -0.1858 -0.1847  0.2604
  758POPS   PO410908  16.036   5.030   5.840  0.0601  0.0547 -0.2737
  758POPS   GL110909  15.744   4.792   6.085  0.0451 -0.1256  0.1431
  758POPS   GL210910  15.585   4.462   6.004 -0.0843 -0.2705 -0.1250
  758POPS   C1A10911  15.730   4.794   6.516  0.1960  0.2063  0.3149
  758POPS   D2A10912  15.610   4.616   6.962  0.1404 -0.3297 -0.0885
  758POPS   C3A10913  15.812   4.867   7.300 -0.2821 -0.1223  0.3696
  758POPS   C4A10914  15.937   4.907   7.792 -0.1779 -0.3578 -0.4730
  758POPS   C1B10915  15.461   4.295   6.348  0.2612  0.1231  0.0742
  758POPS   C2B10916  15.607   4.074   6.623  0.1914  0.0311  0.1771
  758POPS   C3B10917  15.614   4.074   7.022  0.1759 -0.0852 -0.0295
  758POPS   C4B10918  15.486   4.040   7.377  0.2075  0.2708  0.0141
  759POPS   CNO10919  12.532   8.772   4.991  0.0056  0.3024 -0.4056
  759POPS   PO410920  12.309   9.133   5.286  0.0561  0.2678  0.2016
  759POPS   GL110921  12.320   9.238   5.774  0.3474  0.1624  0.0055
  759POPS   GL210922  12.479   9.433   5.969 -0.2622 -0.0552 -0.0737
  759POPS   C1A10923  12.385   8.942   6.128 -0.4244 -0.1336  0.0554
  759POPS   D2A10924  12.588   8.657   6.486 -0.1688 -0.3209 -0.0995
  759POPS   C3A10925  12.530   8.597   6.915 -0.1361  0.2367 -0.0181
  759POPS   C4A10926  12.360   8.631   7.378  0.1012 -0.0237 -0.0003
  759POPS   C1B10927  12.718   9.333   6.370 -0.0920  0.1884 -0.4169
  759POPS   C2B10928  12.572   9.310   6.826  0.1824 -0.0878  0.2303
  759POPS   C3B10929  12.601   9.472   7.293 -0.0269  0.1617 -0.5396
  759POPS   C4B10930  12.713   9.788   7.561 -0.0876  0.5369 -0.1347
  760POPS   CNO10931   5.990   2.334   5.517 -0.1212  0.0877  0.1486
  760POPS   PO410932   6.084   1.992   5.308  0.1024  0.1079  0.0666
  760POPS   GL110933   5.949   1.813   5.625 -0.0696 -0.1037 -0.1819
  760POPS   GL210934   5.970   1.983   5.943 -0.2622 -0.0843 -0.3402
  760POPS   C1A10935   5.687   1.589   5.891 -0.1139 -0.0041  0.0867
  760POPS   D2A10936   5.392   1.364   6.057  0.1986 -0.0320 -0.1406
  760POPS   C3A10937   5.472   0.959   6.207  0.0668 -0.4719  0.2075
  760POPS   C4A10938   5.700   0.893   6.510  0.1294  0.0610  0.3318
  760POPS   C1B10939   6.062   2.396   6.058  0.0991 -0.2497 -0.1523
  760POPS   C2B10940   6.006   2.571   6.451  0.1038 -0.1289  0.2591
  760POPS   C3B10941   6.169   2.667   6.808 -0.0752  0.0805 -0.3694
  760POPS   C4B10942   6.396   2.671   7.186  0.0787 -0.1596 -0.0518
  761POPS   CNO10943  15.183   5.863   5.570  0.0190  0.3320  0.3150
  761POPS   PO410944  15.104   5.618   5.855 -0.1928  0.2823 -0.1225
  761POPS   GL110945  15.213   5.581   6.198 -0.1214  0.1722  0.1739
  761POPS   GL210946  15.379   5.879   6.293  0.1441  0.1519 -0.0213
  761POPS   C1A10947  15.291   5.451   6.625 -0.3404  0.0021  0.0921
  761POPS   D2A10948  15.631   5.171   6.848 -0.0446  0.1012  0.0690
  761POPS   C3A10949  15.856   5.338   7.158  0.2894 -0.0115 -0.0025
  761POPS   C4A10950  15.747   5.336   7.565  0.0735  0.0132  0.0630
  761POPS   C1B10951  15.520   6.018   6.667  0.1523 -0.2364  0.0424
  761POPS   C2B10952  15.856   6.035   6.913 -0.1419 -0.0656  0.1095
  761POPS   C3B10953  15.746   6.333   7.219 -0.1917  0.0733  0.0060
  761POPS   C4B10954  15.792   6.231   7.601  0.2556  0.1113  0.0327
  762POPS   CNO10955   4.188   1.547   5.002  0.0931 -0.2054 -0.2193
  762POPS   PO410956   4.272   1.435   5.395  0.1812 -0.0078  0.0972
  762POPS   GL110957   4.409   1.607   5.687 -0.2158 -0.0159 -0.1981
  762POPS   GL210958   4.745   1.823   5.690  0.0444 -0.1571 -0.3319
  762POPS   C1A10959   4.366   1.741   6.134  0.0663  0.1965 -0.1030
  762POPS   D2A10960   4.370   1.584   6.542 -0.1459 -0.0324 -0.1690
  762POPS   C3A10961   4.122   1.301   6.655  0.3003 -0.0760 -0.2143
  762POPS   C4A10962   3.607   1.357   6.552  0.0164 -0.0684 -0.2588
  762POPS   C1B10963   5.103   1.764   5.922  0.0610 -0.1971 -0.1334
  762POPS   C2B10964   5.442   2.033   6.050 -0.2720  0.5125  0.1748
  762POPS   C3B10965   5.658   2.223   6.353  0.2488 -0.0363 -0.2265
  762POPS   C4B10966   5.646   2.231   6.787  0.0877  0.1583 -0.1903
  763POPS   CNO10967  14.437   0.255   5.608 -0.0074  0.1344  0.1613
  763POPS   PO410968  14.014   0.292   5.818 -0.2283 -0.1254 -0.3123
  763POPS   GL110969  14.307   0.594   6.000  0.2603  0.1212 -0.1927
  763POPS   GL210970  14.389   0.388   6.211 -0.0799  0.0182  0.1135
  763POPS   C1A10971  14.277   0.951   6.251  0.1491 -0.3062  0.3604
  763POPS   D2A10972  14.083   1.148   6.539 -0.2278  0.1180  0.1099
  763POPS   C3A10973  14.170   1.108   6.928 -0.2595  0.0467 -0.1909
  763POPS   C4A10974  14.126   1.310   7.339  0.0457 -0.1460  0.1426
  763POPS   C1B10975  14.108   0.212   6.532  0.2193  0.1389  0.2788
  763POPS   C2B10976  14.051   0.129   6.975  0.1263 -0.1859 -0.3035
  763POPS   C3B10977  13.976   0.034   7.450 -0.0360  0.4360  0.1697
  763POPS   C4B10978  13.647  -0.022   7.758  0.2098 -0.0699 -0.0726
  764POPS   CNO10979  10.068  18.618   5.614  0.1801 -0.1374 -0.2051
  764POPS   PO410980  10.401  18.357   5.526 -0.1185  0.0731 -0.2835
  764POPS   GL110981  10.384  18.152   5.811 -0.0798  0.1214  0.1918
  764POPS   GL210982  10.035  18.167   5.856 -0.2755 -0.0501  0.0231
  764POPS   C1A10983  10.315  18.314   6.221  0.3221 -0.1081  0.0948
  764POPS   D2A10984  10.175  18.072   6.632 -0.0030 -0.0777 -0.0915
  764POPS   C3A10985  10.029  18.298   7.010  0.1251  0.0230 -0.1882
  764POPS   C4A10986   9.814  18.360   7.457  0.0668  0.0819 -0.1493
  764POPS   C1B10987  10.075  17.863   6.176 -0.1405  0.0604 -0.3750
  764POPS   C2B10988   9.942  17.657   6.549  0.0648  0.1723 -0.0998
  764POPS   C3B10989   9.768  17.686   6.911 -0.1729 -0.0192  0.1476
  764POPS   C4B10990   9.810  17.843   7.303  0.4203 -0.0796 -0.0058
  765POPS   CNO10991  15.197  14.717   5.632  0.0118  0.0634  0.1723
  765POPS   PO410992  15.519  14.539   5.822 -0.1315  0.0493 -0.0857
  765POPS   GL110993  15.731  14.503   6.201  0.2672  0.1647  0.3509
  765POPS   GL210994  15.737  14.809   6.235 -0.1835  0.4005 -0.1077
  765POPS   C1A10995  15.834  14.212   6.492  0.0334 -0.3849  0.0663
  765POPS   D2A10996  15.740  13.994   6.842 -0.0372  0.2871 -0.2114
  765POPS   C3A10997  15.709  14.180   7.306 -0.1204  0.3651  0.0239
  765POPS   C4A10998  15.812  14.237   7.708  0.0377  0.3140  0.3106
  765POPS   C1B10999  15.969  14.637   6.621  0.0056 -0.4664 -0.2598
  765POPS   C2B11000  15.936  14.460   6.962 -0.0241  0.3395  0.5568
  765POPS   C3B11001  16.158  14.373   7.327  0.1970 -0.1705 -0.1665
  765POPS   C4B11002  16.468  14.225   7.567  0.3139  0.2240 -0.1368
  766POPS   CNO11003   3.640   6.101   5.367 -0.0563  0.0052  0.0534
  766POPS   PO411004   3.912   6.374   5.361 -0.2031 -0.3302  0.0880
  766POPS   GL111005   3.732   6.387   5.760  0.0329 -0.0813 -0.0578
  766POPS   GL211006   3.943   6.662   5.917 -0.3484  0.0288  0.0054
  766POPS   C1A11007   3.539   6.493   6.158 -0.0823 -0.1069  0.0948
  766POPS   D2A11008   3.386   6.779   6.502 -0.2659  0.1385 -0.0061
  766POPS   C3A11009   3.520   7.231   6.562  0.0024  0.0364 -0.0543
  766POPS   C4A11010   3.567   7.539   6.243  0.1813 -0.1300  0.0849
  766POPS   C1B11011   3.977   6.840   6.250  0.2883  0.0403  0.1301
  766POPS   C2B11012   3.833   6.842   6.633  0.1328  0.0152  0.2055
  766POPS   C3B11013   3.519   6.918   7.001 -0.1076 -0.0705  0.0806
  766POPS   C4B11014   3.280   7.100   7.334  0.2771 -0.2496  0.0517
  767POPS   CNO11015   1.494   6.833   5.437 -0.0872 -0.1656 -0.0535
  767POPS   PO411016   1.890   6.868   5.761  0.0724 -0.0809  0.1636
  767POPS   GL111017   1.789   6.943   6.136 -0.2176  0.1361  0.1206
  767POPS   GL211018   1.604   7.104   6.333  0.0321 -0.2089 -0.4599
  767POPS   C1A11019   1.962   6.864   6.451 -0.0228 -0.0539 -0.1912
  767POPS   D2A11020   2.270   6.749   6.518  0.1980  0.0704  0.0282
  767POPS   C3A11021   2.442   6.729   6.911  0.2362  0.0098 -0.0548
  767POPS   C4A11022   2.517   6.449   7.232  0.0984  0.1164 -0.0054
  767POPS   C1B11023   1.558   7.160   6.744  0.1227 -0.0242 -0.2351
  767POPS   C2B11024   1.949   6.946   6.933 -0.0679  0.1011 -0.0361
  767POPS   C3B11025   2.007   6.611   7.180 -0.2489  0.1802  0.1414
  767POPS   C4B11026   2.060   6.139   7.088 -0.3485  0.0427  0.3019
  768POPS   CNO11027   2.777   2.967   5.114  0.1848  0.0904 -0.2214
  768POPS   PO411028   2.796   3.330   5.386  0.2310 -0.0843 -0.0672
  768POPS   GL111029   2.613   3.452   5.795 -0.0960  0.1311 -0.1940
  768POPS   GL211030   2.413   3.357   5.841  0.0091  0.1108 -0.1082
  768POPS   C1A11031   2.833   3.688   6.140  0.0360 -0.0680  0.0071
  768POPS   D2A11032   3.185   3.550   6.419  0.0969 -0.0959 -0.3184
  768POPS   C3A11033   3.188   3.494   6.825 -0.0437  0.1758  0.1245
  768POPS   C4A11034   2.966   3.799   7.083 -0.0112  0.3160 -0.3261
  768POPS   C1B11035   2.408   3.511   6.349 -0.1256  0.3304  0.2526
  768POPS   C2B11036   2.708   3.759   6.622 -0.0996  0.3971 -0.1385
  768POPS   C3B11037   3.131   3.998   6.659  0.2675  0.1694 -0.1440
  768POPS   C4B11038   3.204   4.445   6.629 -0.0446 -0.1237 -0.1223
  769POPS   CNO11039  14.457   9.589   5.250  0.0220  0.4250 -0.1032
  769POPS   PO411040  14.265   9.514   5.712 -0.0476  0.0552  0.0159
  769POPS   GL111041  14.197   9.876   6.044 -0.1094 -0.3923  0.0796
  769POPS   GL211042  14.490  10.126   5.968 -0.0266  0.1478 -0.1730
  769POPS   C1A11043  13.991   9.760   6.343 -0.2342 -0.0446  0.1398
  769POPS   D2A11044  13.845   9.676   6.671 -0.0522 -0.0273 -0.1361
  769POPS   C3A11045  13.901   9.274   6.824  0.1487 -0.0821  0.3116
  769POPS   C4A11046  13.963   9.135   7.186  0.1808  0.2256  0.1422
  769POPS   C1B11047  14.676   9.896   6.348  0.1171  0.0763 -0.0205
  769POPS   C2B11048  14.765   9.838   6.809  0.1230 -0.1759 -0.1433
  769POPS   C3B11049  14.783   9.771   7.320  0.0714 -0.1065 -0.0408
  769POPS   C4B11050  14.925   9.703   7.785 -0.1836  0.4893  0.2071
  770POPS   CNO11051   8.588  13.866   4.344  0.2275 -0.1445 -0.0709
  770POPS   PO411052   8.687  14.039   4.781  0.3703  0.1718  0.0896
  770POPS   GL111053   8.830  13.979   5.277  0.1461 -0.1281 -0.2951
  770POPS   GL211054   9.170  14.100   5.417  0.1188  0.0127 -0.1893
  770POPS   C1A11055   8.593  14.031   5.656  0.4280  0.1393 -0.2482
  770POPS   D2A11056   8.324  14.356   5.818 -0.2864 -0.0209  0.0840
  770POPS   C3A11057   8.014  14.422   6.145 -0.1351  0.0117  0.0930
  770POPS   C4A11058   7.821  14.739   6.320 -0.0043  0.1960  0.0601
  770POPS   C1B11059   9.000  13.899   5.787  0.2133  0.3175  0.0191
  770POPS   C2B11060   8.731  13.991   6.097  0.0744  0.1039  0.0108
  770POPS   C3B11061   8.631  13.877   6.479 -0.0039  0.0255 -0.1243
  770POPS   C4B11062   8.555  14.086   6.872  0.1593  0.1177  0.1161
  771POPS   CNO11063   8.017   8.781   4.858  0.0890 -0.2780  0.0247
  771POPS   PO411064   7.763   9.065   5.053 -0.2388 -0.0684  0.1381
  771POPS   GL111065   7.800   9.196   5.505  0.2560  0.0563 -0.1774
  771POPS   GL211066   7.746   9.605   5.654  0.0945 -0.0788 -0.0311
  771POPS   C1A11067   7.930   9.247   6.006 -0.0460  0.1699 -0.0801
  771POPS   D2A11068   7.877   9.239   6.418 -0.1967 -0.2032  0.1374
  771POPS   C3A11069   7.492   9.258   6.743 -0.1582  0.0909 -0.0662
  771POPS   C4A11070   7.378   9.302   7.235 -0.0069 -0.1215 -0.2116
  771POPS   C1B11071   7.997   9.736   6.041  0.2858 -0.0615 -0.0124
  771POPS   C2B11072   7.925   9.944   6.403  0.0569  0.2768 -0.1950
  771POPS   C3B11073   7.971  10.165   6.899 -0.2091 -0.2038  0.0004
  771POPS   C4B11074   7.830  10.548   6.906 -0.1435 -0.0368 -0.1558
  772POPS   CNO11075   1.590   9.306   5.381 -0.1245  0.1707  0.0946
  772POPS   PO411076   1.937   9.012   5.251  0.2039  0.0443  0.0147
  772POPS   GL111077   2.041   8.831   5.689  0.2773  0.0610  0.2111
  772POPS   GL211078   2.321   8.590   5.691  0.1076 -0.1575  0.0146
  772POPS   C1A11079   2.082   8.543   6.128 -0.0946 -0.0563  0.2105
  772POPS   D2A11080   2.176   8.498   6.551 -0.3159  0.1132  0.1315
  772POPS   C3A11081   2.377   8.315   6.923 -0.1281  0.1250  0.0475
  772POPS   C4A11082   2.759   8.169   7.104 -0.0145 -0.4575 -0.1110
  772POPS   C1B11083   2.342   8.196   5.998 -0.0907  0.2942  0.1491
  772POPS   C2B11084   2.518   8.224   6.365  0.0637 -0.3841 -0.0073
  772POPS   C3B11085   2.804   8.460   6.639  0.1478 -0.2083  0.0081
  772POPS   C4B11086   2.946   8.929   6.342 -0.1243  0.3073 -0.1461
  773POPS   CNO11087  18.502   8.729   5.424  0.1811  0.0537  0.0122
  773POPS   PO411088  18.455   8.706   5.851 -0.1170 -0.0776 -0.0769
  773POPS   GL111089  18.357   9.000   6.076  0.0726  0.2055  0.1851
  773POPS   GL211090  18.606   9.063   6.202 -0.0739  0.1553 -0.1932
  773POPS   C1A11091  18.051   9.267   6.334 -0.2221  0.0308 -0.0943
  773POPS   D2A11092  17.725   8.996   6.601  0.4409 -0.1060 -0.1256
  773POPS   C3A11093  17.671   9.020   7.053  0.0099 -0.2262 -0.1789
  773POPS   C4A11094  17.692   9.018   7.572 -0.0584 -0.0188  0.0022
  773POPS   C1B11095  18.456   9.151   6.631  0.1920  0.2621 -0.0226
  773POPS   C2B11096  18.175   9.149   6.959  0.1003  0.0078 -0.2172
  773POPS   C3B11097  18.181   9.001   7.362 -0.2484  0.1463  0.3762
  773POPS   C4B11098  18.106   8.650   7.734  0.1491  0.2118 -0.2319
  774POPS   CNO11099  14.961   1.881   5.651 -0.1803 -0.1760 -0.2492
  774POPS   PO411100  15.188   2.199   5.762  0.4063  0.0609  0.1491
  774POPS   GL111101  15.128   1.955   6.236 -0.1737  0.0207 -0.0220
  774POPS   GL211102  14.901   1.737   6.116 -0.0256  0.1904 -0.0604
  774POPS   C1A11103  15.257   2.006   6.657 -0.0400  0.0610 -0.2117
  774POPS   D2A11104  15.362   2.177   7.095 -0.1828 -0.2718  0.3649
  774POPS   C3A11105  15.164   2.465   7.361  0.0756  0.0206 -0.0739
  774POPS   C4A11106  15.142   2.501   7.771 -0.0210 -0.0928  0.2006
  774POPS   C1B11107  15.168   1.459   6.386 -0.1841  0.1160 -0.0730
  774POPS   C2B11108  15.060   1.119   6.634 -0.1936  0.0858 -0.1389
  774POPS   C3B11109  15.208   1.091   7.072 -0.3215 -0.1474  0.3548
  774POPS   C4B11110  15.192   1.033   7.429 -0.0220  0.0718  0.1580
  775POPS   CNO11111   0.273  15.629   5.418  0.0648  0.0092 -0.2344
  775POPS   PO411112   0.377  15.812   5.760  0.1522 -0.0503  0.0627
  775POPS   GL111113   0.503  16.044   6.134  0.0512 -0.0073 -0.2241
  775POPS   GL211114   0.253  16.172   6.310 -0.0959 -0.3818  0.3631
  775POPS   C1A11115   0.628  16.190   6.624 -0.0479  0.0004 -0.2555
  775POPS   D2A11116   0.999  16.424   6.832 -0.2323 -0.0303 -0.0138
  775POPS   C3A11117   1.214  16.222   7.281 -0.0603 -0.1820 -0.2530
  775POPS   C4A11118   1.000  16.287   7.595 -0.1995  0.2109 -0.1299
  775POPS   C1B11119   0.114  16.307   6.588 -0.4101  0.4007 -0.0140
  775POPS   C2B11120   0.189  16.478   7.047  0.2269 -0.1577 -0.0863
  775POPS   C3B11121   0.353  16.501   7.537  0.2860  0.0006  0.1200
  775POPS   C4B11122   0.647  16.744   7.749 -0.1536 -0.2594  0.0289
  776POPS   CNO11123  15.257  15.261   5.229 -0.1160  0.1010  0.0499
  776POPS   PO411124  15.027  15.188   5.598 -0.1004 -0.0131 -0.0813
  776POPS   GL111125  15.001  15.380   5.949  0.0289 -0.0343  0.5586
  776POPS   GL211126  15.270  15.227   6.133 -0.0433 -0.1568  0.1680
  776POPS   C1A11127  14.630  15.430   6.274 -0.0412  0.1417 -0.3446
  776POPS   D2A11128  14.343  15.573   6.633 -0.2254  0.0981  0.0639
  776POPS   C3A11129  14.251  15.359   7.034  0.1405  0.1379 -0.1335
  776POPS   C4A11130  14.044  15.088   7.256  0.1080 -0.4091  0.0588
  776POPS   C1B11131  15.354  15.074   6.469  0.3732 -0.1609  0.0474
  776POPS   C2B11132  14.946  14.982   6.622 -0.1243  0.1450  0.1747
  776POPS   C3B11133  14.475  14.960   6.762  0.1289  0.1093 -0.3564
  776POPS   C4B11134  14.071  15.110   6.585 -0.1379 -0.0459  0.1356
  777POPS   CNO11135   7.704   1.291   4.772  0.2729 -0.2250 -0.5328
  777POPS   PO411136   7.817   1.533   5.174  0.1260 -0.1617 -0.0938
  777POPS   GL111137   7.729   1.677   5.588  0.1039  0.3831 -0.0811
  777POPS   GL211138   7.565   1.906   5.725 -0.2818 -0.0279  0.2611
  777POPS   C1A11139   7.868   1.601   6.009  0.0625  0.3772 -0.1341
  777POPS   D2A11140   7.947   1.537   6.417 -0.1992  0.1927 -0.1540
  777POPS   C3A11141   8.150   1.690   6.709  0.1513 -0.0969  0.0921
  777POPS   C4A11142   8.174   1.808   7.126 -0.1097 -0.2901  0.1335
  777POPS   C1B11143   7.393   1.691   6.080 -0.0665 -0.6802  0.1335
  777POPS   C2B11144   7.500   1.402   6.326 -0.2907  0.0866  0.1779
  777POPS   C3B11145   7.647   1.216   6.630 -0.0023 -0.1337  0.0310
  777POPS   C4B11146   7.841   1.231   6.992 -0.1243 -0.0957 -0.0283
  778POPS   CNO11147  14.766   4.673   5.998 -0.2405  0.2513  0.0423
  778POPS   PO411148  14.504   5.095   5.937 -0.0325  0.0926  0.1110
  778POPS   GL111149  14.406   4.745   6.290  0.0221  0.1862  0.1350
  778POPS   GL211150  14.665   4.694   6.501 -0.0036 -0.4408  0.2295
  778POPS   C1A11151  14.173   4.765   6.757 -0.0689 -0.0273 -0.0350
  778POPS   D2A11152  14.131   4.517   7.163  0.0975  0.3088 -0.1212
  778POPS   C3A11153  14.093   4.541   7.571  0.1334  0.1904  0.1060
  778POPS   C4A11154  13.784   4.828   7.814  0.0775  0.3538  0.1534
  778POPS   C1B11155  14.743   4.810   6.936 -0.3329  0.1250 -0.1539
  778POPS   C2B11156  14.502   4.822   7.314 -0.2542 -0.0928  0.3111
  778POPS   C3B11157  14.387   5.173   7.617  0.0452 -0.3000  0.1478
  778POPS   C4B11158  14.022   5.370   7.649 -0.0363 -0.1786 -0.1551
  779POPS   CNO11159   0.858  17.175   5.435  0.0497  0.0830 -0.2597
  779POPS   PO411160   1.284  17.111   5.490 -0.2303  0.0996 -0.0816
  779POPS   GL111161   1.489  17.268   5.795  0.2378  0.0100 -0.1322
  779POPS   GL211162   1.551  17.479   5.938  0.1346 -0.0032 -0.0816
  779POPS   C1A11163   1.473  17.078   6.214 -0.1584  0.4813  0.2502
  779POPS   D2A11164   1.560  16.572   6.402  0.2556 -0.0320 -0.0801
  779POPS   C3A11165   1.588  16.738   6.838 -0.0039 -0.0956  0.0186
  779POPS   C4A11166   1.538  16.742   7.280  0.0789 -0.0735 -0.3114
  779POPS   C1B11167   1.634  17.698   6.361 -0.1717  0.2627  0.1169
  779POPS   C2B11168   1.685  17.786   6.778 -0.1531 -0.0307  0.0229
  779POPS   C3B11169   1.744  17.586   7.132 -0.0477 -0.3548 -0.0200
  779POPS   C4B11170   1.627  17.626   7.548 -0.3832 -0.2043 -0.0370
  780POPS   CNO11171  12.803  13.098   5.430  0.2094  0.1092 -0.1634
  780POPS   PO411172  12.340  13.221   5.536  0.0058 -0.1483  0.0571
  780POPS   GL111173  12.363  13.105   5.979  0.0352  0.0173  0.1239
  780POPS   GL211174  12.598  12.947   6.116 -0.0212  0.1213  0.0086
  780POPS   C1A11175  12.170  13.100   6.335 -0.0048  0.0213 -0.0177
  780POPS   D2A11176  11.982  13.274   6.697 -0.1935 -0.0046 -0.1925
  780POPS   C3A11177  11.624  13.616   6.722 -0.1070 -0.0313 -0.3234
  780POPS   C4A11178  11.436  14.064   6.744 -0.1008  0.0990 -0.1553
  780POPS   C1B11179  12.579  12.887   6.540 -0.4047 -0.0540 -0.0330
  780POPS   C2B11180  12.407  12.966   6.917 -0.2434 -0.0476 -0.2428
  780POPS   C3B11181  12.163  13.190   7.170 -0.1497 -0.0542  0.0948
  780POPS   C4B11182  12.102  13.563   7.380  0.1499  0.1410  0.2715
  781POPS   CNO11183  13.984   4.460   5.453  0.0928  0.1383 -0.3120
  781POPS   PO411184  13.768   4.179   5.712  0.0560 -0.3218 -0.1113
  781POPS   GL111185  13.871   4.090   6.212 -0.1980 -0.0599 -0.1194
  781POPS   GL211186  13.982   4.330   6.359  0.0728  0.0916 -0.1823
  781POPS   C1A11187  13.823   3.798   6.539 -0.3259 -0.0967  0.1478
  781POPS   D2A11188  14.309   3.725   6.759 -0.1611 -0.1177 -0.2330
  781POPS   C3A11189  14.482   3.902   7.102  0.2021 -0.0677 -0.3663
  781POPS   C4A11190  14.869   3.905   7.357 -0.2352 -0.3011  0.0028
  781POPS   C1B11191  14.094   4.234   6.763  0.0725  0.0674 -0.2325
  781POPS   C2B11192  13.946   3.922   7.049 -0.1255 -0.1902 -0.2310
  781POPS   C3B11193  14.106   3.975   7.371 -0.0139  0.1010 -0.3132
  781POPS   C4B11194  14.433   3.775   7.605  0.3389  0.2279  0.1525
  782POPS   CNO11195  12.357  14.694   5.105 -0.2414  0.1079 -0.0392
  782POPS   PO411196  12.390  14.967   5.436  0.0938 -0.0289 -0.0580
  782POPS   GL111197  12.289  15.011   5.846  0.4209  0.1338  0.0979
  782POPS   GL211198  12.140  15.155   6.078  0.4663 -0.2905 -0.0021
  782POPS   C1A11199  12.517  14.920   6.367  0.1629  0.2592 -0.3839
  782POPS   D2A11200  12.659  14.710   6.752 -0.0733 -0.1693  0.0218
  782POPS   C3A11201  12.641  14.859   7.188  0.1338 -0.0348  0.2353
  782POPS   C4A11202  12.820  14.933   7.630  0.0301 -0.0789  0.1529
  782POPS   C1B11203  12.110  15.331   6.463  0.0711 -0.0493  0.2415
  782POPS   C2B11204  11.922  15.312   6.841 -0.1459  0.1028  0.0456
  782POPS   C3B11205  11.712  14.941   6.995  0.1591 -0.1523  0.0345
  782POPS   C4B11206  11.361  14.910   7.223  0.1173 -0.0644  0.0541
  783POPS   CNO11207   5.658   5.624   4.967 -0.1686 -0.1544  0.3063
  783POPS   PO411208   5.808   5.310   5.228 -0.1452 -0.1327  0.0901
  783POPS   GL111209   5.346   5.196   5.492  0.2328  0.1012 -0.2511
  783POPS   GL211210   5.249   5.323   5.732  0.0814  0.2526 -0.0650
  783POPS   C1A11211   5.396   4.858   5.874 -0.1220  0.4075  0.0105
  783POPS   D2A11212   5.440   4.837   6.322 -0.2176 -0.1660 -0.1382
  783POPS   C3A11213   5.397   4.488   6.543 -0.0046  0.0255  0.0832
  783POPS   C4A11214   5.046   4.416   6.929  0.0142 -0.0717 -0.2830
  783POPS   C1B11215   5.486   5.300   6.171 -0.1010 -0.1755 -0.1686
  783POPS   C2B11216   5.671   5.534   6.451 -0.0364 -0.1280 -0.0503
  783POPS   C3B11217   5.923   5.790   6.561 -0.0822 -0.0613  0.3012
  783POPS   C4B11218   6.082   6.047   6.266  0.3081  0.2395  0.1691
  784POPS   CNO11219   1.454   2.039   4.839  0.0181  0.2919  0.2488
  784POPS   PO411220   1.183   2.239   5.072  0.1975  0.0825 -0.3546
  784POPS   GL111221   1.175   2.287   5.480  0.1056  0.1131  0.0106
  784POPS   GL211222   1.174   2.699   5.758 -0.1000 -0.1511  0.0118
  784POPS   C1A11223   1.358   2.275   5.954 -0.2378  0.0316 -0.0034
  784POPS   D2A11224   1.478   2.233   6.477 -0.0097  0.3242  0.0881
  784POPS   C3A11225   1.515   1.916   6.752 -0.0976 -0.1410 -0.0349
  784POPS   C4A11226   1.575   1.516   6.980 -0.0324 -0.1629  0.2741
  784POPS   C1B11227   0.918   2.392   5.996  0.2523  0.0686 -0.0688
  784POPS   C2B11228   1.049   2.235   6.298 -0.3962 -0.0345  0.1832
  784POPS   C3B11229   0.794   2.045   6.562  0.2525 -0.1233 -0.1357
  784POPS   C4B11230   0.656   1.645   6.716  0.1352 -0.0908 -0.0672
  785POPS   CNO11231  18.411  16.875   5.336  0.1516  0.0775 -0.2337
  785POPS   PO411232  18.271  16.802   5.818 -0.2964  0.3806  0.1874
  785POPS   GL111233  18.387  16.926   6.227  0.2000  0.1474  0.1769
  785POPS   GL211234  18.282  17.299   6.288 -0.0087 -0.2212  0.2023
  785POPS   C1A11235  18.319  16.858   6.785  0.0111 -0.2799 -0.2110
  785POPS   D2A11236  18.395  16.815   7.168  0.2717  0.1987 -0.0342
  785POPS   C3A11237  18.215  16.957   7.528 -0.1613 -0.0054  0.0260
  785POPS   C4A11238  18.154  16.595   7.657  0.0730 -0.1343 -0.0834
  785POPS   C1B11239  18.285  17.373   6.685  0.0569 -0.0812  0.2589
  785POPS   C2B11240  18.225  17.298   7.094 -0.1914  0.1860 -0.1001
  785POPS   C3B11241  18.362  17.517   7.488  0.0465 -0.0174  0.2672
  785POPS   C4B11242  18.584  17.904   7.548  0.0941  0.1958 -0.1223
  786POPS   CNO11243  16.446  13.262   5.371  0.0655 -0.0013 -0.0595
  786POPS   PO411244  16.414  13.286   5.800  0.1358 -0.2021  0.1492
  786POPS   GL111245  16.376  13.194   6.203 -0.1065  0.0343  0.1708
  786POPS   GL211246  16.672  12.999   6.312 -0.3260  0.3551 -0.1077
  786POPS   C1A11247  16.058  13.142   6.435 -0.1116 -0.0591 -0.2947
  786POPS   D2A11248  15.605  13.123   6.483  0.5071 -0.0862 -0.2197
  786POPS   C3A11249  15.621  12.968   6.869 -0.1489  0.1503 -0.0885
  786POPS   C4A11250  15.473  13.181   7.167  0.3205  0.0851  0.1087
  786POPS   C1B11251  16.459  13.289   6.672 -0.1244 -0.3539 -0.2832
  786POPS   C2B11252  16.350  13.548   6.971 -0.0155  0.4708  0.2186
  786POPS   C3B11253  16.540  13.719   7.300 -0.0068  0.2286 -0.3249
  786POPS   C4B11254  16.732  13.668   7.697 -0.2368 -0.1203 -0.1624
  787POPS   CNO11255   3.793   8.720   4.978  0.0395 -0.0497  0.0610
  787POPS   PO411256   3.491   8.503   5.159  0.2670  0.0087  0.0338
  787POPS   GL111257   3.400   8.451   5.638 -0.1647 -0.1156  0.0408
  787POPS   GL211258   3.645   8.335   5.630  0.0857  0.0083  0.0764
  787POPS   C1A11259   3.283   8.570   6.076  0.0738  0.2755  0.0631
  787POPS   D2A11260   3.297   8.649   6.448 -0.2166  0.1238  0.0249
  787POPS   C3A11261   3.593   8.703   6.685 -0.0143  0.0045 -0.2505
  787POPS   C4A11262   3.605   8.845   7.099  0.2283  0.1877  0.0406
  787POPS   C1B11263   3.765   8.605   5.940  0.0766  0.2014 -0.1540
  787POPS   C2B11264   3.903   8.819   6.283 -0.1621 -0.0326  0.2228
  787POPS   C3B11265   4.028   8.951   6.722  0.0578  0.3312  0.3123
  787POPS   C4B11266   4.061   8.954   7.146 -0.2484  0.1764  0.0259
  788POPS   CNO11267   2.081  14.235   5.382 -0.1995  0.2327  0.1314
  788POPS   PO411268   2.329  14.540   5.473 -0.0537 -0.2273  0.2236
  788POPS   GL111269   2.526  14.767   5.868  0.0651 -0.0912  0.1596
  788POPS   GL211270   2.768  15.020   5.848  0.1140  0.0680  0.1244
  788POPS   C1A11271   2.823  14.594   6.181 -0.0107  0.1361 -0.2001
  788POPS   D2A11272   3.070  14.564   6.549 -0.0790 -0.3758  0.0330
  788POPS   C3A11273   3.028  14.311   6.914 -0.1936 -0.1272  0.4164
  788POPS   C4A11274   3.263  14.242   7.238  0.0638 -0.1816 -0.2273
  788POPS   C1B11275   2.940  15.098   6.310  0.0520 -0.1609 -0.2408
  788POPS   C2B11276   3.085  15.036   6.663 -0.0392 -0.0931  0.2723
  788POPS   C3B11277   3.175  14.781   7.066 -0.1742  0.0315  0.1726
  788POPS   C4B11278   3.295  14.622   7.553  0.0426  0.0080  0.3880
  789POPS   CNO11279  16.538  15.093   5.842  0.0097  0.1196  0.0924
  789POPS   PO411280  16.990  15.012   5.797  0.3618 -0.0887 -0.1570
  789POPS   GL111281  17.019  14.853   6.265 -0.2413  0.0526 -0.1782
  789POPS   GL211282  16.753  14.560   6.364 -0.1489 -0.2805  0.2162
  789POPS   C1A11283  16.822  14.821   6.780 -0.0865 -0.3398 -0.2587
  789POPS   D2A11284  16.731  15.085   7.132 -0.0862 -0.2670 -0.0707
  789POPS   C3A11285  17.096  15.084   7.449 -0.0407  0.4436  0.0752
  789POPS   C4A11286  17.186  15.235   7.966  0.0047 -0.0331 -0.2769
  789POPS   C1B11287  16.918  14.326   6.649 -0.2678 -0.1122  0.1063
  789POPS   C2B11288  17.177  14.408   6.962  0.0140  0.1682  0.1507
  789POPS   C3B11289  17.284  14.573   7.364 -0.2671  0.0137 -0.2112
  789POPS   C4B11290  17.386  14.846   7.775 -0.0649 -0.0546  0.1471
  790POPS   CNO11291  18.755  18.553   5.514  0.3146  0.0954 -0.2199
  790POPS   PO411292  18.485  18.234   5.582 -0.1445  0.2766  0.2030
  790POPS   GL111293  18.419  18.375   5.921  0.2111 -0.5192 -0.2764
  790POPS   GL211294  18.182  18.503   6.067 -0.2650 -0.0044  0.1808
  790POPS   C1A11295  18.706  18.586   6.320 -0.2090  0.0653 -0.1079
  790POPS   D2A11296  18.803  18.403   6.744 -0.1370  0.0611 -0.0516
  790POPS   C3A11297  18.782  18.673   7.066  0.1339 -0.0237  0.3388
  790POPS   C4A11298  18.887  18.904   7.425 -0.0553  0.3089  0.0617
  790POPS   C1B11299  18.118  18.975   6.283 -0.0432 -0.2583  0.1469
  790POPS   C2B11300  17.983  19.429   6.559 -0.1511  0.3498  0.1023
  790POPS   C3B11301  18.121  19.723   6.731 -0.0765  0.2804 -0.1605
  790POPS   C4B11302  17.979  20.119   6.805 -0.0023 -0.0739  0.0910
  791POPS   CNO11303   4.372  14.184   4.757 -0.1581  0.2211 -0.1302
  791POPS   PO411304   4.831  14.370   4.941  0.3502  0.2139  0.1645
  791POPS   GL111305   5.089  14.500   5.322 -0.0232 -0.3449  0.1297
  791POPS   GL211306   4.813  14.302   5.508  0.3640 -0.0536 -0.0070
  791POPS   C1A11307   5.215  14.649   5.876 -0.0694  0.0162 -0.1736
  791POPS   D2A11308   5.361  14.702   6.363  0.3261  0.2184 -0.2647
  791POPS   C3A11309   5.477  14.952   6.780  0.1264 -0.0665 -0.0625
  791POPS   C4A11310   5.842  15.181   6.875  0.0093 -0.2571 -0.0106
  791POPS   C1B11311   4.400  14.382   5.815 -0.0623  0.0218 -0.1439
  791POPS   C2B11312   4.333  14.482   6.282  0.3768 -0.1277  0.1149
  791POPS   C3B11313   4.513  14.505   6.612 -0.0213  0.1583 -0.0703
  791POPS   C4B11314   4.600  14.188   6.953 -0.1332 -0.0482 -0.2511
  792POPS   CNO11315   9.805   9.946   5.098 -0.0186  0.1524 -0.1817
  792POPS   PO411316   9.797  10.333   5.328  0.2117 -0.3823  0.1908
  792POPS   GL111317   9.786  10.145   5.702  0.1955  0.1151  0.0419
  792POPS   GL211318   9.571   9.890   5.773  0.0494  0.0978 -0.0688
  792POPS   C1A11319   9.912  10.102   6.164 -0.1592 -0.0008 -0.1676
  792POPS   D2A11320   9.861  10.368   6.427 -0.4012 -0.0473  0.1438
  792POPS   C3A11321   9.729  10.531   6.825 -0.2692 -0.1900 -0.3185
  792POPS   C4A11322   9.932  10.671   7.153  0.2396 -0.2330  0.0442
  792POPS   C1B11323   9.471   9.917   6.172  0.0326  0.0584  0.2690
  792POPS   C2B11324   9.424  10.039   6.584 -0.0949 -0.0218  0.0169
  792POPS   C3B11325   9.171  10.292   6.820  0.4215 -0.2936 -0.2405
  792POPS   C4B11326   9.257  10.625   7.079 -0.1666  0.0407  0.1007
  793POPS   CNO11327   1.974  15.167   4.960 -0.1003  0.3157 -0.0422
  793POPS   PO411328   2.099  15.444   5.243 -0.1582  0.0480  0.1944
  793POPS   GL111329   2.046  15.514   5.748 -0.0052  0.1269 -0.0138
  793POPS   GL211330   1.797  15.816   5.748  0.4525 -0.1429  0.1276
  793POPS   C1A11331   2.120  15.589   6.304 -0.1667 -0.0363 -0.0812
  793POPS   D2A11332   2.236  15.545   6.676 -0.2114  0.0261 -0.1491
  793POPS   C3A11333   2.551  15.701   7.038 -0.0259  0.1395 -0.1722
  793POPS   C4A11334   2.866  15.586   7.358 -0.0051 -0.0174  0.1349
  793POPS   C1B11335   1.606  16.032   6.035 -0.0108  0.3515  0.1025
  793POPS   C2B11336   1.651  16.073   6.552 -0.3663  0.3103 -0.2855
  793POPS   C3B11337   1.618  16.208   7.001 -0.0423  0.0503 -0.0829
  793POPS   C4B11338   1.754  16.016   7.492  0.1331  0.0509 -0.0367
  794POPS   CNO11339   0.329   9.054   5.208  0.2716  0.4044  0.0192
  794POPS   PO411340   0.262   8.672   5.589  0.4214  0.3392  0.3878
  794POPS   GL111341   0.084   8.853   5.985 -0.1565  0.3740 -0.0245
  794POPS   GL211342  -0.108   8.695   6.003  0.2362 -0.2378  0.3038
  794POPS   C1A11343   0.035   9.037   6.459  0.0326  0.2024  0.0563
  794POPS   D2A11344   0.190   9.003   6.825 -0.1121  0.1103 -0.0053
  794POPS   C3A11345   0.071   9.165   7.194  0.1929 -0.0681  0.1774
  794POPS   C4A11346   0.197   9.329   7.513 -0.2666 -0.0428  0.0746
  794POPS   C1B11347   0.192   8.461   6.341 -0.0542 -0.2004 -0.0874
  794POPS   C2B11348   0.170   8.453   6.738 -0.1548  0.0747  0.1618
  794POPS   C3B11349   0.034   8.596   7.127  0.0222 -0.2130  0.2351
  794POPS   C4B11350   0.009   8.582   7.604  0.3001  0.1451 -0.0182
  795POPS   CNO11351   7.495  17.367   5.325 -0.1386 -0.1337  0.4248
  795POPS   PO411352   7.344  16.853   5.271 -0.1494 -0.1000 -0.0524
  795POPS   GL111353   7.698  16.852   5.573 -0.2815 -0.2542  0.2589
  795POPS   GL211354   7.753  16.643   5.669  0.1655 -0.2155  0.2674
  795POPS   C1A11355   7.769  17.117   5.909  0.0331 -0.1487 -0.0893
  795POPS   D2A11356   7.838  17.034   6.437  0.0994 -0.0814 -0.1381
  795POPS   C3A11357   7.722  16.874   6.831  0.1185  0.3137 -0.2014
  795POPS   C4A11358   7.614  16.489   7.033 -0.0790  0.1120 -0.0374
  795POPS   C1B11359   7.621  16.650   6.133  0.0306 -0.3304 -0.1415
  795POPS   C2B11360   7.504  16.518   6.468 -0.0849 -0.1039 -0.2420
  795POPS   C3B11361   7.251  16.743   6.790 -0.0225  0.0255 -0.0428
  795POPS   C4B11362   7.127  16.700   7.163  0.2231 -0.4296  0.0435
  796POPS   CNO11363  16.857   5.049   5.503 -0.1402 -0.1410 -0.0902
  796POPS   PO411364  17.053   5.029   5.849 -0.1917 -0.0522  0.0880
  796POPS   GL111365  17.138   5.177   6.218  0.1221 -0.3807 -0.2045
  796POPS   GL211366  16.792   5.422   6.386 -0.0316 -0.0018 -0.3631
  796POPS   C1A11367  17.175   5.294   6.663 -0.0564 -0.1917  0.0585
  796POPS   D2A11368  17.426   5.373   7.061  0.3977  0.4505  0.1983
  796POPS   C3A11369  17.304   5.330   7.544 -0.0160  0.2039  0.1102
  796POPS   C4A11370  16.959   5.271   7.828 -0.2500 -0.4230  0.0613
  796POPS   C1B11371  16.531   5.600   6.770  0.4275 -0.1361  0.0861
  796POPS   C2B11372  16.249   5.683   7.013  0.0484 -0.0785  0.0700
  796POPS   C3B11373  16.069   5.833   7.356  0.1495  0.0947 -0.1727
  796POPS   C4B11374  16.030   5.722   7.739  0.1700 -0.2471 -0.0575
  797POPS   CNO11375   7.903  17.685   5.334  0.0018 -0.2185  0.1192
  797POPS   PO411376   7.481  17.936   5.242 -0.1977  0.2244  0.1584
  797POPS   GL111377   7.467  17.945   5.673 -0.0937  0.4029  0.2072
  797POPS   GL211378   7.740  17.957   5.761  0.0843  0.2751 -0.1213
  797POPS   C1A11379   7.104  17.995   5.924  0.4435 -0.1204  0.1310
  797POPS   D2A11380   6.845  17.898   6.209  0.3358 -0.3316 -0.0290
  797POPS   C3A11381   6.485  18.148   6.231  0.1414 -0.0713 -0.2760
  797POPS   C4A11382   6.376  18.358   6.614 -0.0395  0.1315 -0.0819
  797POPS   C1B11383   7.967  17.606   5.913 -0.1061 -0.1936  0.2400
  797POPS   C2B11384   8.201  17.285   6.128 -0.1219  0.2826 -0.0064
  797POPS   C3B11385   8.302  17.164   6.536 -0.0841  0.0485  0.1610
  797POPS   C4B11386   8.231  16.877   6.779 -0.2742  0.0272 -0.0426
  798POPS   CNO11387  17.981   7.066   6.061 -0.1234 -0.1151 -0.0047
  798POPS   PO411388  17.755   7.370   5.912 -0.1131  0.0609  0.1281
  798POPS   GL111389  17.496   7.477   6.265  0.1930 -0.1331 -0.1635
  798POPS   GL211390  17.403   7.734   6.104  0.0156 -0.2010 -0.1512
  798POPS   C1A11391  17.508   7.405   6.630 -0.1142 -0.0065  0.1451
  798POPS   D2A11392  17.692   7.188   7.088  0.2330  0.1291 -0.0082
  798POPS   C3A11393  17.719   7.501   7.374 -0.1559 -0.1411  0.0627
  798POPS   C4A11394  18.025   7.798   7.567  0.1658  0.0891 -0.4608
  798POPS   C1B11395  17.752   8.043   6.257 -0.4135 -0.2304  0.2063
  798POPS   C2B11396  17.770   8.466   6.448 -0.2415  0.3778  0.1867
  798POPS   C3B11397  17.850   8.593   6.891  0.3932 -0.0041 -0.2641
  798POPS   C4B11398  17.837   8.509   7.275 -0.1030 -0.1110  0.0124
  799POPS   CNO11399   8.689   1.852   5.544 -0.1045 -0.2080 -0.0605
  799POPS   PO411400   8.749   1.434   5.633  0.1288  0.0102  0.0647
  799POPS   GL111401   8.642   1.627   6.006 -0.0466  0.2085 -0.0828
  799POPS   GL211402   8.462   1.352   6.147 -0.2526 -0.0841 -0.1626
  799POPS   C1A11403   8.505   1.794   6.407 -0.2184  0.1169  0.3945
  799POPS   D2A11404   8.578   1.955   6.781  0.0579 -0.0305  0.4818
  799POPS   C3A11405   8.668   1.717   7.114 -0.0300 -0.1786 -0.4289
  799POPS   C4A11406   8.756   1.522   7.650 -0.2259 -0.0894 -0.3878
  799POPS   C1B11407   8.413   1.237   6.558 -0.5673 -0.2875 -0.0395
  799POPS   C2B11408   8.411   1.261   6.984 -0.0159  0.0900  0.2486
  799POPS   C3B11409   8.384   1.288   7.368  0.0454 -0.0636  0.2512
  799POPS   C4B11410   8.000   1.603   7.516  0.1067 -0.0288 -0.4409
  800POPS   CNO11411   8.583   3.758   4.334 -0.1050 -0.0108 -0.0834
  800POPS   PO411412   8.359   3.633   4.700 -0.1948 -0.1156  0.2147
  800POPS   GL111413   8.592   3.488   5.119  0.0143  0.0733 -0.2117
  800POPS   GL211414   8.884   3.468   5.206  0.1688  0.1406 -0.0580
  800POPS   C1A11415   8.557   3.733   5.547  0.5793  0.2671 -0.1840
  800POPS   D2A11416   8.561   4.182   5.783 -0.0465  0.1021  0.1026
  800POPS   C3A11417   8.422   4.147   6.192 -0.1211 -0.0221  0.0960
  800POPS   C4A11418   8.342   3.899   6.429  0.2543  0.0401  0.1081
  800POPS   C1B11419   8.954   3.263   5.599  0.0750  0.0801  0.1845
  800POPS   C2B11420   8.775   3.176   5.926  0.1732  0.1170 -0.2073
  800POPS   C3B11421   8.848   3.318   6.293  0.1695 -0.1737  0.2189
  800POPS   C4B11422   9.131   3.485   6.632 -0.2694 -0.1083  0.0896
  801POPS   CNO11423  14.027  10.587   5.444  0.0726  0.1491  0.1327
  801POPS   PO411424  13.949  10.479   5.863 -0.2669 -0.2150  0.0033
  801POPS   GL111425  13.889  10.415   6.276 -0.2514  0.1427 -0.1267
  801POPS   GL211426  14.166  10.239   6.438  0.3738 -0.0950 -0.4685
  801POPS   C1A11427  13.778  10.354   6.685 -0.1197 -0.1469 -0.0984
  801POPS   D2A11428  13.841  10.164   6.973  0.1282  0.2345 -0.0976
  801POPS   C3A11429  13.561  10.044   7.277 -0.0107 -0.0126  0.0512
  801POPS   C4A11430  13.215   9.678   7.305  0.2715  0.0893  0.1686
  801POPS   C1B11431  14.228   9.961   6.795  0.0553  0.0708  0.1788
  801POPS   C2B11432  14.355   9.461   6.608 -0.1257 -0.1502 -0.1663
  801POPS   C3B11433  14.183   9.233   6.410 -0.0230  0.1186 -0.0857
  801POPS   C4B11434  13.882   8.816   6.385 -0.2028 -0.0998  0.0307
  802POPS   CNO11435   4.668   7.634   5.379  0.1397  0.0675  0.0788
  802POPS   PO411436   4.866   7.936   5.229 -0.0861  0.2674  0.0015
  802POPS   GL111437   4.782   8.036   5.673  0.2831 -0.2587 -0.0265
  802POPS   GL211438   4.665   8.299   5.875 -0.3817  0.0674 -0.0592
  802POPS   C1A11439   5.012   7.867   6.139  0.2434  0.0982  0.1256
  802POPS   D2A11440   5.359   7.810   6.404 -0.1417  0.0027  0.0470
  802POPS   C3A11441   5.419   7.888   6.838 -0.2147 -0.0004  0.2935
  802POPS   C4A11442   5.614   7.955   7.220  0.0750 -0.1259  0.3136
  802POPS   C1B11443   4.727   8.342   6.288 -0.4038  0.4298 -0.0050
  802POPS   C2B11444   4.735   8.455   6.719  0.3512  0.1005 -0.0696
  802POPS   C3B11445   4.810   8.460   7.121  0.0176 -0.1101  0.1277
  802POPS   C4B11446   4.867   8.817   7.372  0.0937  0.0527 -0.1340
  803POPS   CNO11447  15.077   3.299   6.158 -0.1579  0.0452  0.1369
  803POPS   PO411448  15.291   3.103   5.881  0.2100 -0.1526 -0.0435
  803POPS   GL111449  15.389   2.742   6.188 -0.2991 -0.2657 -0.2883
  803POPS   GL211450  15.273   2.403   6.311 -0.0763  0.0831  0.0564
  803POPS   C1A11451  15.387   2.869   6.651 -0.2760 -0.0657 -0.2138
  803POPS   D2A11452  15.526   2.666   7.064  0.1933 -0.2215 -0.1130
  803POPS   C3A11453  15.795   3.084   7.319 -0.1093 -0.1020 -0.4047
  803POPS   C4A11454  15.947   3.288   7.640 -0.0552 -0.1115  0.3342
  803POPS   C1B11455  15.002   2.449   6.690 -0.1099  0.0078  0.3025
  803POPS   C2B11456  15.002   2.823   6.920  0.1045  0.0607 -0.0259
  803POPS   C3B11457  14.816   3.142   7.213  0.2066  0.3088  0.0263
  803POPS   C4B11458  15.030   3.405   7.376  0.1310  0.1118 -0.0111
  804POPS   CNO11459  16.673   3.224   5.800 -0.1684 -0.0297  0.2620
  804POPS   PO411460  16.616   3.359   6.189  0.1569  0.1547 -0.0245
  804POPS   GL111461  16.669   3.606   6.506 -0.0514  0.3645  0.0900
  804POPS   GL211462  17.034   3.572   6.489 -0.1118 -0.2353  0.4150
  804POPS   C1A11463  16.660   3.918   6.809 -0.2697 -0.0121  0.0479
  804POPS   D2A11464  16.417   4.029   7.146 -0.1409 -0.2496  0.1890
  804POPS   C3A11465  16.437   4.308   7.440 -0.2315 -0.1445  0.1081
  804POPS   C4A11466  16.405   4.532   7.886  0.2435  0.1431  0.1369
  804POPS   C1B11467  17.119   3.653   6.932  0.1463  0.2029 -0.1713
  804POPS   C2B11468  17.223   3.678   7.344 -0.4373 -0.1314 -0.1009
  804POPS   C3B11469  17.266   3.472   7.714  0.1052  0.2284  0.0408
  804POPS   C4B11470  17.416   2.962   7.787 -0.1272 -0.4264 -0.2455
  805POPS   CNO11471  12.897  13.883   5.788 -0.0539  0.2037  0.1701
  805POPS   PO411472  13.021  14.382   5.618  0.0641  0.1876  0.0193
  805POPS   GL111473  12.818  14.397   5.982 -0.0820 -0.2400 -0.1006
  805POPS   GL211474  12.836  14.660   6.139  0.1364 -0.3310 -0.0898
  805POPS   C1A11475  12.829  14.090   6.249  0.0714 -0.2922 -0.1025
  805POPS   D2A11476  12.565  13.989   6.576 -0.2277  0.0189  0.0199
  805POPS   C3A11477  12.736  14.182   6.989 -0.2916 -0.0380  0.1046
  805POPS   C4A11478  12.600  14.355   7.404  0.1763 -0.0972  0.0212
  805POPS   C1B11479  12.488  14.441   6.324  0.2052 -0.2045 -0.0953
  805POPS   C2B11480  12.187  14.286   6.667 -0.1267  0.0183 -0.0748
  805POPS   C3B11481  11.915  14.024   6.602 -0.2987  0.0541  0.0367
  805POPS   C4B11482  11.638  13.810   6.268 -0.5082 -0.0635  0.1541
  806POPS   CNO11483   9.968  12.791   5.292  0.0018 -0.1263  0.1659
  806POPS   PO411484  10.322  12.837   5.268 -0.1008 -0.1851  0.0414
  806POPS   GL111485  10.507  12.928   5.565 -0.0670 -0.0191  0.1291
  806POPS   GL211486  10.465  12.948   5.907 -0.0505 -0.1712 -0.0533
  806POPS   C1A11487  10.629  12.521   5.769  0.1277  0.1316 -0.0547
  806POPS   D2A11488  10.841  12.569   6.158  0.0115 -0.1024 -0.1326
  806POPS   C3A11489  10.860  12.522   6.589 -0.1337 -0.2200  0.5120
  806POPS   C4A11490  11.075  12.673   6.871 -0.0837 -0.0448 -0.1277
  806POPS   C1B11491  10.192  12.742   6.202  0.2783  0.2702 -0.3069
  806POPS   C2B11492   9.975  12.421   6.506  0.1730 -0.1382 -0.2383
  806POPS   C3B11493   9.902  12.146   6.925 -0.3608  0.0373 -0.4334
  806POPS   C4B11494   9.745  12.316   7.362 -0.0758 -0.3449 -0.2167
  807POPS   CNO11495   7.002  11.611   4.666  0.2333  0.2821  0.3257
  807POPS   PO411496   6.742  11.590   5.007 -0.0300 -0.5009  0.1388
  807POPS   GL111497   6.491  11.461   5.375  0.1535  0.3083 -0.1163
  807POPS   GL211498   6.200  11.653   5.468 -0.1649 -0.1975 -0.1630
  807POPS   C1A11499   6.285  11.168   5.648  0.0745  0.1838 -0.2573
  807POPS   D2A11500   6.296  11.205   6.152 -0.1555 -0.2160 -0.0683
  807POPS   C3A11501   6.258  11.282   6.602 -0.0115  0.0279 -0.1637
  807POPS   C4A11502   6.152  11.419   6.956 -0.2561 -0.1055  0.0272
  807POPS   C1B11503   6.134  11.628   5.924 -0.0669 -0.1595 -0.3232
  807POPS   C2B11504   6.137  11.725   6.370  0.3904  0.1411  0.2522
  807POPS   C3B11505   6.401  11.817   6.685  0.1892  0.0270 -0.1451
  807POPS   C4B11506   6.716  12.079   6.768 -0.0127 -0.0453 -0.0473
  808POPS   CNO11507  12.475  11.044   5.264  0.1583 -0.1833  0.1347
  808POPS   PO411508  12.266  10.669   5.665  0.4544 -0.2449  0.4171
  808POPS   GL111509  12.169  10.725   6.098  0.1247  0.0283 -0.2284
  808POPS   GL211510  11.968  10.966   6.182  0.2353  0.3452  0.1601
  808POPS   C1A11511  11.952  10.542   6.358 -0.0490 -0.0605 -0.3812
  808POPS   D2A11512  11.833  10.358   6.687 -0.1508 -0.1256 -0.1861
  808POPS   C3A11513  11.994  10.450   7.036  0.1086  0.0215 -0.1749
  808POPS   C4A11514  12.064  10.320   7.415 -0.0866 -0.1288  0.3135
  808POPS   C1B11515  11.522  11.036   6.487 -0.1968 -0.1253  0.1887
  808POPS   C2B11516  11.239  11.166   6.760  0.3373 -0.1269  0.0747
  808POPS   C3B11517  11.137  10.980   7.201 -0.1665  0.2172  0.3993
  808POPS   C4B11518  11.429  10.862   7.504 -0.0956  0.0931 -0.0657
  809POPS   CNO11519  14.555   8.503   5.161  0.3448  0.1067  0.1707
  809POPS   PO411520  14.466   8.083   5.293  0.2144 -0.1197  0.2269
  809POPS   GL111521  14.375   8.151   5.675  0.0483 -0.1857  0.1757
  809POPS   GL211522  14.167   8.164   6.004  0.2267 -0.2476  0.0333
  809POPS   C1A11523  14.669   8.097   6.048 -0.2586  0.0433 -0.1517
  809POPS   D2A11524  14.925   7.982   6.392  0.0928  0.1478  0.2834
  809POPS   C3A11525  14.800   7.984   6.775  0.0542 -0.1376 -0.2353
  809POPS   C4A11526  14.711   8.181   7.160 -0.1414 -0.0314 -0.1735
  809POPS   C1B11527  13.822   8.357   6.207 -0.2330  0.2405  0.2319
  809POPS   C2B11528  13.734   8.405   6.611 -0.2781 -0.1000 -0.0201
  809POPS   C3B11529  13.659   8.368   7.107 -0.0912  0.2792  0.0144
  809POPS   C4B11530  13.754   8.295   7.549  0.0705 -0.0932  0.1736
  810POPS   CNO11531  11.008  13.463   4.769  0.0828 -0.1480 -0.0196
  810POPS   PO411532  11.014  13.848   4.904 -0.0797  0.2782  0.0687
  810POPS   GL111533  10.928  13.990   5.358 -0.1429 -0.0232 -0.1094
  810POPS   GL211534  10.919  13.804   5.675  0.1111 -0.1629 -0.0034
  810POPS   C1A11535  10.756  14.259   5.714 -0.2855  0.0605 -0.2509
  810POPS   D2A11536  10.549  14.509   6.019  0.0196 -0.0518 -0.5398
  810POPS   C3A11537  10.496  14.331   6.499 -0.0549 -0.1395  0.4677
  810POPS   C4A11538  10.309  14.398   6.905  0.2653  0.3821  0.0573
  810POPS   C1B11539  10.860  13.772   6.106  0.2715  0.0194 -0.0753
  810POPS   C2B11540  11.077  13.687   6.554  0.1024 -0.1602 -0.1113
  810POPS   C3B11541  11.136  13.674   6.933 -0.2549 -0.4268  0.0445
  810POPS   C4B11542  11.141  13.225   7.207 -0.0372  0.1641 -0.0902
  811POPS   CNO11543  10.234  13.371   5.293 -0.2604  0.2386 -0.1935
  811POPS   PO411544   9.959  13.607   5.523  0.0052  0.2436  0.1374
  811POPS   GL111545   9.908  13.598   5.986  0.1675 -0.0183  0.1058
  811POPS   GL211546   9.998  13.890   6.045  0.4835 -0.0977  0.2394
  811POPS   C1A11547   9.594  13.454   6.345 -0.1240  0.0611 -0.0250
  811POPS   D2A11548   9.472  13.228   6.776 -0.3299 -0.0382  0.3673
  811POPS   C3A11549   9.291  13.375   6.984 -0.0297  0.3896 -0.2851
  811POPS   C4A11550   9.337  13.472   7.360  0.1483  0.1291  0.0352
  811POPS   C1B11551   9.754  13.927   6.379  0.3047 -0.2200  0.0948
  811POPS   C2B11552   9.679  13.769   6.713  0.1043 -0.2733  0.1648
  811POPS   C3B11553   9.798  13.496   6.995  0.3168  0.1808 -0.1845
  811POPS   C4B11554   9.837  13.283   7.246  0.0997  0.0002  0.1062
  812YOPS   CNO11555  11.802   7.539   5.466  0.1324 -0.0787 -0.2432
  812YOPS   PO411556  11.944   7.384   5.744 -0.2000 -0.1134  0.2483
  812YOPS   GL111557  12.037   7.442   6.136  0.1419  0.2266 -0.2084
  812YOPS   GL211558  12.312   7.511   6.293 -0.1309  0.1639 -0.2980
  812YOPS   C1A11559  11.809   7.487   6.460  0.3623  0.3282  0.1639
  812YOPS   D2A11560  11.735   7.456   6.853 -0.1539 -0.0864  0.0140
  812YOPS   C3A11561  11.730   7.121   7.103  0.4384 -0.3938  0.0906
  812YOPS   C4A11562  11.722   7.202   7.515 -0.2211 -0.0617 -0.0195
  812YOPS   C1B11563  12.185   7.333   6.705 -0.0440  0.1092 -0.1711
  812YOPS   C2B11564  12.224   7.442   7.055  0.0457  0.0425  0.0224
  812YOPS   D3B11565  12.520   7.684   7.333 -0.1844  0.0644 -0.0248
  812YOPS   C4B11566  12.799   7.429   7.554 -0.0763  0.0505  0.0668
  813YOPS   CNO11567  13.017  11.174   5.283  0.0228  0.0817 -0.2090
  813YOPS   PO411568  12.750  11.336   5.591  0.1744 -0.0248  0.3625
  813YOPS   GL111569  12.605  11.228   5.939  0.0843  0.0288 -0.3273
  813YOPS   GL211570  12.841  11.545   6.035  0.7039 -0.0201 -0.2150
  813YOPS   C1A11571  12.422  11.039   6.354 -0.0061 -0.2790  0.3316
  813YOPS   D2A11572  12.061  10.888   6.677  0.3253 -0.0232  0.1037
  813YOPS   C3A11573  11.669  10.781   6.874 -0.0459  0.2475  0.2184
  813YOPS   C4A11574  11.579  10.458   7.235 -0.0428  0.0542 -0.0567
  813YOPS   C1B11575  12.559  11.686   6.265 -0.1658 -0.2935 -0.0272
  813YOPS   C2B11576  12.723  11.730   6.603  0.0423 -0.0571 -0.0355
  813YOPS   D3B11577  12.708  11.700   7.097 -0.3363 -0.4347  0.0795
  813YOPS   C4B11578  12.431  11.553   7.308  0.0696 -0.0659 -0.1706
  814YOPS   CNO11579   5.376   0.744   4.501  0.0641 -0.1546 -0.1928
  814YOPS   PO411580   5.277   0.628   4.932  0.1890  0.1495 -0.1779
  814YOPS   GL111581   5.569   0.763   5.331  0.0134  0.1245 -0.0039
  814YOPS   GL211582   5.733   0.512   5.439  0.3587  0.1229  0.0261
  814YOPS   C1A11583   5.624   0.996   5.765  0.2829  0.0336 -0.1821
  814YOPS   D2A11584   6.009   1.091   6.134  0.1490 -0.0577 -0.3227
  814YOPS   C3A11585   6.252   0.914   6.561 -0.2794 -0.0609  0.3786
  814YOPS   C4A11586   6.017   0.721   6.817 -0.3107  0.2450 -0.1981
  814YOPS   C1B11587   6.188   0.372   5.657 -0.0130  0.1603  0.3167
  814YOPS   C2B11588   6.399   0.242   5.949 -0.1073 -0.1481 -0.0473
  814YOPS   D3B11589   6.881   0.178   6.054  0.1188  0.0092 -0.1286
  814YOPS   C4B11590   6.899  -0.076   6.399  0.3627  0.0324 -0.2718
  815YOPS   CNO11591   7.946  15.936   5.279 -0.1367  0.0022 -0.2186
  815YOPS   PO411592   8.345  15.744   5.260  0.2549  0.0448 -0.1323
  815YOPS   GL111593   8.073  15.606   5.717  0.0051 -0.0661 -0.2916
  815YOPS   GL211594   7.763  15.578   5.643 -0.1969  0.1654  0.0673
  815YOPS   C1A11595   7.791  15.584   6.123  0.2260  0.0802 -0.1334
  815YOPS   D2A11596   7.520  15.695   6.469 -0.0533 -0.3389  0.0247
  815YOPS   C3A11597   7.207  15.943   6.444  0.0650  0.0047 -0.0073
  815YOPS   C4A11598   7.148  16.211   6.811 -0.0984 -0.1491  0.1469
  815YOPS   C1B11599   7.360  15.767   5.893 -0.0869 -0.1328 -0.1632
  815YOPS   C2B11600   7.628  16.124   6.261  0.4907 -0.0357 -0.1310
  815YOPS   D3B11601   7.611  16.062   6.772 -0.1608 -0.2102 -0.0492
  815YOPS   C4B11602   7.374  15.740   6.991  0.1793 -0.0986  0.3486
  816YOPS   CNO11603   4.884  15.973   4.906  0.2423 -0.3478 -0.1921
  816YOPS   PO411604   5.082  15.837   5.259  0.0549 -0.0802 -0.1510
  816YOPS   GL111605   5.026  15.950   5.624 -0.0807  0.3798  0.0757
  816YOPS   GL211606   4.730  15.981   5.777  0.0004 -0.1066  0.2719
  816YOPS   C1A11607   5.143  15.822   6.048 -0.0833 -0.0682  0.0638
  816YOPS   D2A11608   5.158  15.849   6.377 -0.0190  0.1791  0.0008
  816YOPS   C3A11609   4.858  15.818   6.548  0.0560  0.1403 -0.3012
  816YOPS   C4A11610   4.832  15.423   6.630  0.1200 -0.0263  0.1452
  816YOPS   C1B11611   4.568  15.803   6.090  0.0228 -0.0224 -0.0361
  816YOPS   C2B11612   4.396  15.641   6.454 -0.4706  0.0747  0.2185
  816YOPS   D3B11613   4.085  15.398   6.550 -0.0979 -0.2721  0.4442
  816YOPS   C4B11614   3.893  15.104   6.460  0.0842 -0.0200 -0.3736
  817YOPS   CNO11615  15.726  12.992   5.027  0.0035  0.2804 -0.1147
  817YOPS   PO411616  15.584  12.843   5.310 -0.1783 -0.1173 -0.0743
  817YOPS   GL111617  15.380  12.673   5.629  0.0719  0.1292 -0.1346
  817YOPS   GL211618  15.226  12.822   5.727 -0.2801  0.3174 -0.1967
  817YOPS   C1A11619  15.310  12.284   5.886 -0.3689 -0.0829  0.1332
  817YOPS   D2A11620  15.449  11.924   6.068 -0.1583  0.3399 -0.4686
  817YOPS   C3A11621  15.729  11.628   6.349  0.0470  0.0421  0.0725
  817YOPS   C4A11622  15.574  11.208   6.487  0.2168 -0.1341 -0.4412
  817YOPS   C1B11623  14.973  12.571   6.094 -0.0769 -0.1063  0.2297
  817YOPS   C2B11624  14.670  12.827   6.404 -0.0172  0.1911  0.2744
  817YOPS   D3B11625  14.554  12.846   6.871  0.1849  0.1886  0.0337
  817YOPS   C4B11626  14.532  12.463   7.108  0.1694  0.0359 -0.2329
  818YOPS   CNO11627  18.648   5.490   5.324 -0.1239  0.0378 -0.2470
  818YOPS   PO411628  18.907   5.696   5.644  0.1052 -0.1344  0.1846
  818YOPS   GL111629  18.891   5.829   6.037 -0.2153 -0.1325  0.0271
  818YOPS   GL211630  18.868   5.983   6.395 -0.0600 -0.0844  0.0893
  818YOPS   C1A11631  19.279   5.856   6.173 -0.0556  0.3268 -0.0126
  818YOPS   D2A11632  19.554   5.811   6.443  0.1150 -0.1476 -0.1347
  818YOPS   C3A11633  19.866   5.642   6.719  0.4050 -0.0252 -0.1136
  818YOPS   C4A11634  19.956   5.360   6.980  0.0821  0.1810 -0.0278
  818YOPS   C1B11635  19.113   5.952   6.773 -0.1385  0.1003 -0.0236
  818YOPS   C2B11636  19.459   5.696   7.012 -0.0506 -0.1457 -0.2547
  818YOPS   D3B11637  19.542   5.679   7.423 -0.4655 -0.3846  0.1936
  818YOPS   C4B11638  19.751   5.959   7.752 -0.0470  0.0266  0.3827
  819YOPS   CNO11639   3.384  12.378   5.041  0.2312 -0.1027 -0.2276
  819YOPS   PO411640   3.470  12.008   5.027  0.1829  0.2315 -0.1357
  819YOPS   GL111641   3.652  12.268   5.497  0.0838 -0.3119 -0.1614
  819YOPS   GL211642   3.357  12.286   5.557 -0.0520 -0.0196  0.1003
  819YOPS   C1A11643   3.772  12.016   5.881  0.0380 -0.0614 -0.1899
  819YOPS   D2A11644   3.628  11.897   6.284 -0.4720 -0.0370 -0.1442
  819YOPS   C3A11645   3.899  11.832   6.627  0.0309 -0.2023  0.0500
  819YOPS   C4A11646   3.709  11.514   6.891 -0.3438  0.0966  0.0485
  819YOPS   C1B11647   3.309  12.181   5.957  0.1135 -0.0124 -0.1753
  819YOPS   C2B11648   3.265  12.214   6.389 -0.1820  0.2731  0.1321
  819YOPS   D3B11649   3.335  11.974   6.740 -0.0300  0.0335 -0.2434
  819YOPS   C4B11650   3.445  11.902   7.145 -0.0575  0.0169 -0.1137
  820YOPS   CNO11651   0.927  10.667   4.557  0.2103  0.0196  0.0305
  820YOPS   PO411652   0.871  10.831   5.030 -0.0590 -0.1031 -0.1639
  820YOPS   GL111653   0.887  10.902   5.528 -0.1702 -0.1746 -0.1885
  820YOPS   GL211654   1.071  11.206   5.670 -0.2899  0.2049  0.0661
  820YOPS   C1A11655   0.775  10.963   6.022  0.0756 -0.2310  0.1747
  820YOPS   D2A11656   0.735  11.177   6.466 -0.0308  0.0442  0.0149
  820YOPS   C3A11657   0.800  11.286   6.939  0.0631  0.0012  0.0234
  820YOPS   C4A11658   0.726  11.427   7.298 -0.0297  0.1573  0.0869
  820YOPS   C1B11659   1.172  11.188   6.129 -0.1592  0.0571 -0.0014
  820YOPS   C2B11660   1.183  11.218   6.623 -0.2940 -0.0422  0.1766
  820YOPS   D3B11661   1.301  11.212   7.054 -0.0493 -0.0401  0.2434
  820YOPS   C4B11662   1.624  10.912   6.997 -0.3267  0.1904 -0.3539
  821YOPS   CNO11663   1.294  18.653   5.267  0.0422  0.4527 -0.1351
  821YOPS   PO411664   1.120  18.875   5.621 -0.0025 -0.2253 -0.0075
  821YOPS   GL111665   0.821  18.894   5.984  0.0101 -0.0066 -0.0355
  821YOPS   GL211666   0.578  19.112   5.941 -0.0592  0.2338 -0.1044
  821YOPS   C1A11667   0.684  18.888   6.424  0.2836 -0.2139  0.1746
  821YOPS   D2A11668   0.716  18.914   6.840 -0.0554  0.3776 -0.0444
  821YOPS   C3A11669   0.757  18.882   7.207 -0.0549 -0.1951 -0.1527
  821YOPS   C4A11670   1.097  18.973   7.381 -0.1551 -0.2505 -0.2271
  821YOPS   C1B11671   0.246  19.159   6.264  0.2387 -0.0839 -0.2975
  821YOPS   C2B11672  -0.045  19.377   6.506 -0.1675  0.0149  0.1459
  821YOPS   D3B11673  -0.232  19.660   6.324  0.2744 -0.0432 -0.1846
  821YOPS   C4B11674  -0.702  19.598   6.240  0.0319 -0.1598 -0.1320
  822YOPS   CNO11675   3.200   2.261   5.162 -0.0124 -0.2229  0.0631
  822YOPS   PO411676   2.852   2.569   5.406 -0.1340  0.1708 -0.1031
  822YOPS   GL111677   2.967   2.623   5.806  0.0996  0.1162 -0.3407
  822YOPS   GL211678   3.240   2.840   5.917  0.1149  0.4711 -0.0272
  822YOPS   C1A11679   3.003   2.561   6.293 -0.0516 -0.0674  0.2070
  822YOPS   D2A11680   3.157   2.480   6.697 -0.0002  0.1102  0.1919
  822YOPS   C3A11681   3.051   2.120   6.936 -0.2048 -0.1083  0.3044
  822YOPS   C4A11682   2.735   2.073   7.210  0.0463 -0.1886  0.2868
  822YOPS   C1B11683   3.501   3.236   5.981  0.0412 -0.0505  0.0501
  822YOPS   C2B11684   3.628   3.277   6.435  0.0709  0.1929 -0.2499
  822YOPS   D3B11685   3.629   3.178   6.890 -0.2494  0.2974 -0.2758
  822YOPS   C4B11686   3.624   2.739   6.928  0.1993  0.0473  0.2104
  823YOPS   CNO11687  13.388  10.364   5.939 -0.0840  0.2276 -0.2603
  823YOPS   PO411688  13.196  10.716   5.824  0.0585 -0.1509  0.3234
  823YOPS   GL111689  12.908  10.508   6.125 -0.4829  0.1832 -0.0041
  823YOPS   GL211690  12.674  10.674   6.187 -0.0430  0.2801  0.2306
  823YOPS   C1A11691  12.770  10.241   6.456 -0.1265  0.0336 -0.2777
  823YOPS   D2A11692  13.117   9.994   6.532  0.1059  0.0305  0.0591
  823YOPS   C3A11693  13.424   9.922   6.796  0.2007  0.0028 -0.1265
  823YOPS   C4A11694  13.653   9.587   7.112  0.3282  0.4399  0.1314
  823YOPS   C1B11695  12.865  10.804   6.565  0.0389  0.0283 -0.0848
  823YOPS   C2B11696  12.555  10.880   6.825 -0.2119 -0.5379  0.1002
  823YOPS   D3B11697  12.410  10.726   7.263  0.2647 -0.2770  0.1875
  823YOPS   C4B11698  12.361  11.065   7.542 -0.1133 -0.2789  0.1326
  824YOPS   CNO11699   5.917   0.015   4.694 -0.2010  0.0383 -0.1066
  824YOPS   PO411700   6.357  -0.036   4.775 -0.1179  0.1464 -0.0526
  824YOPS   GL111701   6.606   0.021   5.207 -0.1212  0.2243 -0.3353
  824YOPS   GL211702   6.507   0.071   5.479 -0.1464 -0.3853 -0.0075
  824YOPS   C1A11703   6.887  -0.221   5.558 -0.2154  0.1925  0.0915
  824YOPS   D2A11704   7.148  -0.196   5.997 -0.2676  0.0278  0.0146
  824YOPS   C3A11705   7.497  -0.129   6.175 -0.0894  0.3153 -0.0275
  824YOPS   C4A11706   7.633  -0.118   5.693 -0.0852 -0.1112 -0.3635
  824YOPS   C1B11707   6.333  -0.242   5.540  0.1390  0.0139 -0.2798
  824YOPS   C2B11708   6.367  -0.579   5.759 -0.1332  0.2204  0.1661
  824YOPS   D3B11709   6.041  -0.883   5.909  0.0419  0.4072 -0.3554
  824YOPS   C4B11710   6.004  -0.982   6.368 -0.2357 -0.1188  0.1723
  825YOPS   CNO11711   4.843   0.718   5.147  0.0377 -0.0509  0.2897
  825YOPS   PO411712   4.592   1.028   5.061  0.3491 -0.1343  0.0365
  825YOPS   GL111713   4.513   1.050   5.594  0.0381  0.2830 -0.1439
  825YOPS   GL211714   4.351   0.808   5.718 -0.2251 -0.0741 -0.1559
  825YOPS   C1A11715   4.772   0.856   5.983  0.4534  0.1638  0.1025
  825YOPS   D2A11716   5.005   1.117   6.336 -0.0451 -0.3432 -0.0331
  825YOPS   C3A11717   5.359   1.327   6.588 -0.3233 -0.2331 -0.1009
  825YOPS   C4A11718   5.691   1.294   6.865 -0.2453 -0.1023  0.1928
  825YOPS   C1B11719   4.476   0.577   6.208  0.0397 -0.1119  0.1056
  825YOPS   C2B11720   4.352   0.316   6.554  0.1712  0.2397  0.3372
  825YOPS   D3B11721   4.505   0.090   6.905  0.2550  0.4216 -0.3566
  825YOPS   C4B11722   4.379  -0.322   6.859  0.3874 -0.3338 -0.1860
  826YOPS   CNO11723   5.365   6.064   4.907  0.0844  0.0685 -0.0879
  826YOPS   PO411724   5.615   6.055   5.291  0.0332  0.3620 -0.0927
  826YOPS   GL111725   5.595   6.263   5.779 -0.3361 -0.0002 -0.1100
  826YOPS   GL211726   5.364   6.507   5.952  0.0951  0.0265  0.1966
  826YOPS   C1A11727   5.513   6.138   6.225  0.2243  0.1152 -0.2186
  826YOPS   D2A11728   5.539   6.046   6.663  0.1857  0.2353  0.1644
  826YOPS   C3A11729   5.610   5.797   6.986  0.0226 -0.1499  0.1976
  826YOPS   C4A11730   5.433   5.379   6.988  0.0013  0.2342  0.3022
  826YOPS   C1B11731   4.984   6.304   6.201 -0.0192 -0.1288  0.2594
  826YOPS   C2B11732   5.010   6.294   6.593 -0.1566  0.0911  0.0382
  826YOPS   D3B11733   4.686   6.200   6.787  0.3363  0.2467 -0.0330
  826YOPS   C4B11734   4.682   5.982   7.108 -0.0163  0.2766  0.0823
  827YOPS   CNO11735   6.134   2.811   4.728  0.2812  0.1506 -0.1184
  827YOPS   PO411736   6.300   2.714   5.169  0.0928 -0.0067 -0.0199
  827YOPS   GL111737   6.461   2.724   5.554 -0.0876  0.0668 -0.1086
  827YOPS   GL211738   6.223   2.771   5.730 -0.1299 -0.1593  0.2356
  827YOPS   C1A11739   6.654   2.479   5.860 -0.4445  0.2226  0.1991
  827YOPS   D2A11740   6.632   2.583   6.198  0.0751 -0.1540 -0.0898
  827YOPS   C3A11741   6.487   2.360   6.553  0.4030 -0.1720 -0.1999
  827YOPS   C4A11742   6.115   2.104   6.485 -0.2206  0.2269  0.0324
  827YOPS   C1B11743   6.206   2.959   6.145 -0.0856  0.0636 -0.0481
  827YOPS   C2B11744   6.418   3.068   6.541  0.5829 -0.0154 -0.0411
  827YOPS   D3B11745   6.526   3.324   6.898 -0.1064  0.2681  0.0872
  827YOPS   C4B11746   6.748   3.791   6.986 -0.1858 -0.2522 -0.0344
  828YOPS   CNO11747   8.093  10.278   4.592 -0.1583  0.2033 -0.0236
  828YOPS   PO411748   7.915  10.127   5.089  0.1065  0.1119  0.2158
  828YOPS   GL111749   7.842  10.106   5.500 -0.1434 -0.0757 -0.1420
  828YOPS   GL211750   8.112  10.136   5.722  0.0628 -0.1182 -0.2160
  828YOPS   C1A11751   7.601  10.107   5.862  0.1399 -0.4371  0.0131
  828YOPS   D2A11752   7.534   9.648   6.140  0.0699 -0.3708  0.0125
  828YOPS   C3A11753   7.440   9.251   6.140 -0.0814  0.2172 -0.1530
  828YOPS   C4A11754   7.345   9.135   5.802  0.3054 -0.1726  0.4159
  828YOPS   C1B11755   8.035  10.312   6.107 -0.2510 -0.5474  0.0035
  828YOPS   C2B11756   8.031  10.453   6.436 -0.0350  0.0531  0.1577
  828YOPS   D3B11757   8.230  10.865   6.578 -0.3321  0.0917  0.0187
  828YOPS   C4B11758   7.991  11.162   6.934 -0.1647 -0.0127 -0.0540
  829YOPS   CNO11759  10.547   6.920   5.581  0.1673 -0.1460 -0.1213
  829YOPS   PO411760  10.677   7.270   5.536 -0.1902  0.2845  0.1920
  829YOPS   GL111761  10.746   7.286   5.865 -0.0754  0.0119  0.5399
  829YOPS   GL211762  10.472   7.382   6.130 -0.0673  0.0397 -0.2334
  829YOPS   C1A11763  11.005   7.224   6.295 -0.0044 -0.0332  0.1090
  829YOPS   D2A11764  11.018   6.836   6.399  0.0404 -0.4043 -0.0140
  829YOPS   C3A11765  11.158   6.588   6.519 -0.4549 -0.4998 -0.0647
  829YOPS   C4A11766  11.261   6.505   6.941 -0.1255 -0.0678 -0.3909
  829YOPS   C1B11767  10.670   7.548   6.529 -0.0186 -0.0250 -0.1131
  829YOPS   C2B11768  10.684   7.678   6.889 -0.0582  0.2678  0.0315
  829YOPS   D3B11769  10.401   7.514   7.311 -0.0091  0.0155  0.1811
  829YOPS   C4B11770  10.032   7.442   7.465 -0.3828 -0.1184  0.3646
  830YOPS   CNO11771   8.483   7.357   4.842  0.1906 -0.1786  0.1666
  830YOPS   PO411772   8.175   7.188   5.042 -0.3536  0.0895 -0.3465
  830YOPS   GL111773   8.217   7.217   5.484  0.1532  0.1807  0.0529
  830YOPS   GL211774   8.442   7.095   5.702 -0.1038 -0.3187 -0.2117
  830YOPS   C1A11775   8.027   7.384   5.791  0.1096  0.2227 -0.0889
  830YOPS   D2A11776   7.959   7.366   6.316 -0.5236 -0.1999 -0.0326
  830YOPS   C3A11777   8.012   7.469   6.708 -0.2913 -0.1431  0.1252
  830YOPS   C4A11778   7.819   7.339   7.012 -0.1947  0.2539 -0.1371
  830YOPS   C1B11779   8.420   7.165   6.102  0.1014 -0.1003 -0.0506
  830YOPS   C2B11780   8.318   7.028   6.503  0.0358  0.1693  0.3684
  830YOPS   D3B11781   8.182   6.637   6.509  0.0212  0.2245  0.1191
  830YOPS   C4B11782   8.418   6.504   6.841  0.4399  0.1864 -0.0752
  831YOPS   CNO11783  14.303  17.352   5.709 -0.0474 -0.1630  0.1556
  831YOPS   PO411784  14.174  17.780   5.709 -0.0561  0.1389  0.0911
  831YOPS   GL111785  14.332  17.764   6.100  0.0277 -0.1288  0.2028
  831YOPS   GL211786  14.171  18.085   6.217 -0.0299 -0.0353 -0.2582
  831YOPS   C1A11787  14.470  17.819   6.465 -0.3692 -0.1393 -0.2105
  831YOPS   D2A11788  14.685  17.977   6.899  0.2093  0.0717 -0.0301
  831YOPS   C3A11789  14.919  17.800   7.099  0.2148 -0.3243 -0.1312
  831YOPS   C4A11790  14.899  17.433   7.052  0.0803  0.0455  0.1608
  831YOPS   C1B11791  13.887  17.727   6.513 -0.0992  0.0972  0.2005
  831YOPS   C2B11792  13.547  17.649   6.659 -0.2459 -0.1358 -0.2510
  831YOPS   D3B11793  13.585  17.539   7.171 -0.0223 -0.2847 -0.0227
  831YOPS   C4B11794  13.361  17.270   7.508 -0.1290 -0.0050 -0.0328
  832YOPS   CNO11795  16.823  17.510   5.569  0.0010 -0.0731 -0.1252
  832YOPS   PO411796  17.208  17.644   5.784 -0.0226  0.5912  0.0377
  832YOPS   GL111797  17.197  17.735   6.175  0.0884  0.0948  0.0163
  832YOPS   GL211798  17.447  17.971   6.242 -0.0515  0.0118  0.0376
  832YOPS   C1A11799  16.816  17.793   6.495 -0.0649  0.2143 -0.1567
  832YOPS   D2A11800  16.784  17.981   6.903  0.0332 -0.1039 -0.0811
  832YOPS   C3A11801  16.808  18.018   7.355  0.2593  0.0730 -0.2806
  832YOPS   C4A11802  16.603  18.486   7.337 -0.0545  0.2781 -0.1031
  832YOPS   C1B11803  17.552  18.100   6.564 -0.2868 -0.0602  0.0713
  832YOPS   C2B11804  17.826  18.002   6.875  0.1122 -0.1596  0.0020
  832YOPS   D3B11805  18.008  18.273   7.154  0.0816  0.3173 -0.1009
  832YOPS   C4B11806  18.421  18.290   7.144  0.0028  0.0542 -0.0096
  833YOPS   CNO11807   8.096   6.089   5.457 -0.2960  0.3553 -0.0139
  833YOPS   PO411808   8.018   5.702   5.170 -0.0252  0.0370  0.2777
  833YOPS   GL111809   7.788   5.705   5.591 -0.1905 -0.0874  0.3174
  833YOPS   GL211810   7.691   5.468   5.807  0.3817 -0.2102 -0.1565
  833YOPS   C1A11811   8.029   5.862   5.990 -0.0569 -0.3377 -0.1962
  833YOPS   D2A11812   8.151   5.745   6.383  0.1774  0.0944 -0.0111
  833YOPS   C3A11813   8.418   5.452   6.459 -0.3088 -0.5244  0.1945
  833YOPS   C4A11814   8.758   5.234   6.648  0.0530  0.2243 -0.0579
  833YOPS   C1B11815   7.534   5.499   6.269  0.1950 -0.0512  0.1666
  833YOPS   C2B11816   7.450   5.460   6.695 -0.1213  0.4818 -0.0522
  833YOPS   D3B11817   7.579   5.262   6.994  0.3596 -0.5195  0.3591
  833YOPS   C4B11818   7.301   4.946   7.067  0.1235  0.3160 -0.1358
  834YOPS   CNO11819   8.317   2.794   5.196 -0.0916 -0.0142 -0.0501
  834YOPS   PO411820   8.060   2.477   5.113  0.2907  0.3207  0.1252
  834YOPS   GL111821   7.814   2.468   5.453  0.4944  0.3744 -0.2186
  834YOPS   GL211822   8.057   2.370   5.670  0.1712  0.0834 -0.0419
  834YOPS   C1A11823   7.569   2.850   5.768 -0.0226 -0.1688 -0.0423
  834YOPS   D2A11824   7.319   3.124   5.947  0.1186  0.0053  0.0867
  834YOPS   C3A11825   7.136   3.471   6.098  0.2111  0.0494  0.1099
  834YOPS   C4A11826   7.336   3.512   6.364 -0.0157  0.3104 -0.0555
  834YOPS   C1B11827   8.099   2.649   6.029 -0.1138 -0.2064 -0.1836
  834YOPS   C2B11828   7.963   2.808   6.484  0.1036  0.0809  0.0245
  834YOPS   D3B11829   7.934   3.178   6.754 -0.0016 -0.0977 -0.0492
  834YOPS   C4B11830   7.479   3.251   6.879  0.2903  0.0051 -0.2035
  835YOPS   CNO11831  14.710   2.185   5.951  0.0681 -0.0177 -0.2023
  835YOPS   PO411832  14.501   2.592   5.854  0.1891 -0.0064 -0.3296
  835YOPS   GL111833  14.640   2.696   6.259  0.2650  0.0070 -0.0303
  835YOPS   GL211834  14.897   2.884   6.415 -0.0848 -0.0053  0.0856
  835YOPS   C1A11835  14.501   2.482   6.624  0.0795 -0.4375 -0.0112
  835YOPS   D2A11836  14.623   2.349   7.036  0.0066  0.0967  0.0732
  835YOPS   C3A11837  14.914   2.055   7.273 -0.0375  0.0470  0.0258
  835YOPS   C4A11838  14.778   2.115   7.607 -0.0371 -0.2207 -0.0886
  835YOPS   C1B11839  15.063   3.241   6.633  0.0683 -0.0283 -0.2051
  835YOPS   C2B11840  15.302   3.237   6.988  0.1408 -0.1555 -0.0999
  835YOPS   D3B11841  15.248   2.975   7.345 -0.0853  0.0344 -0.0947
  835YOPS   C4B11842  15.015   2.984   7.670  0.0999 -0.1018 -0.1444
  836YOPS   CNO11843  10.424   2.580   5.428  0.4237 -0.1027 -0.2459
  836YOPS   PO411844  10.312   2.531   5.808 -0.1364  0.0253  0.1351
  836YOPS   GL111845  10.506   2.641   6.254  0.1371 -0.1276 -0.2336
  836YOPS   GL211846  10.755   2.815   6.137  0.3011 -0.2686 -0.0721
  836YOPS   C1A11847  10.528   2.721   6.646 -0.2767  0.4147  0.0415
  836YOPS   D2A11848  10.508   2.756   7.058  0.0301  0.3397  0.1509
  836YOPS   C3A11849  10.319   2.484   7.396  0.0510 -0.2303  0.1494
  836YOPS   C4A11850  10.549   2.292   7.737  0.0973  0.1109 -0.0895
  836YOPS   C1B11851  10.974   2.755   6.439 -0.3877 -0.0634 -0.3252
  836YOPS   C2B11852  10.980   2.673   6.857  0.0825  0.1180 -0.3965
  836YOPS   D3B11853  11.154   2.437   7.157 -0.0545 -0.2080  0.1418
  836YOPS   C4B11854  10.874   2.512   7.469  0.0020 -0.0355 -0.3066
  837YOPS   CNO11855   2.158  18.370   5.423 -0.2350 -0.2023  0.0978
  837YOPS   PO411856   2.554  18.484   5.360  0.1374  0.2154 -0.2241
  837YOPS   GL111857   2.393  18.541   5.835 -0.0722 -0.0595  0.0172
  837YOPS   GL211858   2.125  18.420   5.927 -0.0967  0.0310  0.1920
  837YOPS   C1A11859   2.619  18.810   6.179 -0.2510  0.2173 -0.0573
  837YOPS   D2A11860   2.831  18.888   6.600  0.2411 -0.2064 -0.0429
  837YOPS   C3A11861   2.878  19.131   6.941  0.0150 -0.3344 -0.0642
  837YOPS   C4A11862   3.171  19.100   7.261 -0.1073  0.1085  0.5864
  837YOPS   C1B11863   2.104  18.567   6.239 -0.0447 -0.1330 -0.0281
  837YOPS   C2B11864   2.002  18.580   6.650 -0.3070 -0.1123  0.2614
  837YOPS   D3B11865   1.858  18.643   7.074  0.2033  0.1650 -0.0947
  837YOPS   C4B11866   1.603  18.719   7.483  0.2293  0.0775  0.2654
  838YOPS   CNO11867   6.552   0.557   5.287  0.2123 -0.0177  0.0799
  838YOPS   PO411868   6.590   0.974   5.112 -0.1516  0.0155  0.0201
  838YOPS   GL111869   6.604   0.935   5.586 -0.2422 -0.0556 -0.3806
  838YOPS   GL211870   6.711   1.304   5.796 -0.1279 -0.3509  0.0483
  838YOPS   C1A11871   6.413   0.824   6.041  0.2820  0.3848 -0.0637
  838YOPS   D2A11872   6.525   0.489   6.343  0.2105  0.0870  0.1611
  838YOPS   C3A11873   6.436  -0.005   6.475  0.1244  0.2117 -0.1510
  838YOPS   C4A11874   6.592  -0.213   6.053  0.2518  0.3282 -0.2032
  838YOPS   C1B11875   6.855   1.649   6.115  0.1908  0.3883  0.1604
  838YOPS   C2B11876   7.053   1.630   6.463  0.0235 -0.0655 -0.0690
  838YOPS   D3B11877   7.216   1.424   6.746  0.0987 -0.1040  0.1489
  838YOPS   C4B11878   7.025   1.441   7.200 -0.1594  0.1046  0.0808
  839YOPS   CNO11879   8.762  18.118   5.510  0.1419 -0.0369  0.1406
  839YOPS   PO411880   8.450  17.941   5.380 -0.1041 -0.3344  0.3349
  839YOPS   GL111881   8.292  18.167   5.655 -0.2334  0.0222  0.1297
  839YOPS   GL211882   8.512  18.528   5.673 -0.1323  0.1056 -0.1164
  839YOPS   C1A11883   8.103  18.100   6.017 -0.0987 -0.2688  0.0831
  839YOPS   D2A11884   7.689  18.067   6.213  0.0981 -0.0881  0.0074
  839YOPS   C3A11885   7.423  18.079   6.594 -0.2085  0.0725  0.0884
  839YOPS   C4A11886   6.959  18.136   6.678  0.2731 -0.4631 -0.4325
  839YOPS   C1B11887   8.400  18.533   6.063  0.2807  0.0582  0.0214
  839YOPS   C2B11888   8.221  18.332   6.438 -0.2827  0.3631 -0.1116
  839YOPS   D3B11889   8.151  17.929   6.684 -0.1334 -0.1474  0.0231
  839YOPS   C4B11890   7.757  17.892   6.894  0.0261 -0.0397  0.1069
  840YOPS   CNO11891   4.141   5.063   5.089  0.0788 -0.1469  0.0705
  840YOPS   PO411892   4.044   4.697   5.317  0.3173 -0.2470  0.3488
  840YOPS   GL111893   4.155   4.686   5.788  0.2458  0.0690 -0.1908
  840YOPS   GL211894   4.447   4.385   5.812 -0.1362  0.1689 -0.1679
  840YOPS   C1A11895   4.116   4.579   6.126  0.1534 -0.1386 -0.2823
  840YOPS   D2A11896   4.114   4.330   6.543 -0.1179 -0.0273  0.4061
  840YOPS   C3A11897   4.108   4.066   6.890  0.0609 -0.1772  0.0930
  840YOPS   C4A11898   4.500   3.729   7.167  0.0527 -0.0057 -0.2366
  840YOPS   C1B11899   4.795   4.529   6.140 -0.0296 -0.0485  0.0400
  840YOPS   C2B11900   4.932   4.662   6.563 -0.0098  0.1781  0.0262
  840YOPS   D3B11901   5.071   4.939   6.757 -0.0295  0.0471  0.1791
  840YOPS   C4B11902   5.159   4.928   7.252  0.0001  0.1499  0.0161
  841YOPS   CNO11903   9.598  11.870   4.994 -0.0926  0.0218  0.1923
  841YOPS   PO411904   9.450  12.199   4.990 -0.1900 -0.0881  0.0758
  841YOPS   GL111905   9.550  12.227   5.365 -0.1017 -0.0010 -0.1725
  841YOPS   GL211906   9.626  11.922   5.463  0.0572 -0.3469  0.2097
  841YOPS   C1A11907   9.302  12.404   5.697  0.1042 -0.3294 -0.0494
  841YOPS   D2A11908   9.054  12.537   6.089  0.2014  0.1789  0.2780
  841YOPS   C3A11909   8.778  12.778   6.160  0.1170 -0.0685  0.1570
  841YOPS   C4A11910   8.863  13.115   6.105 -0.0512  0.0541 -0.0604
  841YOPS   C1B11911   9.723  11.986   5.908 -0.0691  0.0376 -0.0483
  841YOPS   C2B11912   9.705  11.970   6.254 -0.0732  0.5503  0.1951
  841YOPS   D3B11913   9.574  11.818   6.709 -0.0651 -0.0954  0.1479
  841YOPS   C4B11914   9.253  11.974   6.991  0.0636  0.2472  0.0644
  842POPE   NH311915  12.517  14.555   5.623 -0.0202 -0.1734 -0.1979
  842POPE   PO411916  12.380  14.146   5.735 -0.1293  0.2288 -0.2710
  842POPE   GL111917  12.342  13.884   6.007 -0.0109 -0.1700  0.1621
  842POPE   GL211918  12.475  13.604   5.966  0.0388  0.0211 -0.0010
  842POPE   C1A11919  12.201  13.706   6.376  0.0785  0.0502 -0.0930
  842POPE   D2A11920  12.136  13.717   6.873 -0.0690 -0.3072  0.0396
  842POPE   C3A11921  12.374  13.936   7.212 -0.0941 -0.0560  0.0037
  842POPE   C4A11922  12.571  13.888   7.664 -0.1153  0.1844 -0.1115
  842POPE   C1B11923  12.637  13.430   6.396  0.0173  0.2098 -0.0976
  842POPE   C2B11924  12.473  13.406   6.799 -0.0678 -0.0154  0.2006
  842POPE   C3B11925  12.617  13.411   7.181  0.1407 -0.1746 -0.0841
  842POPE   C4B11926  12.496  13.392   7.665  0.1677 -0.1709  0.2550
  843POPE   NH311927   1.386   3.153   5.525  0.1170 -0.0489 -0.1478
  843POPE   PO411928   1.477   3.623   5.498  0.2989  0.2651 -0.0912
  843POPE   GL111929   1.383   3.434   5.924 -0.1222  0.3879 -0.2882
  843POPE   GL211930   1.188   3.123   5.997 -0.0656  0.2520  0.0944
  843POPE   C1A11931   1.226   3.628   6.373  0.2698 -0.2456  0.0016
  843POPE   D2A11932   1.230   3.959   6.433  0.0028 -0.0141  0.1145
  843POPE   C3A11933   1.105   4.001   6.945  0.1908 -0.0109  0.4632
  843POPE   C4A11934   1.222   3.974   7.445  0.1874  0.1990 -0.4961
  843POPE   C1B11935   0.987   3.200   6.427 -0.2302 -0.1459  0.2292
  843POPE   C2B11936   0.969   3.459   6.786  0.1127  0.4437 -0.0887
  843POPE   C3B11937   1.178   3.392   7.170 -0.0613  0.3723 -0.2473
  843POPE   C4B11938   1.061   3.108   7.437  0.4857  0.0566 -0.0537
  844POPE   NH311939   9.293   3.226   5.028  0.1550  0.1427 -0.0620
  844POPE   PO411940   9.494   3.386   5.254  0.2109 -0.1976 -0.3767
  844POPE   GL111941   9.553   3.676   5.589 -0.0440  0.1730 -0.1661
  844POPE   GL211942   9.570   4.027   5.561  0.0198  0.0746 -0.0468
  844POPE   C1A11943   9.755   3.578   5.985  0.1294 -0.4144 -0.0969
  844POPE   D2A11944   9.824   3.516   6.424 -0.1232  0.1112 -0.1339
  844POPE   C3A11945   9.633   3.400   6.874 -0.1038 -0.1503 -0.0397
  844POPE   C4A11946   9.370   3.554   7.149 -0.0928  0.2204 -0.3640
  844POPE   C1B11947   9.538   4.028   6.010 -0.1886 -0.0577 -0.1170
  844POPE   C2B11948   9.391   4.008   6.461  0.0050 -0.1588  0.0907
  844POPE   C3B11949   9.588   3.919   6.891  0.0214 -0.0136  0.0007
  844POPE   C4B11950   9.702   3.868   7.365  0.1772 -0.0667  0.2459
  845POPE   NH311951   2.302   6.732   5.515 -0.0185  0.2462 -0.0044
  845POPE   PO411952   2.392   6.442   5.394 -0.0949  0.0566 -0.3925
  845POPE   GL111953   2.536   6.409   5.767  0.2330  0.1742  0.2587
  845POPE   GL211954   2.491   6.551   6.068 -0.0688 -0.3526 -0.3384
  845POPE   C1A11955   2.613   5.953   6.083  0.0387 -0.1231 -0.0059
  845POPE   D2A11956   2.791   5.845   6.480  0.1715 -0.0106 -0.0282
  845POPE   C3A11957   2.509   5.923   6.855 -0.1814  0.0053  0.0291
  845POPE   C4A11958   2.520   5.987   7.243  0.1332 -0.1723 -0.0384
  845POPE   C1B11959   2.614   6.378   6.492  0.1073  0.1234 -0.0798
  845POPE   C2B11960   2.817   6.296   6.843  0.1020  0.0858 -0.2037
  845POPE   C3B11961   3.069   6.065   7.143  0.1473 -0.0465 -0.1000
  845POPE   C4B11962   3.326   5.805   7.458  0.0321  0.0186 -0.1293
  846POPE   NH311963   4.644  12.330   5.180  0.0294  0.1854 -0.0897
  846POPE   PO411964   4.472  12.746   5.109 -0.2221  0.1596  0.0805
  846POPE   GL111965   4.408  12.656   5.570 -0.2836 -0.1038 -0.0691
  846POPE   GL211966   4.407  12.892   5.740 -0.1253  0.0060 -0.2110
  846POPE   C1A11967   4.326  12.441   6.000 -0.2656 -0.1349 -0.0304
  846POPE   D2A11968   4.518  12.368   6.392 -0.2951  0.2954 -0.1549
  846POPE   C3A11969   4.320  12.179   6.695  0.2402  0.0254  0.0753
  846POPE   C4A11970   4.077  11.965   7.047 -0.3036 -0.1430 -0.1152
  846POPE   C1B11971   4.451  13.080   6.212 -0.2749  0.1449 -0.1145
  846POPE   C2B11972   4.389  13.059   6.681 -0.1939 -0.3072 -0.0118
  846POPE   C3B11973   4.738  13.048   6.969  0.3897 -0.0928 -0.2237
  846POPE   C4B11974   4.911  13.380   7.209  0.1168 -0.1742 -0.2308
  847POPE   NH311975   3.505   0.240   5.427  0.1582 -0.0941  0.1997
  847POPE   PO411976   3.089   0.281   5.264 -0.0920 -0.1929  0.0248
  847POPE   GL111977   3.059   0.370   5.670 -0.2494 -0.2111  0.1121
  847POPE   GL211978   3.051   0.111   5.869 -0.0367 -0.0924  0.0238
  847POPE   C1A11979   3.200   0.521   6.103 -0.3610  0.0205 -0.2039
  847POPE   D2A11980   3.363   0.811   6.394 -0.3215  0.0395 -0.1334
  847POPE   C3A11981   3.322   0.869   6.763 -0.1137 -0.1687  0.1594
  847POPE   C4A11982   3.448   1.176   7.066  0.3137 -0.0296 -0.2334
  847POPE   C1B11983   3.085   0.021   6.215 -0.0413  0.0385  0.1858
  847POPE   C2B11984   3.327   0.314   6.566  0.0300 -0.2752 -0.2755
  847POPE   C3B11985   3.531   0.378   6.944  0.2112  0.2414 -0.1846
  847POPE   C4B11986   3.571   0.668   7.299  0.0650  0.2432  0.3655
  848POPE   NH311987  14.800  14.841   5.305 -0.0629  0.2181 -0.1959
  848POPE   PO411988  14.762  14.546   5.498  0.0385 -0.0825  0.0181
  848POPE   GL111989  14.891  14.387   5.876 -0.1651  0.0053  0.0973
  848POPE   GL211990  14.702  14.532   6.186 -0.0184 -0.0635  0.1428
  848POPE   C1A11991  14.888  14.094   6.338 -0.2467 -0.1648  0.3249
  848POPE   D2A11992  14.880  14.068   6.750  0.0945  0.0825 -0.0235
  848POPE   C3A11993  14.943  13.692   6.928  0.3976 -0.1127  0.3593
  848POPE   C4A11994  15.080  13.547   7.309 -0.1927  0.0821 -0.2579
  848POPE   C1B11995  14.758  14.538   6.547 -0.1716  0.1953 -0.0268
  848POPE   C2B11996  14.711  14.527   6.892 -0.0723 -0.2366 -0.0239
  848POPE   C3B11997  14.833  14.366   7.141 -0.0025 -0.0384  0.1172
  848POPE   C4B11998  14.984  14.234   7.526 -0.1524  0.0185  0.0076
  849POPE   NH311999   9.137  16.584   4.950  0.0964  0.2751  0.3016
  849POPE   PO412000   8.804  16.625   5.389 -0.2288 -0.1650 -0.1201
  849POPE   GL112001   8.732  16.449   5.770  0.0223 -0.0138 -0.0384
  849POPE   GL212002   9.066  16.431   5.963  0.0828  0.0300  0.1277
  849POPE   C1A12003   8.559  16.322   6.116  0.1042 -0.0027  0.0887
  849POPE   D2A12004   8.530  16.161   6.470  0.1003  0.0888  0.1549
  849POPE   C3A12005   8.432  15.930   6.880 -0.0664 -0.0671 -0.2509
  849POPE   C4A12006   8.384  15.659   7.233 -0.0976  0.0383  0.1411
  849POPE   C1B12007   9.007  16.305   6.360  0.1032 -0.3116  0.1004
  849POPE   C2B12008   8.946  16.148   6.858  0.0728  0.2668  0.1273
  849POPE   C3B12009   8.874  15.832   7.180  0.0920  0.0760  0.0845
  849POPE   C4B12010   8.814  15.554   7.504  0.1149  0.0608  0.1899
  850POPE   NH312011   2.415   2.627   5.281 -0.0401  0.0990  0.0427
  850POPE   PO412012   2.055   2.622   5.325  0.1787 -0.1427  0.0943
  850POPE   GL112013   2.293   2.750   5.745 -0.3781 -0.0066 -0.2622
  850POPE   GL212014   2.606   2.911   5.698 -0.2798 -0.0463 -0.0000
  850POPE   C1A12015   2.268   2.974   6.169 -0.1230  0.0186 -0.1924
  850POPE   D2A12016   2.151   3.045   6.528  0.3136 -0.2037 -0.0225
  850POPE   C3A12017   2.116   3.393   6.761  0.0656  0.0753  0.2078
  850POPE   C4A12018   1.924   3.764   6.903 -0.0900 -0.0398  0.2141
  850POPE   C1B12019   2.770   3.064   6.099 -0.0767 -0.1213 -0.0093
  850POPE   C2B12020   2.807   3.254   6.466 -0.0022  0.3990  0.3051
  850POPE   C3B12021   2.692   3.345   6.879 -0.2691 -0.1345 -0.1474
  850POPE   C4B12022   2.483   3.629   7.096 -0.1269 -0.0174 -0.1655
  851POPE   NH312023   0.411   5.609   5.611  0.1371 -0.0656 -0.2506
  851POPE   PO412024   0.755   5.913   5.543 -0.0900  0.0676  0.1132
  851POPE   GL112025   0.863   6.144   5.909  0.0613 -0.1413 -0.1271
  851POPE   GL212026   0.593   6.187   6.054  0.0870 -0.1195 -0.0860
  851POPE   C1A12027   1.284   6.343   6.170 -0.0888  0.0129  0.2418
  851POPE   D2A12028   1.724   6.483   6.296  0.0205  0.0161  0.0412
  851POPE   C3A12029   1.978   6.329   6.069  0.2601  0.1958 -0.0987
  851POPE   C4A12030   1.962   5.841   6.269  0.0436  0.0161  0.0768
  851POPE   C1B12031   0.886   6.154   6.445 -0.0950 -0.1113  0.2130
  851POPE   C2B12032   1.162   6.466   6.631 -0.2160 -0.2141 -0.0835
  851POPE   C3B12033   1.693   6.512   6.812  0.0260  0.1430  0.1704
  851POPE   C4B12034   2.131   6.265   6.608  0.4220 -0.2595  0.2557
  852POPE   NH312035  15.557  17.602   5.440 -0.0819 -0.0158 -0.2593
  852POPE   PO412036  15.268  17.271   5.721 -0.1361 -0.0662  0.3865
  852POPE   GL112037  15.270  16.912   6.040  0.0428 -0.1482 -0.1032
  852POPE   GL212038  15.503  16.943   6.256 -0.4671  0.0240  0.1492
  852POPE   C1A12039  15.073  16.796   6.493  0.0120  0.3974 -0.0877
  852POPE   D2A12040  15.060  16.562   6.917  0.0979 -0.0927 -0.0154
  852POPE   C3A12041  14.876  16.873   7.127 -0.0702 -0.4279 -0.3070
  852POPE   C4A12042  14.415  17.133   7.103  0.0209  0.0046  0.0024
  852POPE   C1B12043  15.494  16.913   6.750 -0.0749 -0.1325  0.0493
  852POPE   C2B12044  15.282  17.085   6.996 -0.1329 -0.1490 -0.1263
  852POPE   C3B12045  15.185  17.231   7.351  0.4056 -0.0271  0.0654
  852POPE   C4B12046  15.089  17.618   7.501 -0.0938  0.0973  0.2052
  853POPE   NH312047   1.619  15.383   5.487 -0.0245 -0.3178 -0.0073
  853POPE   PO412048   1.734  15.060   5.830  0.2387 -0.0274 -0.0199
  853POPE   GL112049   2.047  14.694   5.937  0.0727  0.0039  0.1768
  853POPE   GL212050   1.955  14.350   5.940 -0.0357 -0.2284 -0.2362
  853POPE   C1A12051   2.348  14.444   6.223 -0.1635  0.2282  0.1315
  853POPE   D2A12052   2.635  14.300   6.517 -0.4079 -0.1367 -0.1660
  853POPE   C3A12053   2.800  13.854   6.537 -0.5498 -0.1334  0.0616
  853POPE   C4A12054   3.135  13.796   6.796  0.2641 -0.1204  0.0845
  853POPE   C1B12055   1.961  14.126   6.268 -0.0218  0.4921 -0.2074
  853POPE   C2B12056   1.987  13.641   6.506  0.1983 -0.1950 -0.3103
  853POPE   C3B12057   1.911  13.559   6.946 -0.0680 -0.0273  0.0372
  853POPE   C4B12058   1.805  13.231   7.208 -0.0891  0.0898 -0.0537
  854POPE   NH312059   0.772  18.605   5.405  0.2192 -0.2342 -0.1967
  854POPE   PO412060   0.425  18.875   5.495  0.1534  0.1309 -0.0906
  854POPE   GL112061   0.120  18.818   5.744  0.0064  0.0878  0.1589
  854POPE   GL212062  -0.073  19.070   5.857 -0.0346  0.2623 -0.0889
  854POPE   C1A12063   0.224  18.739   6.143  0.0296 -0.0792  0.0605
  854POPE   D2A12064   0.191  18.595   6.553  0.0522  0.4427 -0.2340
  854POPE   C3A12065   0.181  18.943   6.774 -0.0827 -0.0658  0.2804
  854POPE   C4A12066   0.116  19.381   6.974 -0.1382 -0.0598 -0.3170
  854POPE   C1B12067  -0.326  19.058   6.234 -0.1282  0.0774 -0.2233
  854POPE   C2B12068  -0.517  19.288   6.614 -0.1542 -0.0027 -0.0645
  854POPE   C3B12069  -0.461  19.645   6.844  0.0367 -0.2653 -0.1035
  854POPE   C4B12070  -0.618  20.049   7.009 -0.1177  0.1182  0.2287
  855POPE   NH312071  13.284   1.039   5.829  0.0657 -0.3427 -0.1735
  855POPE   PO412072  13.220   0.690   6.094  0.0720 -0.0150  0.2119
  855POPE   GL112073  13.570   0.699   6.272 -0.0892 -0.1936  0.1701
  855POPE   GL212074  13.876   0.619   6.225  0.1513 -0.1308  0.0999
  855POPE   C1A12075  13.667   0.881   6.608 -0.0149 -0.4864  0.1148
  855POPE   D2A12076  13.664   0.981   6.976 -0.0772 -0.0294  0.2131
  855POPE   C3A12077  13.943   0.859   7.273 -0.0443  0.2453  0.2789
  855POPE   C4A12078  14.364   0.866   7.449  0.3441 -0.0234  0.3869
  855POPE   C1B12079  14.113   0.690   6.611 -0.4807 -0.0242  0.5370
  855POPE   C2B12080  14.309   0.633   6.996 -0.0718  0.1168 -0.1411
  855POPE   C3B12081  14.264   0.403   7.379 -0.1948 -0.1656 -0.0006
  855POPE   C4B12082  14.525   0.360   7.702 -0.2159  0.0272 -0.0523
  856POPE   NH312083   8.746   5.134   4.946  0.2437  0.1344  0.1283
  856POPE   PO412084   8.298   5.231   5.159 -0.0991  0.0197 -0.1042
  856POPE   GL112085   8.186   5.202   5.536 -0.0521 -0.3457  0.0668
  856POPE   GL212086   8.315   5.541   5.647  0.1970 -0.0048 -0.1276
  856POPE   C1A12087   8.123   5.317   6.068  0.0463 -0.0615  0.1294
  856POPE   D2A12088   7.948   5.345   6.565  0.1609  0.0995 -0.0907
  856POPE   C3A12089   7.984   5.717   6.842 -0.2567  0.0374 -0.0821
  856POPE   C4A12090   8.170   5.812   7.253  0.0822  0.1007  0.1136
  856POPE   C1B12091   8.480   5.744   5.943  0.0923  0.1784 -0.1410
  856POPE   C2B12092   8.742   5.779   6.243 -0.0906  0.1669  0.1147
  856POPE   C3B12093   8.970   5.710   6.594 -0.1147  0.0926  0.3335
  856POPE   C4B12094   9.131   5.390   6.979  0.1477  0.0342  0.1273
  857POPE   NH312095   0.281  12.785   5.716  0.0823 -0.0257  0.1087
  857POPE   PO412096   0.490  13.135   5.857 -0.1968  0.0082 -0.0858
  857POPE   GL112097   0.081  12.930   6.127 -0.0214 -0.0027 -0.4038
  857POPE   GL212098  -0.185  13.100   6.338 -0.3507 -0.0892  0.0013
  857POPE   C1A12099   0.074  12.887   6.690 -0.2465  0.1953 -0.0042
  857POPE   D2A12100  -0.020  12.892   7.107  0.1717  0.0180 -0.2552
  857POPE   C3A12101  -0.195  12.787   7.495  0.0087  0.0164 -0.1465
  857POPE   C4A12102  -0.485  12.636   7.823  0.2930  0.2713  0.1455
  857POPE   C1B12103  -0.281  13.190   6.664 -0.2544 -0.1650 -0.0472
  857POPE   C2B12104  -0.480  13.117   7.179  0.1263 -0.0482 -0.1465
  857POPE   C3B12105  -0.523  13.126   7.601  0.1866  0.0163 -0.1726
  857POPE   C4B12106  -0.364  13.290   8.021 -0.1143 -0.1065 -0.3591
  858POPE   NH312107   2.643  16.762   5.208  0.2756 -0.1503  0.0981
  858POPE   PO412108   2.900  16.590   5.318 -0.0510 -0.4965  0.1278
  858POPE   GL112109   3.044  16.373   5.635 -0.0284  0.1274  0.0071
  858POPE   GL212110   3.323  16.542   5.718 -0.0073 -0.0126  0.2664
  858POPE   C1A12111   3.274  16.082   5.890  0.0754  0.2146 -0.0216
  858POPE   D2A12112   3.533  16.057   6.216 -0.1441  0.0456  0.2199
  858POPE   C3A12113   3.395  15.989   6.643  0.0675  0.3323  0.0894
  858POPE   C4A12114   3.499  16.187   7.001 -0.1211 -0.3177  0.1628
  858POPE   C1B12115   3.201  16.486   6.154 -0.3602 -0.1907 -0.1527
  858POPE   C2B12116   3.206  16.486   6.564  0.0321  0.0326 -0.1614
  858POPE   C3B12117   3.034  16.435   7.004 -0.7414 -0.1360 -0.0658
  858POPE   C4B12118   2.758  16.740   7.122 -0.5216 -0.0820 -0.0087
  859POPE   NH312119  14.779  15.866   5.757  0.1727 -0.0300  0.0028
  859POPE   PO412120  15.199  16.056   5.739  0.0173  0.0986  0.0305
  859POPE   GL112121  15.295  15.856   6.056  0.0936 -0.1286  0.1565
  859POPE   GL212122  15.072  15.806   6.272  0.1780  0.2237 -0.4136
  859POPE   C1A12123  15.572  15.599   6.332  0.1206 -0.1987 -0.1557
  859POPE   D2A12124  15.590  15.458   6.721 -0.1075  0.1988 -0.1370
  859POPE   C3A12125  15.801  15.482   7.106  0.1234 -0.1622 -0.1743
  859POPE   C4A12126  15.857  15.122   7.401  0.3070 -0.1696  0.1179
  859POPE   C1B12127  15.031  15.513   6.574  0.0153  0.0315  0.3125
  859POPE   C2B12128  14.715  15.377   6.949  0.1106  0.0505  0.0580
  859POPE   C3B12129  14.576  15.332   7.394 -0.2818  0.0873 -0.0912
  859POPE   C4B12130  14.443  15.613   7.779 -0.0601 -0.1710 -0.4381
  860POPE   NH312131   8.664   7.489   5.363 -0.0800 -0.0522  0.2835
  860POPE   PO412132   8.661   7.901   5.400  0.0620 -0.1798  0.0381
  860POPE   GL112133   8.486   7.622   5.809 -0.2466 -0.3192  0.3344
  860POPE   GL212134   8.848   7.457   5.872  0.0780 -0.1323 -0.2200
  860POPE   C1A12135   8.317   7.683   6.204  0.1643  0.2161 -0.0794
  860POPE   D2A12136   7.987   7.879   6.382 -0.1758  0.3401  0.1018
  860POPE   C3A12137   7.661   7.726   6.161 -0.1930  0.1316 -0.0415
  860POPE   C4A12138   7.552   7.375   5.922 -0.1256  0.4175 -0.4757
  860POPE   C1B12139   8.804   7.472   6.259 -0.1226  0.1983  0.0744
  860POPE   C2B12140   8.786   7.426   6.611  0.2672 -0.0171 -0.0806
  860POPE   C3B12141   8.484   7.412   6.945  0.2804  0.0930  0.2201
  860POPE   C4B12142   8.227   7.008   7.020 -0.0743 -0.0138 -0.0172
  861POPE   NH312143   6.764   3.721   5.258  0.0697 -0.0117 -0.1142
  861POPE   PO412144   6.606   4.107   5.209 -0.0848 -0.2474 -0.0980
  861POPE   GL112145   6.381   4.412   5.438  0.1154 -0.1794  0.0815
  861POPE   GL212146   6.548   4.681   5.648  0.0608  0.2189  0.1491
  861POPE   C1A12147   6.078   4.282   5.766 -0.0557  0.1974 -0.0656
  861POPE   D2A12148   6.268   4.235   6.221  0.1573 -0.0541  0.2062
  861POPE   C3A12149   6.295   4.645   6.369  0.2239 -0.0069 -0.0725
  861POPE   C4A12150   6.295   4.857   6.610 -0.1004 -0.2030  0.1542
  861POPE   C1B12151   6.905   4.356   5.813  0.0990 -0.0806 -0.4079
  861POPE   C2B12152   6.830   4.012   6.126 -0.1799 -0.2349  0.3336
  861POPE   C3B12153   6.956   3.794   6.451  0.2198  0.0478 -0.1286
  861POPE   C4B12154   7.208   3.670   6.815 -0.0772 -0.2702  0.0193
  862POPE   NH312155   8.532   1.051   5.313 -0.1910 -0.4375 -0.1348
  862POPE   PO412156   8.165   0.772   5.304 -0.2567 -0.1485  0.0435
  862POPE   GL112157   8.235   0.708   5.730  0.0596  0.5841  0.0381
  862POPE   GL212158   8.316   1.035   5.764 -0.0349  0.1231 -0.3362
  862POPE   C1A12159   8.152   0.669   6.089  0.0551  0.0313  0.1468
  862POPE   D2A12160   8.108   0.871   6.423  0.0491 -0.0691 -0.1443
  862POPE   C3A12161   8.162   0.809   6.921  0.2627  0.0327 -0.0562
  862POPE   C4A12162   8.199   0.810   7.338  0.4020 -0.0449 -0.2634
  862POPE   C1B12163   7.995   1.128   6.008 -0.1044 -0.2374 -0.1156
  862POPE   C2B12164   7.544   1.223   5.877  0.1665 -0.1924 -0.1721
  862POPE   C3B12165   7.081   1.236   6.134  0.2866  0.1885 -0.0196
  862POPE   C4B12166   6.696   1.205   6.268  0.0042  0.4536 -0.0450
  863POPE   NH312167  12.658   2.207   5.541 -0.1161  0.0994  0.1485
  863POPE   PO412168  12.232   1.950   5.656 -0.0604 -0.0179  0.0222
  863POPE   GL112169  12.269   2.104   6.026 -0.0181 -0.0472  0.0389
  863POPE   GL212170  12.093   2.360   6.104 -0.3940 -0.4088  0.3810
  863POPE   C1A12171  12.044   1.980   6.407 -0.2026 -0.1083 -0.2009
  863POPE   D2A12172  11.882   1.821   6.793 -0.2233 -0.0521 -0.1064
  863POPE   C3A12173  11.563   2.197   6.917 -0.0603  0.2248  0.1229
  863POPE   C4A12174  11.646   2.610   6.970  0.0172 -0.1535 -0.1570
  863POPE   C1B12175  12.376   2.363   6.446  0.2071 -0.1341 -0.2996
  863POPE   C2B12176  12.602   2.221   6.814 -0.0052 -0.0275  0.1165
  863POPE   C3B12177  12.909   2.327   7.144  0.2850  0.0308 -0.4011
  863POPE   C4B12178  13.159   2.650   7.437  0.1125 -0.1304 -0.0634
  864POPE   NH312179  14.844   0.455   5.841 -0.3671 -0.1680 -0.1234
  864POPE   PO412180  15.291   0.304   5.960 -0.2359  0.2896 -0.0085
  864POPE   GL112181  15.610   0.223   6.249  0.0284  0.1768  0.3466
  864POPE   GL212182  15.718   0.015   6.169  0.3759 -0.1860 -0.2664
  864POPE   C1A12183  15.475   0.232   6.649  0.1689  0.2171  0.1661
  864POPE   D2A12184  15.218  -0.042   6.825 -0.0304  0.0838 -0.0807
  864POPE   C3A12185  15.071  -0.156   7.203 -0.3024 -0.0694  0.0781
  864POPE   C4A12186  15.179  -0.293   7.608  0.1368 -0.0807 -0.0284
  864POPE   C1B12187  15.635  -0.221   6.595  0.1490 -0.0351 -0.2057
  864POPE   C2B12188  15.648  -0.329   7.071  0.0274 -0.2523 -0.2203
  864POPE   C3B12189  15.619  -0.469   7.474 -0.1875 -0.2268  0.1200
  864POPE   C4B12190  15.549  -0.572   7.879 -0.2793 -0.0000  0.0528
  865POPE   NH312191  17.198  18.137   5.871 -0.0882  0.0481  0.0162
  865POPE   PO412192  17.457  18.596   5.729  0.0340  0.0672 -0.1270
  865POPE   GL112193  17.178  18.631   6.030  0.1020 -0.0621  0.0018
  865POPE   GL212194  17.025  18.844   6.079  0.2762  0.1502  0.2569
  865POPE   C1A12195  17.393  18.583   6.512  0.0486  0.0202  0.0290
  865POPE   D2A12196  17.699  18.507   6.889  0.1080  0.1431  0.1307
  865POPE   C3A12197  17.755  18.669   7.299  0.0596 -0.0659  0.0741
  865POPE   C4A12198  17.988  18.541   7.581  0.0882 -0.1219  0.1638
  865POPE   C1B12199  17.013  18.880   6.542  0.0406 -0.0059 -0.1474
  865POPE   C2B12200  17.210  19.009   6.911  0.1924  0.1752  0.1660
  865POPE   C3B12201  17.482  19.074   7.232 -0.1642 -0.4199 -0.4096
  865POPE   C4B12202  17.603  19.445   7.556 -0.1510  0.3334 -0.0052
  866POPE   NH312203  13.188   6.455   6.092 -0.0719 -0.1293  0.2211
  866POPE   PO412204  13.435   6.693   5.864 -0.0743  0.0950  0.0601
  866POPE   GL112205  13.642   6.769   6.290  0.3602  0.3288 -0.0168
  866POPE   GL212206  13.504   6.542   6.498  0.0866  0.1208  0.1002
  866POPE   C1A12207  13.809   6.877   6.597 -0.0018 -0.3126 -0.1801
  866POPE   D2A12208  13.578   7.331   6.690 -0.1176  0.1927 -0.1074
  866POPE   C3A12209  13.611   7.266   7.123  0.2664 -0.0920 -0.3970
  866POPE   C4A12210  13.719   7.079   7.566 -0.3747 -0.0594  0.1244
  866POPE   C1B12211  13.678   6.492   6.905  0.2496  0.1119  0.0339
  866POPE   C2B12212  13.573   6.232   7.254 -0.2771  0.0394 -0.1394
  866POPE   C3B12213  13.426   5.882   7.472  0.0515  0.0804 -0.1479
  866POPE   C4B12214  13.102   5.818   7.730 -0.1606  0.2548 -0.2369
  867POPE   NH312215   1.298  14.947   5.626 -0.0259 -0.2109  0.1191
  867POPE   PO412216   0.851  15.005   5.873  0.0745 -0.0313  0.1014
  867POPE   GL112217   0.618  15.120   6.191  0.1491 -0.4707  0.0104
  867POPE   GL212218   0.569  15.471   6.110  0.0418  0.2598 -0.0466
  867POPE   C1A12219   0.623  15.039   6.688  0.1715 -0.0377 -0.2287
  867POPE   D2A12220   0.630  15.093   7.167 -0.0029  0.1007 -0.1316
  867POPE   C3A12221   0.462  15.277   7.450  0.2722  0.0625 -0.2529
  867POPE   C4A12222   0.047  15.328   7.694 -0.3373 -0.2859 -0.1820
  867POPE   C1B12223   0.427  15.706   6.475 -0.2999 -0.0404 -0.1651
  867POPE   C2B12224   0.294  15.938   6.864  0.0792 -0.2051 -0.4270
  867POPE   C3B12225   0.610  16.168   7.223 -0.0643 -0.1352  0.1316
  867POPE   C4B12226   0.752  16.548   7.251  0.0303 -0.0869  0.0165
  868POPE   NH312227   0.792  10.295   5.431 -0.1928  0.0458 -0.1067
  868POPE   PO412228   1.223  10.027   5.259 -0.1283  0.1307  0.1464
  868POPE   GL112229   1.228  10.043   5.728  0.1905 -0.0103 -0.1447
  868POPE   GL212230   1.319   9.715   5.906  0.1685 -0.2371 -0.4891
  868POPE   C1A12231   0.957  10.144   6.011 -0.3230  0.1724  0.2206
  868POPE   D2A12232   0.968  10.229   6.365 -0.0642  0.0115  0.2693
  868POPE   C3A12233   1.048   9.878   6.666  0.0367 -0.2270  0.1590
  868POPE   C4A12234   1.354   9.606   6.775 -0.1243 -0.0343 -0.1194
  868POPE   C1B12235   1.478   9.624   6.321  0.2062 -0.1700  0.1819
  868POPE   C2B12236   1.829   9.590   6.543  0.3061 -0.0142  0.1791
  868POPE   C3B12237   2.170   9.775   6.801  0.2024  0.3942  0.2389
  868POPE   C4B12238   2.445   9.815   7.093 -0.0254 -0.1044  0.3110
  869POPE   NH312239   6.601  15.643   5.089 -0.2402  0.2447 -0.1341
  869POPE   PO412240   6.164  15.544   5.142 -0.0475 -0.0983  0.0950
  869POPE   GL112241   6.439  15.530   5.561 -0.1145  0.2450  0.1042
  869POPE   GL212242   6.237  15.629   5.720  0.1255  0.1722  0.2288
  869POPE   C1A12243   6.648  15.376   5.922 -0.1065  0.0558  0.0597
  869POPE   D2A12244   6.694  15.313   6.373  0.1709 -0.2498 -0.2343
  869POPE   C3A12245   6.883  15.620   6.784  0.2067  0.2546  0.1901
  869POPE   C4A12246   7.057  15.468   7.301 -0.2080 -0.2764  0.1972
  869POPE   C1B12247   6.441  15.758   6.115  0.0010  0.2279  0.2213
  869POPE   C2B12248   6.342  15.639   6.494  0.2522  0.3337  0.1130
  869POPE   C3B12249   6.358  15.518   6.974  0.2086  0.1129  0.0283
  869POPE   C4B12250   6.572  15.464   7.261  0.2064  0.0810  0.1963
  870POPE   NH312251  16.084  15.921   5.604  0.0391  0.1320  0.0687
  870POPE   PO412252  16.432  16.173   5.685  0.0534  0.2984  0.0239
  870POPE   GL112253  16.152  16.146   6.058  0.0087 -0.2260 -0.1480
  870POPE   GL212254  16.070  16.498   6.145  0.0622 -0.1028  0.3023
  870POPE   C1A12255  16.047  16.063   6.337  0.2804  0.0791  0.1962
  870POPE   D2A12256  15.981  15.974   6.722  0.4548  0.1896  0.0200
  870POPE   C3A12257  15.808  16.051   7.130 -0.0697 -0.3287  0.1782
  870POPE   C4A12258  15.557  15.867   7.460 -0.0257 -0.2144  0.0698
  870POPE   C1B12259  15.945  16.528   6.439 -0.0630  0.0479 -0.3934
  870POPE   C2B12260  15.837  16.532   6.843  0.0783 -0.0264 -0.0824
  870POPE   C3B12261  15.512  16.457   7.147  0.2867  0.1782  0.1838
  870POPE   C4B12262  15.123  16.184   7.256  0.0742 -0.2936 -0.4561
  871POPE   NH312263  13.639  17.250   5.189  0.2029  0.0775  0.1940
  871POPE   PO412264  13.345  17.108   5.514  0.0432 -0.0655  0.0325
  871POPE   GL112265  13.528  17.047   5.865 -0.2689 -0.0094 -0.1508
  871POPE   GL212266  13.563  16.791   5.988 -0.0880  0.0378  0.0998
  871POPE   C1A12267  13.478  17.299   6.223  0.1131  0.0820  0.2009
  871POPE   D2A12268  13.321  17.192   6.659 -0.0505 -0.1454  0.0309
  871POPE   C3A12269  12.980  17.275   6.940  0.2132 -0.2837 -0.2830
  871POPE   C4A12270  12.874  17.485   7.280 -0.1055  0.2758  0.3932
  871POPE   C1B12271  13.576  16.809   6.366 -0.2665  0.0173  0.0500
  871POPE   C2B12272  13.337  16.650   6.702 -0.2138  0.2086  0.0938
  871POPE   C3B12273  13.169  16.716   7.022  0.0135  0.1523  0.2152
  871POPE   C4B12274  12.952  16.943   7.318 -0.0907 -0.0693 -0.1569
  872YOPE   NH312275  11.727  10.653   5.554  0.0007 -0.0388  0.3062
  872YOPE   PO412276  11.516  10.291   5.603  0.1700 -0.2636  0.4102
  872YOPE   GL112277  11.409  10.187   5.926 -0.1206  0.0038 -0.0502
  872YOPE   GL212278  11.102  10.360   5.927  0.0907  0.1919  0.1507
  872YOPE   C1A12279  11.680  10.116   6.180 -0.0195 -0.2625  0.2135
  872YOPE   D2A12280  11.823   9.901   6.526  0.1679 -0.2013 -0.3927
  872YOPE   C3A12281  12.240  10.041   6.704  0.1239  0.3247 -0.5024
  872YOPE   C4A12282  12.356   9.878   7.104 -0.0686 -0.0671  0.0342
  872YOPE   C1B12283  10.867  10.240   6.262  0.0644 -0.2951  0.1648
  872YOPE   C2B12284  10.838   9.991   6.655 -0.2202 -0.1782  0.0536
  872YOPE   D3B12285  10.902   9.714   7.086  0.0342  0.0835 -0.2163
  872YOPE   C4B12286  10.808   9.409   7.379 -0.1722  0.2229 -0.3891
  873YOPE   NH312287   5.651  18.100   5.207 -0.0618 -0.1261  0.1809
  873YOPE   PO412288   5.985  17.949   5.453  0.1142  0.1747 -0.0768
  873YOPE   GL112289   5.839  17.668   5.770 -0.0623  0.0654 -0.0614
  873YOPE   GL212290   6.190  17.605   5.761 -0.1570 -0.1984 -0.2373
  873YOPE   C1A12291   5.817  17.593   6.278  0.0701 -0.0658 -0.0597
  873YOPE   D2A12292   5.854  17.626   6.773  0.0997  0.0741  0.1534
  873YOPE   C3A12293   6.270  17.916   6.831 -0.3063 -0.1380  0.2103
  873YOPE   C4A12294   6.557  18.246   7.033  0.1470 -0.0484 -0.2024
  873YOPE   C1B12295   6.359  17.649   6.229 -0.2271  0.0890  0.1951
  873YOPE   C2B12296   6.624  17.664   6.566 -0.2169  0.0337  0.0898
  873YOPE   D3B12297   6.766  17.777   6.997 -0.0177  0.3434 -0.2880
  873YOPE   C4B12298   6.559  17.846   7.280  0.0233  0.0102 -0.0210
  874YOPE   NH312299   6.116   4.053   5.136 -0.2124  0.0405 -0.0718
  874YOPE   PO412300   6.266   3.667   4.982 -0.2002  0.1103 -0.2146
  874YOPE   GL112301   6.276   3.631   5.413 -0.0116 -0.3382  0.4211
  874YOPE   GL212302   6.388   3.903   5.612  0.1358  0.1722 -0.0172
  874YOPE   C1A12303   6.335   3.236   5.723 -0.2295 -0.1050 -0.0239
  874YOPE   D2A12304   6.690   3.070   5.919 -0.2036 -0.2588  0.0384
  874YOPE   C3A12305   6.881   3.157   6.313  0.0538 -0.0920 -0.1366
  874YOPE   C4A12306   7.036   3.226   6.594 -0.1341  0.3882 -0.2335
  874YOPE   C1B12307   6.107   3.821   6.014  0.1984  0.0095  0.1002
  874YOPE   C2B12308   5.938   3.897   6.365 -0.1595  0.2705  0.1763
  874YOPE   D3B12309   5.759   3.648   6.641  0.1542  0.0692 -0.0727
  874YOPE   C4B12310   5.698   3.473   7.102  0.0515 -0.0350 -0.0305
  875YOPE   NH312311  14.230  12.471   5.532 -0.0073 -0.1538 -0.1151
  875YOPE   PO412312  14.566  12.373   5.397 -0.0589 -0.2629 -0.4411
  875YOPE   GL112313  14.667  12.193   5.793  0.0205 -0.1157  0.1027
  875YOPE   GL212314  14.405  12.247   5.932 -0.2457 -0.2530 -0.3965
  875YOPE   C1A12315  14.832  12.039   6.175 -0.2304  0.0279 -0.0084
  875YOPE   D2A12316  15.209  12.114   6.525 -0.0642 -0.3501 -0.3483
  875YOPE   C3A12317  15.087  11.970   6.995 -0.0122 -0.2077 -0.1787
  875YOPE   C4A12318  15.199  11.752   7.420 -0.1773 -0.2192  0.0120
  875YOPE   C1B12319  14.507  12.363   6.368  0.0242 -0.2042  0.0086
  875YOPE   C2B12320  14.703  12.078   6.670  0.0420  0.2239 -0.2790
  875YOPE   D3B12321  14.878  11.732   6.613 -0.0520  0.0335  0.0693
  875YOPE   C4B12322  14.990  11.299   6.612  0.3340 -0.0623  0.0323
  876YOPE   NH312323  18.778  16.947   5.828  0.1703  0.0248  0.1390
  876YOPE   PO412324  19.135  17.032   5.796  0.1234  0.2824 -0.1850
  876YOPE   GL112325  19.068  16.702   6.183 -0.0014  0.1567  0.0374
  876YOPE   GL212326  18.770  16.588   6.212  0.3136 -0.1811 -0.1871
  876YOPE   C1A12327  19.024  16.772   6.631  0.0925 -0.2946  0.2937
  876YOPE   D2A12328  18.771  16.616   6.909 -0.0684  0.0171 -0.1049
  876YOPE   C3A12329  18.862  16.626   7.340  0.1071  0.4548  0.0536
  876YOPE   C4A12330  18.664  16.384   7.692 -0.0240  0.0012  0.2935
  876YOPE   C1B12331  18.510  16.461   6.440 -0.0295  0.2936  0.2481
  876YOPE   C2B12332  18.335  16.313   6.928  0.3333  0.0670  0.1484
  876YOPE   D3B12333  18.351  16.320   7.344  0.1621 -0.0011 -0.1208
  876YOPE   C4B12334  18.244  16.016   7.724  0.0979  0.0091 -0.0287
  877YOPE   NH312335  10.584   1.168   5.599 -0.0569 -0.2347  0.0983
  877YOPE   PO412336  10.482   1.613   5.598  0.0106  0.3366  0.2130
  877YOPE   GL112337  10.683   1.543   6.047 -0.4785  0.2828  0.2559
  877YOPE   GL212338  10.428   1.325   6.176 -0.0105  0.0044 -0.0715
  877YOPE   C1A12339  10.951   1.274   6.370  0.0349  0.0285  0.1402
  877YOPE   D2A12340  11.321   1.020   6.642  0.1873 -0.1851 -0.0888
  877YOPE   C3A12341  11.458   1.083   6.976 -0.0526  0.1857  0.0438
  877YOPE   C4A12342  11.545   1.585   7.192 -0.0372 -0.1111  0.0097
  877YOPE   C1B12343  10.071   1.301   6.456 -0.2270  0.0536  0.3171
  877YOPE   C2B12344  10.057   1.416   6.899  0.3709 -0.1135 -0.1692
  877YOPE   D3B12345  10.028   1.548   7.403 -0.0129 -0.0725  0.3422
  877YOPE   C4B12346  10.314   1.493   7.765  0.2447 -0.1758 -0.0340
  878YOPE   NH312347   5.562  16.557   5.057  0.0053  0.0743 -0.2089
  878YOPE   PO412348   5.966  16.711   4.905  0.4927  0.1897  0.2690
  878YOPE   GL112349   6.037  16.754   5.413  0.3217 -0.1227  0.0404
  878YOPE   GL212350   6.303  16.548   5.593 -0.2216  0.1421 -0.2730
  878YOPE   C1A12351   5.796  16.948   5.667 -0.1451 -0.5186 -0.1704
  878YOPE   D2A12352   5.626  17.242   6.029  0.1030  0.2169  0.2756
  878YOPE   C3A12353   5.282  17.538   6.136  0.0268 -0.1828  0.1605
  878YOPE   C4A12354   4.963  17.568   5.928  0.2225  0.1353 -0.0369
  878YOPE   C1B12355   6.490  16.546   5.996  0.2203 -0.0567 -0.0762
  878YOPE   C2B12356   6.371  16.701   6.291 -0.2918  0.0909  0.0602
  878YOPE   D3B12357   6.351  16.785   6.666  0.1127 -0.1983  0.0734
  878YOPE   C4B12358   6.520  16.840   7.009 -0.1716  0.0312 -0.4445
  879YOPE   NH312359  13.307  14.773   5.465 -0.1018  0.0557  0.1329
  879YOPE   PO412360  13.551  14.369   5.624 -0.2352  0.0480  0.2891
  879YOPE   GL112361  13.745  14.595   5.901  0.1261  0.0012 -0.1299
  879YOPE   GL212362  13.976  14.455   6.095  0.0812  0.1015 -0.0476
  879YOPE   C1A12363  13.684  14.832   6.371  0.0301 -0.2977 -0.0159
  879YOPE   D2A12364  13.634  15.018   6.818 -0.0277 -0.0408 -0.1711
  879YOPE   C3A12365  13.647  14.725   7.096 -0.0227 -0.1317  0.0574
  879YOPE   C4A12366  13.961  14.560   7.329 -0.1424  0.0703  0.0370
  879YOPE   C1B12367  13.798  14.308   6.521  0.2160 -0.0096 -0.2946
  879YOPE   C2B12368  13.704  14.179   6.911 -0.2603  0.2203 -0.1056
  879YOPE   D3B12369  13.943  14.053   7.279 -0.1911  0.0262 -0.1431
  879YOPE   C4B12370  14.034  14.086   7.629 -0.0967 -0.0562 -0.2205
  880YOPE   NH312371   6.320   7.713   5.500  0.2133  0.4481 -0.1644
  880YOPE   PO412372   6.203   8.049   5.304 -0.0492 -0.0621 -0.2326
  880YOPE   GL112373   6.080   8.146   5.764  0.1528 -0.1389 -0.0452
  880YOPE   GL212374   5.780   8.093   5.722  0.0674 -0.0164  0.2687
  880YOPE   C1A12375   6.227   7.917   6.076 -0.0560 -0.2364  0.0776
  880YOPE   D2A12376   6.704   7.794   6.056  0.0563 -0.1974  0.0844
  880YOPE   C3A12377   6.898   7.450   6.371  0.2389 -0.2260 -0.0839
  880YOPE   C4A12378   6.912   7.201   6.654  0.3675  0.2546  0.4264
  880YOPE   C1B12379   5.805   8.149   6.225 -0.1667 -0.2681 -0.0169
  880YOPE   C2B12380   5.789   8.177   6.614 -0.1335 -0.1520  0.2615
  880YOPE   D3B12381   5.911   8.303   6.986  0.0791 -0.1324 -0.0671
  880YOPE   C4B12382   5.891   8.676   7.185 -0.3192  0.2571 -0.0600
  881YOPE   NH312383  11.537  15.427   5.878 -0.0970  0.2215 -0.1121
  881YOPE   PO412384  11.077  15.551   5.758  0.0355 -0.0896 -0.1728
  881YOPE   GL112385  11.019  15.200   5.908 -0.1154  0.2494  0.1512
  881YOPE   GL212386  11.255  15.167   6.154  0.1839 -0.0608 -0.1280
  881YOPE   C1A12387  10.713  14.992   6.166  0.3260 -0.2284 -0.1146
  881YOPE   D2A12388  10.656  14.800   6.520 -0.2011 -0.2245  0.0602
  881YOPE   C3A12389  10.334  14.864   6.742 -0.1718  0.2262  0.1034
  881YOPE   C4A12390  10.421  14.836   7.173 -0.4101 -0.0587  0.2516
  881YOPE   C1B12391  11.169  14.965   6.467  0.2205  0.1878 -0.2618
  881YOPE   C2B12392  11.149  14.838   6.793 -0.2910  0.3065  0.0670
  881YOPE   D3B12393  10.837  14.571   6.928 -0.4214 -0.4382 -0.0836
  881YOPE   C4B12394  10.706  14.349   7.211  0.1951 -0.0105  0.0987
  882YOPE   NH312395  12.496   4.044   5.495  0.1776 -0.1069  0.0986
  882YOPE   PO412396  12.379   4.323   5.793  0.5404 -0.0601  0.0730
  882YOPE   GL112397  12.459   4.096   6.240 -0.4978  0.1354  0.1548
  882YOPE   GL212398  12.172   3.984   6.235 -0.0321 -0.0137 -0.3903
  882YOPE   C1A12399  12.364   4.304   6.722  0.1738 -0.1497  0.2800
  882YOPE   D2A12400  12.343   4.089   7.226  0.2307 -0.1274 -0.1924
  882YOPE   C3A12401  12.069   4.229   7.461 -0.0866  0.1066 -0.0046
  882YOPE   C4A12402  11.910   4.404   7.872 -0.1263  0.1164  0.0745
  882YOPE   C1B12403  12.309   3.794   6.707 -0.1726 -0.1055 -0.2420
  882YOPE   C2B12404  12.491   3.643   7.144 -0.2061  0.0551  0.0204
  882YOPE   D3B12405  12.719   3.874   7.471  0.1842 -0.1175  0.1188
  882YOPE   C4B12406  12.866   3.981   7.897 -0.2291  0.3706  0.0668
  883YOPE   NH312407  15.892   6.566   5.708 -0.0086  0.1067  0.1167
  883YOPE   PO412408  15.461   6.598   5.765  0.0076 -0.0244 -0.0624
  883YOPE   GL112409  15.526   6.671   6.225 -0.0324  0.1620  0.0085
  883YOPE   GL212410  15.640   6.348   6.232  0.2113  0.0034 -0.3220
  883YOPE   C1A12411  15.618   6.967   6.623 -0.2071 -0.0106  0.1166
  883YOPE   D2A12412  15.625   6.864   6.962  0.1153 -0.2766 -0.0747
  883YOPE   C3A12413  15.570   7.297   7.185 -0.0838  0.0804  0.2155
  883YOPE   C4A12414  15.630   7.532   7.466 -0.1396  0.1812  0.4910
  883YOPE   C1B12415  15.762   6.448   6.643 -0.1420  0.2083 -0.2364
  883YOPE   C2B12416  16.030   6.570   6.837 -0.0019  0.0363  0.1124
  883YOPE   D3B12417  16.280   6.802   7.050 -0.0697  0.2226 -0.3461
  883YOPE   C4B12418  16.591   7.016   7.100 -0.2351  0.1830  0.2491
  884YOPE   NH312419  18.873  13.701   5.841 -0.3356  0.2323 -0.0722
  884YOPE   PO412420  19.033  13.966   6.211  0.1946  0.0831  0.1839
  884YOPE   GL112421  19.275  13.965   6.579 -0.0569  0.5818 -0.1517
  884YOPE   GL212422  19.291  14.274   6.700 -0.0751  0.3225 -0.3088
  884YOPE   C1A12423  19.399  13.798   6.975 -0.3513  0.0248 -0.0794
  884YOPE   D2A12424  19.454  13.382   7.106 -0.2491 -0.0757 -0.1745
  884YOPE   C3A12425  19.766  13.271   7.338  0.1790 -0.0478  0.0170
  884YOPE   C4A12426  20.028  12.959   7.478  0.1087  0.3790  0.0396
  884YOPE   C1B12427  19.141  14.283   7.089  0.3559 -0.1543  0.0331
  884YOPE   C2B12428  19.090  14.370   7.510 -0.3485 -0.3138  0.2757
  884YOPE   D3B12429  19.278  14.000   7.843 -0.2642 -0.4041  0.2419
  884YOPE   C4B12430  19.550  13.995   8.223 -0.2930  0.0474  0.2842
  885YOPE   NH312431   0.978  14.619   6.156  0.1543 -0.2882  0.0934
  885YOPE   PO412432   1.255  15.016   6.139 -0.2431 -0.0638  0.3620
  885YOPE   GL112433   1.517  15.103   6.449 -0.0287 -0.0815 -0.2298
  885YOPE   GL212434   1.887  15.138   6.383 -0.2246 -0.0729 -0.1980
  885YOPE   C1A12435   1.536  14.987   6.922  0.0010 -0.3531 -0.2432
  885YOPE   D2A12436   1.466  14.899   7.427 -0.1511  0.1090  0.1116
  885YOPE   C3A12437   1.432  14.490   7.684 -0.1381 -0.0653 -0.1078
  885YOPE   C4A12438   1.364  14.105   7.473 -0.0289  0.0875 -0.2750
  885YOPE   C1B12439   1.968  15.120   6.760 -0.0422 -0.0610  0.0860
  885YOPE   C2B12440   2.305  15.254   7.072 -0.3775 -0.2622 -0.1160
  885YOPE   D3B12441   2.415  15.306   7.476 -0.0381  0.3938 -0.1170
  885YOPE   C4B12442   2.198  15.105   7.872  0.4712  0.0509 -0.0773
  886YOPE   NH312443  10.423  10.809   5.690 -0.0249 -0.0320  0.0619
  886YOPE   PO412444  10.193  10.466   5.691  0.0479 -0.0635  0.2028
  886YOPE   GL112445  10.187  10.644   6.096  0.1248  0.4101  0.1206
  886YOPE   GL212446  10.399  10.420   6.280  0.2326 -0.0945 -0.0810
  886YOPE   C1A12447  10.253  11.077   6.200  0.0269  0.0185  0.4382
  886YOPE   D2A12448  10.648  11.278   6.152 -0.1679  0.0601 -0.0557
  886YOPE   C3A12449  10.791  11.705   5.939  0.0056  0.0185  0.1155
  886YOPE   C4A12450  10.574  12.029   5.801  0.2907 -0.0176  0.0261
  886YOPE   C1B12451  10.521  10.437   6.659  0.1264 -0.1055  0.0823
  886YOPE   C2B12452  10.631  10.285   6.979  0.0267  0.3947 -0.0040
  886YOPE   D3B12453  10.488  10.009   7.357 -0.1544  0.0532  0.3984
  886YOPE   C4B12454  10.398   9.543   7.644 -0.0466 -0.1455  0.1933
  887YOPE   NH312455   2.693  15.674   5.278 -0.0459  0.3018  0.0190
  887YOPE   PO412456   2.630  16.134   5.188  0.0276 -0.0287 -0.1158
  887YOPE   GL112457   2.608  16.062   5.645 -0.1245 -0.0883 -0.2845
  887YOPE   GL212458   2.432  15.808   5.659  0.2150  0.0709 -0.0581
  887YOPE   C1A12459   2.788  16.084   6.008 -0.0664 -0.0636  0.3129
  887YOPE   D2A12460   2.989  16.030   6.388  0.2283  0.0873 -0.2647
  887YOPE   C3A12461   2.919  15.981   6.868 -0.0661  0.1058 -0.4535
  887YOPE   C4A12462   3.103  16.025   7.300 -0.0362 -0.0290 -0.2752
  887YOPE   C1B12463   2.533  15.595   5.921  0.0189 -0.2312  0.4224
  887YOPE   C2B12464   2.676  15.580   6.334  0.1147  0.3547 -0.1640
  887YOPE   D3B12465   2.784  15.427   6.693 -0.0716  0.2292 -0.0099
  887YOPE   C4B12466   3.177  15.527   6.974 -0.2243  0.0385  0.3854
  888YOPE   NH312467   7.018   0.259   5.050  0.1537 -0.0124 -0.0851
  888YOPE   PO412468   7.527   0.190   4.964  0.0935  0.0474 -0.0730
  888YOPE   GL112469   7.280   0.317   5.430  0.2931  0.0475  0.2087
  888YOPE   GL212470   6.927   0.312   5.535  0.0492  0.2269  0.0939
  888YOPE   C1A12471   7.332   0.243   5.938 -0.2370  0.1004 -0.0908
  888YOPE   D2A12472   7.269   0.304   6.424 -0.0394 -0.0506  0.0034
  888YOPE   C3A12473   6.956   0.419   6.653 -0.1796  0.0032  0.1877
  888YOPE   C4A12474   6.631   0.748   6.837 -0.3739  0.0012 -0.1018
  888YOPE   C1B12475   6.919   0.659   5.779  0.1197 -0.3163 -0.0097
  888YOPE   C2B12476   6.915   0.761   6.219 -0.0023 -0.0362 -0.2070
  888YOPE   D3B12477   7.091   0.957   6.620 -0.2486 -0.0156 -0.0689
  888YOPE   C4B12478   7.350   1.072   7.052 -0.2641 -0.0658 -0.3232
  889YOPE   NH312479  11.442   3.301   5.917  0.0028  0.0713 -0.2206
  889YOPE   PO412480  11.546   3.653   5.677 -0.0508 -0.1693 -0.0286
  889YOPE   GL112481  11.715   3.696   6.108 -0.3706 -0.2246  0.1797
  889YOPE   GL212482  11.479   3.760   6.271  0.1641 -0.2707 -0.2350
  889YOPE   C1A12483  11.847   3.870   6.611 -0.4538 -0.0882  0.1918
  889YOPE   D2A12484  11.910   3.910   7.031  0.1233  0.2173 -0.1350
  889YOPE   C3A12485  11.588   4.105   7.028 -0.0686 -0.0293 -0.1917
  889YOPE   C4A12486  11.312   4.464   6.956 -0.0880 -0.2991  0.0425
  889YOPE   C1B12487  11.449   3.598   6.714 -0.1507 -0.1230  0.0592
  889YOPE   C2B12488  11.590   3.540   7.128 -0.1353 -0.2644 -0.3216
  889YOPE   D3B12489  11.594   3.891   7.505 -0.0718  0.2171 -0.0952
  889YOPE   C4B12490  11.546   4.313   7.503 -0.0184  0.1479 -0.2811
  890YOPE   NH312491   9.483   2.034   5.544 -0.1582  0.0358  0.2774
  890YOPE   PO412492   9.118   2.157   5.472 -0.0599 -0.0375  0.0130
  890YOPE   GL112493   8.822   2.363   5.739  0.1170  0.1169 -0.1842
  890YOPE   GL212494   8.501   2.197   5.920  0.1897 -0.1465  0.0171
  890YOPE   C1A12495   8.578   2.721   6.002 -0.3911 -0.0434  0.0590
  890YOPE   D2A12496   8.559   2.901   6.475  0.0698  0.0082 -0.0837
  890YOPE   C3A12497   8.915   2.967   6.706  0.2647  0.0955  0.3109
  890YOPE   C4A12498   9.212   3.086   7.022  0.1913 -0.1505  0.0482
  890YOPE   C1B12499   8.672   2.373   6.373  0.1338 -0.1315  0.1290
  890YOPE   C2B12500   8.689   2.467   6.692 -0.1656 -0.1059 -0.3799
  890YOPE   D3B12501   8.788   2.224   7.191  0.3524  0.0640 -0.0920
  890YOPE   C4B12502   8.852   2.080   7.631 -0.0536 -0.0884 -0.1147
  891YOPE   NH312503   9.052  17.109   5.574 -0.1606 -0.0696  0.0125
  891YOPE   PO412504   8.882  17.476   5.687 -0.1973  0.4703 -0.3001
  891YOPE   GL112505   8.706  17.325   6.020  0.0781  0.2846  0.3152
  891YOPE   GL212506   8.800  16.965   6.022 -0.0586 -0.0353  0.2000
  891YOPE   C1A12507   8.544  17.522   6.308 -0.2604  0.2608  0.4413
  891YOPE   D2A12508   8.536  17.602   6.769  0.3523 -0.2673  0.2448
  891YOPE   C3A12509   8.844  17.604   7.012 -0.2189 -0.2716  0.1621
  891YOPE   C4A12510   9.099  17.882   7.391  0.0696 -0.1171 -0.1399
  891YOPE   C1B12511   8.646  16.705   6.355 -0.0084  0.2208  0.0931
  891YOPE   C2B12512   8.649  16.685   6.718  0.2010  0.0842  0.0693
  891YOPE   D3B12513   8.596  16.479   7.113  0.3971 -0.1948 -0.0378
  891YOPE   C4B12514   8.493  16.608   7.573 -0.0098 -0.4193  0.1127
  892YOPE   NH312515  18.433  12.818   6.146  0.1505  0.2447  0.0058
  892YOPE   PO412516  18.410  13.298   6.075 -0.0470 -0.1202  0.1622
  892YOPE   GL112517  18.285  13.497   6.439 -0.0024  0.0792 -0.0468
  892YOPE   GL212518  17.942  13.489   6.585 -0.2155  0.0607  0.0855
  892YOPE   C1A12519  18.395  13.505   6.878 -0.1348 -0.0090  0.0483
  892YOPE   D2A12520  18.384  13.572   7.305  0.3362  0.0243 -0.1750
  892YOPE   C3A12521  18.789  13.642   7.671  0.0105 -0.0439  0.2475
  892YOPE   C4A12522  19.157  13.479   7.889 -0.0851  0.1470 -0.4721
  892YOPE   C1B12523  17.948  13.405   6.996 -0.0810 -0.2427  0.1072
  892YOPE   C2B12524  18.117  13.179   7.344 -0.0063 -0.1499 -0.0351
  892YOPE   D3B12525  18.243  12.737   7.388  0.0084  0.0255  0.0937
  892YOPE   C4B12526  18.338  12.269   7.558  0.4641 -0.0516  0.0711
  893YOPE   NH312527   1.638   2.183   5.329  0.1139  0.3705 -0.4156
  893YOPE   PO412528   2.036   2.077   5.382  0.2631  0.1152 -0.1960
  893YOPE   GL112529   1.948   1.829   5.617 -0.0991  0.4007  0.0427
  893YOPE   GL212530   1.627   1.793   5.806 -0.0100 -0.1691  0.0515
  893YOPE   C1A12531   2.256   1.860   5.939 -0.0252  0.3747  0.0131
  893YOPE   D2A12532   2.517   1.948   6.347  0.5681  0.3256  0.1210
  893YOPE   C3A12533   2.396   1.928   6.696 -0.0603  0.2129 -0.0864
  893YOPE   C4A12534   2.385   1.702   7.070 -0.0075 -0.2197  0.2762
  893YOPE   C1B12535   1.804   1.971   6.133  0.2643 -0.1686 -0.1406
  893YOPE   C2B12536   1.936   2.098   6.562 -0.0995  0.0605 -0.3543
  893YOPE   D3B12537   1.975   1.954   6.973  0.0585  0.5265 -0.3407
  893YOPE   C4B12538   1.990   1.707   7.397 -0.1776 -0.3279 -0.2235
  894YOPE   NH312539  17.664   2.646   5.243 -0.0901  0.0765  0.1645
  894YOPE   PO412540  17.586   2.329   5.610  0.0607  0.3554  0.3581
  894YOPE   GL112541  17.655   2.403   6.013 -0.0628 -0.0452  0.0103
  894YOPE   GL212542  17.460   2.355   6.269  0.1283  0.2158  0.0466
  894YOPE   C1A12543  17.924   2.679   6.307 -0.1532  0.0031 -0.0087
  894YOPE   D2A12544  18.137   2.792   6.695 -0.3689 -0.1709 -0.2819
  894YOPE   C3A12545  18.426   2.473   6.968  0.0279 -0.2081 -0.1980
  894YOPE   C4A12546  18.820   2.482   7.138  0.1437 -0.3652  0.1001
  894YOPE   C1B12547  17.335   2.050   6.571 -0.1342  0.1120  0.1615
  894YOPE   C2B12548  16.951   1.795   6.456 -0.0661 -0.1480 -0.1543
  894YOPE   D3B12549  16.597   1.697   6.688  0.0763 -0.2570  0.2438
  894YOPE   C4B12550  16.256   1.598   7.016 -0.0892  0.0129 -0.0244
  895YOPE   NH312551  11.642  16.401   5.447  0.0550  0.1833  0.1255
  895YOPE   PO412552  11.803  16.694   5.758 -0.2024 -0.0746 -0.2140
  895YOPE   GL112553  11.844  16.285   5.997 -0.0902 -0.3988 -0.3689
  895YOPE   GL212554  11.546  15.977   5.985  0.2137  0.1471 -0.1870
  895YOPE   C1A12555  11.951  16.149   6.472 -0.2052  0.2037 -0.0746
  895YOPE   D2A12556  12.072  16.325   6.806 -0.6349 -0.1060  0.0207
  895YOPE   C3A12557  12.304  16.280   7.143  0.1757 -0.0886  0.0645
  895YOPE   C4A12558  12.402  16.417   7.538 -0.2787 -0.1551  0.0218
  895YOPE   C1B12559  11.427  16.196   6.410 -0.1974  0.0178 -0.4416
  895YOPE   C2B12560  11.424  16.281   6.784  0.0981 -0.1968  0.0522
  895YOPE   D3B12561  11.394  16.365   7.193 -0.0658 -0.0495  0.0956
  895YOPE   C4B12562  11.428  16.773   7.341 -0.0526 -0.0495  0.2803
  896YOPE   NH312563  12.448   0.220   5.761  0.1237 -0.0636 -0.0356
  896YOPE   PO412564  12.765  -0.161   5.783  0.2132  0.1944 -0.0895
  896YOPE   GL112565  12.655  -0.253   6.179  0.1556  0.0196  0.0407
  896YOPE   GL212566  12.659   0.061   6.257 -0.1468 -0.0472  0.0129
  896YOPE   C1A12567  12.469  -0.569   6.369  0.0733  0.0705  0.1630
  896YOPE   D2A12568  12.238  -0.701   6.678 -0.4532  0.0495  0.0531
  896YOPE   C3A12569  12.206  -0.436   7.040 -0.0431 -0.1150  0.2383
  896YOPE   C4A12570  11.979  -0.006   7.149  0.1132 -0.1165 -0.1888
  896YOPE   C1B12571  12.659   0.264   6.628  0.2387 -0.2822 -0.0540
  896YOPE   C2B12572  12.911   0.297   7.000 -0.2819  0.0756 -0.0736
  896YOPE   D3B12573  13.184   0.369   7.454 -0.3157  0.2899 -0.1503
  896YOPE   C4B12574  13.326   0.325   7.908  0.0200  0.0003 -0.0295
  897YOPE   NH312575   9.658   7.425   5.644 -0.0525 -0.0873  0.0310
  897YOPE   PO412576   9.246   7.526   5.511  0.2910  0.0240 -0.2316
  897YOPE   GL112577   9.301   7.644   5.878 -0.2208  0.2256 -0.2645
  897YOPE   GL212578   9.341   7.304   6.009 -0.1619 -0.1741  0.0382
  897YOPE   C1A12579   9.247   7.663   6.346 -0.0371 -0.1006  0.1789
  897YOPE   D2A12580   9.308   7.865   6.768 -0.0079 -0.2285 -0.0084
  897YOPE   C3A12581   9.096   8.247   6.840 -0.0951 -0.3776  0.0157
  897YOPE   C4A12582   8.962   8.707   6.848 -0.2867  0.1543  0.0808
  897YOPE   C1B12583   9.297   7.220   6.447  0.3394 -0.1015  0.1229
  897YOPE   C2B12584   9.290   7.029   6.829  0.0311  0.1570  0.2144
  897YOPE   D3B12585   8.891   6.928   7.004  0.0444 -0.0955  0.2730
  897YOPE   C4B12586   8.785   6.624   7.187 -0.1344 -0.1125  0.0774
  898YOPE   NH312587  16.967   9.659   5.740  0.1793  0.1173  0.1503
  898YOPE   PO412588  17.267   9.990   5.521 -0.1800  0.0156  0.0133
  898YOPE   GL112589  17.320  10.113   5.907 -0.2040  0.0531  0.0883
  898YOPE   GL212590  17.239  10.397   5.992 -0.2348  0.1258  0.0386
  898YOPE   C1A12591  17.089  10.048   6.269 -0.0911 -0.0711  0.1597
  898YOPE   D2A12592  16.970   9.867   6.650 -0.1260 -0.3949  0.2004
  898YOPE   C3A12593  16.736   9.565   6.601 -0.0409 -0.0868  0.0155
  898YOPE   C4A12594  16.374   9.325   6.360  0.3428 -0.1753 -0.1677
  898YOPE   C1B12595  17.352  10.568   6.372 -0.1529  0.2593 -0.1677
  898YOPE   C2B12596  17.446  10.434   6.789  0.2704  0.0307 -0.0719
  898YOPE   D3B12597  17.203  10.682   7.187 -0.0029 -0.2201  0.1762
  898YOPE   C4B12598  17.051  10.658   7.572  0.1535  0.1802 -0.0324
  899YOPE   NH312599  13.827  17.411   5.692 -0.1667  0.4575 -0.4365
  899YOPE   PO412600  13.489  17.668   5.438 -0.1474  0.1827 -0.1222
  899YOPE   GL112601  13.418  17.792   5.837  0.1423 -0.0684 -0.1010
  899YOPE   GL212602  13.798  17.796   6.029 -0.0635 -0.0104 -0.1279
  899YOPE   C1A12603  13.225  17.747   6.237  0.1547 -0.0034  0.4812
  899YOPE   D2A12604  12.976  17.635   6.558 -0.4742 -0.0374  0.4474
  899YOPE   C3A12605  13.105  17.755   6.966 -0.1590 -0.3824  0.3850
  899YOPE   C4A12606  12.850  18.001   7.308  0.1100  0.1680  0.1081
  899YOPE   C1B12607  13.646  18.148   6.424  0.4280  0.3520 -0.4106
  899YOPE   C2B12608  13.815  18.111   6.795  0.1407  0.1082 -0.1219
  899YOPE   D3B12609  13.788  18.232   7.237  0.1450  0.0193 -0.0276
  899YOPE   C4B12610  13.818  18.295   7.678 -0.0737 -0.0245 -0.0678
  900YOPE   NH312611  18.556   7.102   5.994 -0.3778  0.3333  0.0277
  900YOPE   PO412612  18.378   6.721   6.098 -0.0699 -0.0181  0.2060
  900YOPE   GL112613  18.434   6.990   6.475 -0.0526 -0.2001 -0.1427
  900YOPE   GL212614  18.188   6.774   6.605 -0.0949 -0.2273  0.0017
  900YOPE   C1A12615  18.581   6.866   6.895 -0.3045 -0.1081 -0.2778
  900YOPE   D2A12616  18.552   6.678   7.250 -0.0754  0.1668  0.2517
  900YOPE   C3A12617  18.923   6.816   7.493  0.2977 -0.0094  0.0980
  900YOPE   C4A12618  19.440   6.707   7.483 -0.0935 -0.0977 -0.1211
  900YOPE   C1B12619  18.109   6.652   7.037 -0.0300  0.0229 -0.0952
  900YOPE   C2B12620  18.173   6.459   7.494 -0.2285 -0.0127 -0.2571
  900YOPE   D3B12621  18.500   6.366   7.793 -0.0293 -0.2220 -0.0320
  900YOPE   C4B12622  18.532   5.973   8.078 -0.2775  0.0266  0.1945
  901YOPE   NH312623   6.353  16.991   5.014  0.3149  0.1015 -0.0222
  901YOPE   PO412624   6.699  16.821   5.266  0.1042  0.2056  0.0670
  901YOPE   GL112625   6.932  16.889   5.717 -0.2998 -0.1783  0.2075
  901YOPE   GL212626   7.234  16.790   5.778 -0.2791 -0.0949 -0.0701
  901YOPE   C1A12627   6.744  16.970   6.066 -0.1871  0.1434  0.2894
  901YOPE   D2A12628   6.636  17.146   6.388 -0.1451 -0.1088  0.1700
  901YOPE   C3A12629   6.858  17.118   6.770 -0.2907 -0.0153 -0.0423
  901YOPE   C4A12630   6.836  17.261   7.197 -0.1554 -0.1504 -0.2304
  901YOPE   C1B12631   7.315  17.010   6.168  0.2106  0.2207 -0.1943
  901YOPE   C2B12632   7.307  17.181   6.550 -0.1088  0.3585  0.0330
  901YOPE   D3B12633   7.306  17.176   7.036 -0.1844 -0.3865 -0.1054
  901YOPE   C4B12634   7.533  16.990   7.299 -0.0947  0.0605 -0.3854
  902YOPE   NH312635   2.221   7.243   5.559 -0.3947  0.1324 -0.2183
  902YOPE   PO412636   2.596   7.108   5.411 -0.0271  0.1198 -0.1105
  902YOPE   GL112637   2.688   6.926   5.781  0.0819 -0.2670  0.1313
  902YOPE   GL212638   2.828   7.256   5.895  0.2260 -0.3283 -0.2107
  902YOPE   C1A12639   2.867   6.845   6.199 -0.0122  0.0836 -0.1462
  902YOPE   D2A12640   2.918   6.753   6.606 -0.0714  0.3042  0.0768
  902YOPE   C3A12641   2.969   6.896   7.015  0.3218  0.2456 -0.3678
  902YOPE   C4A12642   2.903   6.710   7.349 -0.2483  0.3367 -0.2350
  902YOPE   C1B12643   3.034   7.312   6.334 -0.0848 -0.0337 -0.2694
  902YOPE   C2B12644   3.149   7.680   6.485  0.1765  0.0982  0.0366
  902YOPE   D3B12645   3.552   7.691   6.798 -0.0470  0.1609 -0.1701
  902YOPE   C4B12646   3.784   7.447   7.035 -0.2059 -0.1457 -0.0009
  903YOPE   NH312647  11.077  17.172   5.538  0.1045 -0.1592 -0.2060
  903YOPE   PO412648  11.516  17.120   5.486 -0.0582  0.0811  0.0985
  903YOPE   GL112649  11.464  17.046   5.917  0.0202 -0.0691  0.0492
  903YOPE   GL212650  11.151  17.147   6.079 -0.3537  0.1198 -0.0233
  903YOPE   C1A12651  11.704  17.005   6.344 -0.0759  0.0761 -0.0007
  903YOPE   D2A12652  11.853  17.094   6.761  0.2230 -0.2103 -0.2892
  903YOPE   C3A12653  12.180  16.802   6.756 -0.0596 -0.0916  0.1030
  903YOPE   C4A12654  12.542  16.443   6.570 -0.1816 -0.5730 -0.1629
  903YOPE   C1B12655  11.302  17.335   6.335  0.2236 -0.0622 -0.2295
  903YOPE   C2B12656  11.118  17.501   6.737  0.1350 -0.3084 -0.0315
  903YOPE   D3B12657  11.226  17.919   6.893 -0.0321  0.1457 -0.1634
  903YOPE   C4B12658  11.218  18.356   6.917  0.1934  0.0510 -0.2184
  904YOPE   NH312659   9.936  16.373   5.570  0.3800 -0.0863  0.0119
  904YOPE   PO412660  10.262  16.473   5.643  0.1599 -0.3241  0.3114
  904YOPE   GL112661  10.279  16.670   6.002 -0.1372  0.3663 -0.0984
  904YOPE   GL212662  10.237  16.842   6.095 -0.1941 -0.1453  0.0295
  904YOPE   C1A12663  10.252  16.389   6.323  0.1463  0.0307 -0.1501
  904YOPE   D2A12664  10.076  16.317   6.668  0.1433 -0.1365 -0.1851
  904YOPE   C3A12665  10.391  16.243   7.033 -0.3807 -0.0939 -0.1187
  904YOPE   C4A12666  10.429  16.457   7.377 -0.2576  0.3353  0.2043
  904YOPE   C1B12667  10.039  16.800   6.441  0.3017  0.0446 -0.0512
  904YOPE   C2B12668   9.779  16.716   6.821 -0.2266 -0.0377 -0.1138
  904YOPE   D3B12669   9.578  16.878   7.258 -0.1169 -0.0008  0.0925
  904YOPE   C4B12670   9.266  16.978   7.544 -0.1735 -0.0430 -0.2190
  905YOPE   NH312671   0.130   9.589   5.595 -0.1422  0.0150  0.1182
  905YOPE   PO412672   0.537   9.454   5.425 -0.0872  0.3186  0.3515
  905YOPE   GL112673   0.446   9.113   5.744 -0.1752  0.0969  0.0036
  905YOPE   GL212674   0.285   9.288   5.961 -0.0357 -0.1934 -0.2556
  905YOPE   C1A12675   0.769   9.175   6.075  0.1034  0.0777 -0.1652
  905YOPE   D2A12676   1.210   9.243   6.177  0.1615  0.1623 -0.1613
  905YOPE   C3A12677   1.533   9.170   6.540 -0.0478  0.1262  0.1226
  905YOPE   C4A12678   1.671   9.217   6.923  0.1770 -0.1599 -0.0584
  905YOPE   C1B12679   0.357   9.499   6.303 -0.1830 -0.3004 -0.0933
  905YOPE   C2B12680   0.572   9.715   6.746 -0.1794  0.1287  0.0555
  905YOPE   D3B12681   0.608   9.895   7.125  0.0513  0.1044  0.0974
  905YOPE   C4B12682   0.509   9.883   7.495 -0.0208 -0.1826 -0.1461
  906YOPE   NH312683  10.456   7.686   5.702  0.2788  0.1042 -0.2601
  906YOPE   PO412684  10.236   8.100   5.504  0.2092  0.0873 -0.3639
  906YOPE   GL112685  10.295   8.143   5.988 -0.1576 -0.4376  0.3098
  906YOPE   GL212686  10.362   7.886   6.163  0.0338 -0.0008 -0.1302
  906YOPE   C1A12687  10.383   8.268   6.457 -0.0945  0.1126 -0.1023
  906YOPE   D2A12688  10.386   8.114   6.917  0.2971 -0.0777 -0.0836
  906YOPE   C3A12689  10.023   7.762   6.994  0.0745  0.2714  0.0029
  906YOPE   C4A12690   9.640   7.880   7.245  0.1958  0.1777  0.2606
  906YOPE   C1B12691  10.222   7.747   6.569 -0.4006 -0.0810 -0.1254
  906YOPE   C2B12692  10.285   7.357   6.867 -0.3164 -0.3642  0.2977
  906YOPE   D3B12693  10.388   6.963   7.209  0.0148 -0.0946 -0.1105
  906YOPE   C4B12694  10.426   6.503   7.367  0.0171 -0.0668  0.1786
  907YOPE   NH312695   8.002  18.171   5.226 -0.0186 -0.3066 -0.2066
  907YOPE   PO412696   7.760  18.544   5.090 -0.1067  0.0830 -0.3582
  907YOPE   GL112697   7.987  18.965   5.241  0.0816  0.1666 -0.2285
  907YOPE   GL212698   8.210  18.843   5.491 -0.0796 -0.0086 -0.0718
  907YOPE   C1A12699   7.962  19.261   5.671  0.0539 -0.3457  0.0569
  907YOPE   D2A12700   7.885  19.312   6.094 -0.0465  0.1340  0.0698
  907YOPE   C3A12701   8.095  19.422   6.493  0.2023 -0.3250 -0.2930
  907YOPE   C4A12702   8.008  19.392   7.003  0.1262 -0.1390  0.1619
  907YOPE   C1B12703   8.053  18.805   5.842 -0.0227 -0.0861 -0.2757
  907YOPE   C2B12704   7.855  18.537   6.174 -0.0560  0.0114  0.5724
  907YOPE   D3B12705   7.733  18.538   6.619  0.0213  0.0408 -0.2271
  907YOPE   C4B12706   7.483  18.494   7.032  0.1099  0.0161 -0.0338
  908YOPE   NH312707  10.673   8.165   5.691  0.2310 -0.4884 -0.1394
  908YOPE   PO412708  10.929   7.746   5.521 -0.0336 -0.4603  0.0712
  908YOPE   GL112709  11.189   7.399   5.748  0.1486 -0.3356  0.1452
  908YOPE   GL212710  11.454   7.466   5.888  0.0846 -0.0231 -0.0406
  908YOPE   C1A12711  11.267   6.968   5.939 -0.3319  0.1227  0.1149
  908YOPE   D2A12712  11.445   6.600   5.929  0.3527  0.1899 -0.0183
  908YOPE   C3A12713  11.329   6.283   6.170 -0.0675  0.2210  0.0311
  908YOPE   C4A12714  10.945   6.299   6.191  0.2192  0.6490  0.2238
  908YOPE   C1B12715  11.346   7.633   6.225  0.2877 -0.0395  0.0253
  908YOPE   C2B12716  11.190   7.587   6.543  0.1766  0.0013 -0.1420
  908YOPE   D3B12717  11.226   7.500   6.942 -0.4320 -0.0446 -0.2242
  908YOPE   C4B12718  11.364   7.450   7.345  0.0838  0.2160 -0.1878
  909YOPE   NH312719   9.987   1.624   5.818 -0.3247  0.3128  0.3855
  909YOPE   PO412720   9.627   1.589   5.742  0.1236 -0.0903 -0.0527
  909YOPE   GL112721   9.453   1.563   6.076  0.2967 -0.0040 -0.3385
  909YOPE   GL212722   9.160   1.437   6.173 -0.1087 -0.0451  0.0555
  909YOPE   C1A12723   9.543   1.295   6.426 -0.2400  0.0228 -0.2101
  909YOPE   D2A12724   9.719   0.969   6.800 -0.0676  0.1237 -0.5149
  909YOPE   C3A12725   9.776   1.032   7.206 -0.3636 -0.1868  0.4352
  909YOPE   C4A12726   9.498   1.204   7.470  0.2224 -0.0963 -0.0325
  909YOPE   C1B12727   8.896   1.331   6.510 -0.1655 -0.1056  0.0085
  909YOPE   C2B12728   8.904   1.255   6.957  0.0215 -0.0763 -0.0484
  909YOPE   D3B12729   9.047   1.180   7.292  0.0594  0.0043  0.1112
  909YOPE   C4B12730   9.215   0.791   7.612  0.2889  0.1325  0.0072
  910YOPE   NH312731   0.158   3.621   5.573 -0.2308  0.1264  0.1047
  910YOPE   PO412732   0.232   4.127   5.496 -0.2640 -0.2789  0.2003
  910YOPE   GL112733   0.306   4.276   5.913  0.0929  0.2227  0.1931
  910YOPE   GL212734   0.023   4.211   6.113  0.0641 -0.0973  0.3015
  910YOPE   C1A12735  -0.036   4.705   6.124 -0.1318  0.2904  0.1001
  910YOPE   D2A12736  -0.113   5.010   6.258  0.4080  0.0463 -0.0664
  910YOPE   C3A12737  -0.244   5.107   6.584  0.0375  0.0377 -0.0841
  910YOPE   C4A12738   0.011   5.349   6.881 -0.1441  0.4632  0.0693
  910YOPE   C1B12739   0.015   4.253   6.534 -0.1499  0.0414  0.0084
  910YOPE   C2B12740  -0.052   4.441   6.967 -0.3357  0.0316  0.0756
  910YOPE   D3B12741  -0.117   4.488   7.397 -0.1942 -0.1518 -0.1030
  910YOPE   C4B12742   0.242   4.741   7.671  0.0010  0.0391  0.1588
  911YOPE   NH312743  12.043  16.887   5.390  0.0505  0.1679  0.2230
  911YOPE   PO412744  12.483  16.984   5.520 -0.0162  0.0088 -0.1842
  911YOPE   GL112745  12.306  16.755   5.853 -0.0750  0.0517 -0.1455
  911YOPE   GL212746  12.605  16.643   6.105  0.2347  0.0021  0.1217
  911YOPE   C1A12747  12.133  16.578   6.279  0.0356  0.0424  0.2551
  911YOPE   D2A12748  11.759  16.557   6.427  0.0355 -0.0288 -0.4262
  911YOPE   C3A12749  11.672  16.676   6.863  0.1584  0.1048 -0.2485
  911YOPE   C4A12750  11.899  16.577   7.238 -0.0922 -0.4601 -0.0662
  911YOPE   C1B12751  12.364  17.090   6.204 -0.0606 -0.1939 -0.5151
  911YOPE   C2B12752  12.313  17.226   6.562 -0.1859  0.0629 -0.1802
  911YOPE   D3B12753  12.512  17.387   6.870 -0.0885  0.1452 -0.0615
  911YOPE   C4B12754  12.378  17.628   7.323  0.0192  0.0605 -0.2277
  912YOPE   NH312755   6.292   5.359   5.420  0.2128 -0.0162  0.0158
  912YOPE   PO412756   6.692   5.167   5.340  0.1103  0.1203  0.2791
  912YOPE   GL112757   7.075   5.213   5.489  0.2305  0.3957  0.2615
  912YOPE   GL212758   7.113   4.767   5.566  0.3103  0.0967  0.2348
  912YOPE   C1A12759   7.134   5.174   6.023  0.0564  0.4244 -0.0096
  912YOPE   D2A12760   7.129   5.106   6.440 -0.2973 -0.0191 -0.1823
  912YOPE   C3A12761   6.827   4.851   6.695 -0.1938  0.1939 -0.0578
  912YOPE   C4A12762   6.598   4.525   6.925 -0.2542 -0.0211 -0.1138
  912YOPE   C1B12763   7.214   4.673   6.050 -0.1055 -0.3449  0.1687
  912YOPE   C2B12764   7.242   4.613   6.500 -0.2791  0.2496 -0.2990
  912YOPE   D3B12765   7.350   4.424   6.916 -0.2696 -0.0831 -0.0432
  912YOPE   C4B12766   7.453   4.226   7.382  0.4816  0.3112  0.0049
  913YOPE   NH312767   5.148  18.376   5.222  0.1705  0.1109 -0.0454
  913YOPE   PO412768   4.934  18.826   5.125  0.2753  0.0841  0.1940
  913YOPE   GL112769   4.927  18.814   5.465 -0.0282  0.1640 -0.1753
  913YOPE   GL212770   4.911  18.573   5.694 -0.1483 -0.0043 -0.2042
  913YOPE   C1A12771   4.896  19.070   5.794  0.2337  0.1300 -0.0069
  913YOPE   D2A12772   5.017  19.468   5.726  0.0763 -0.0191 -0.0289
  913YOPE   C3A12773   5.082  19.648   6.263 -0.1326  0.3285  0.0673
  913YOPE   C4A12774   4.829  19.592   6.655 -0.5493  0.0355  0.1192
  913YOPE   C1B12775   5.090  18.716   6.056  0.0501 -0.2617 -0.5749
  913YOPE   C2B12776   5.289  18.856   6.461 -0.1248  0.2921 -0.0164
  913YOPE   D3B12777   5.525  18.873   6.787 -0.1956  0.3307 -0.0484
  913YOPE   C4B12778   5.818  18.940   7.098 -0.2744  0.2232 -0.1734
  914YOPE   NH312779   7.161  12.633   4.783 -0.0184 -0.2156  0.0252
  914YOPE   PO412780   7.101  12.999   5.159  0.4243  0.2200 -0.0302
  914YOPE   GL112781   6.845  12.932   5.591  0.0803  0.0290  0.0125
  914YOPE   GL212782   7.017  12.696   5.726 -0.0242 -0.2844  0.0175
  914YOPE   C1A12783   6.603  13.043   5.872 -0.1904  0.2152  0.2795
  914YOPE   D2A12784   6.259  13.318   5.922  0.0789  0.0993 -0.2338
  914YOPE   C3A12785   6.099  13.620   5.937 -0.2022  0.1782 -0.0909
  914YOPE   C4A12786   5.797  13.873   6.064  0.3023  0.3912  0.0511
  914YOPE   C1B12787   6.866  12.702   6.166 -0.4275  0.1103  0.1526
  914YOPE   C2B12788   6.778  12.518   6.567 -0.0341  0.1186  0.1252
  914YOPE   D3B12789   6.645  12.553   7.030  0.0983 -0.0925  0.0010
  914YOPE   C4B12790   6.330  12.760   7.254  0.3689  0.0062  0.3643
  915YOPE   NH312791  12.691   1.879   5.917  0.0562  0.0400  0.2186
  915YOPE   PO412792  12.967   1.463   5.847  0.1037  0.0514 -0.0192
  915YOPE   GL112793  12.895   1.467   6.278 -0.1807  0.0021 -0.3017
  915YOPE   GL212794  12.566   1.428   6.203 -0.0375  0.0149 -0.0090
  915YOPE   C1A12795  12.836   1.468   6.684  0.0970  0.1884 -0.0716
  915YOPE   D2A12796  12.929   1.299   7.016  0.1612 -0.1722 -0.3081
  915YOPE   C3A12797  12.568   1.344   7.142 -0.1613 -0.1360  0.1216
  915YOPE   C4A12798  12.399   1.157   6.879 -0.1654  0.0761  0.0369
  915YOPE   C1B12799  12.518   1.024   6.411  0.0320 -0.2550  0.0583
  915YOPE   C2B12800  12.671   0.757   6.762 -0.2242 -0.0014  0.0179
  915YOPE   D3B12801  12.768   0.756   7.164  0.2274  0.0033 -0.0958
  915YOPE   C4B12802  12.708   0.430   7.443 -0.2510 -0.0880 -0.1156
  916YOPE   NH312803  14.269  18.930   5.886 -0.2915  0.0258 -0.3140
  916YOPE   PO412804  13.791  18.899   5.850 -0.0648 -0.1254 -0.2999
  916YOPE   GL112805  13.810  18.818   6.193 -0.0223 -0.3207 -0.0394
  916YOPE   GL212806  13.654  19.114   6.351  0.0167  0.1191 -0.0102
  916YOPE   C1A12807  13.889  18.527   6.501 -0.1893  0.0342 -0.0719
  916YOPE   D2A12808  14.301  18.261   6.700  0.0108 -0.1253 -0.2369
  916YOPE   C3A12809  14.294  18.174   7.086  0.0861  0.1157  0.0625
  916YOPE   C4A12810  14.286  18.201   7.505  0.2954  0.0265 -0.0270
  916YOPE   C1B12811  13.639  18.949   6.727  0.0608 -0.0183  0.1186
  916YOPE   C2B12812  13.695  18.802   7.109  0.0655 -0.2103  0.0996
  916YOPE   D3B12813  13.378  18.833   7.398  0.2459 -0.1563 -0.0382
  916YOPE   C4B12814  13.116  18.892   7.794  0.1242 -0.2184  0.3229
  917YOPE   NH312815   9.955  14.053   5.334  0.1873  0.4056 -0.2585
  917YOPE   PO412816   9.547  13.858   5.272 -0.3804  0.1693  0.1871
  917YOPE   GL112817   9.455  13.736   5.732  0.2564  0.1255 -0.1956
  917YOPE   GL212818   9.587  13.281   5.775 -0.4261  0.2662 -0.1437
  917YOPE   C1A12819   9.368  13.933   6.093 -0.1754 -0.0303  0.3044
  917YOPE   D2A12820   9.256  14.114   6.442 -0.3404  0.0554 -0.0943
  917YOPE   C3A12821   9.169  13.883   6.743  0.0943  0.0713  0.2870
  917YOPE   C4A12822   8.843  13.596   6.991 -0.1965 -0.0247 -0.2026
  917YOPE   C1B12823   9.365  12.929   6.046  0.2299 -0.3050  0.1794
  917YOPE   C2B12824   9.171  12.841   6.506  0.1312 -0.1170  0.0286
  917YOPE   D3B12825   9.018  12.847   6.934 -0.2080  0.0583  0.1060
  917YOPE   C4B12826   9.039  12.900   7.412 -0.2692  0.2120  0.0185
  918YOPE   NH312827   8.228  13.656   4.827 -0.1189  0.0758 -0.1478
  918YOPE   PO412828   8.492  13.643   5.066  0.0584  0.2035 -0.0549
  918YOPE   GL112829   8.185  13.766   5.499  0.1540 -0.0641 -0.1343
  918YOPE   GL212830   7.869  13.525   5.543 -0.0787  0.1143  0.1071
  918YOPE   C1A12831   8.093  13.772   5.940  0.0341 -0.0100 -0.2547
  918YOPE   D2A12832   8.185  13.988   6.284 -0.0569  0.2019  0.0187
  918YOPE   C3A12833   8.097  13.869   6.630  0.2714  0.2494 -0.3319
  918YOPE   C4A12834   7.963  13.996   6.963 -0.0364  0.1053 -0.1017
  918YOPE   C1B12835   7.536  13.538   5.904 -0.0575  0.4305 -0.3487
  918YOPE   C2B12836   7.274  13.586   6.318 -0.1726  0.0729 -0.0713
  918YOPE   D3B12837   7.152  13.870   6.613  0.0301 -0.0218  0.0558
  918YOPE   C4B12838   7.027  13.659   6.955  0.4113  0.3682  0.3993
  919YOPE   NH312839  13.813   5.803   5.798 -0.0623  0.1508 -0.0309
  919YOPE   PO412840  14.239   5.521   5.893 -0.0320 -0.0236  0.0921
  919YOPE   GL112841  14.138   5.267   6.302 -0.0695 -0.0648 -0.0213
  919YOPE   GL212842  13.923   5.004   6.281  0.0437 -0.3168  0.0206
  919YOPE   C1A12843  13.934   5.307   6.705  0.4950  0.0454 -0.1121
  919YOPE   D2A12844  13.739   5.225   6.982  0.1440 -0.0139 -0.4002
  919YOPE   C3A12845  13.710   5.457   7.217 -0.0672  0.0470  0.1765
  919YOPE   C4A12846  13.999   5.769   7.371  0.2824  0.4679 -0.2857
  919YOPE   C1B12847  13.679   4.713   6.584  0.0242  0.1091  0.1922
  919YOPE   C2B12848  13.646   4.244   6.835  0.3031 -0.0586 -0.0130
  919YOPE   D3B12849  13.283   4.117   7.086 -0.0120  0.0552  0.0371
  919YOPE   C4B12850  12.991   3.769   7.072 -0.1214 -0.0017 -0.4449
  920YOPE   NH312851  18.465   9.229   5.621 -0.0353 -0.3716  0.0754
  920YOPE   PO412852  18.811   9.367   5.887  0.0104 -0.0511 -0.0906
  920YOPE   GL112853  18.856   9.768   6.018  0.0845 -0.2695  0.1249
  920YOPE   GL212854  19.169   9.833   6.038 -0.0861  0.0285  0.1698
  920YOPE   C1A12855  18.676  10.095   6.222 -0.0888  0.1672 -0.0911
  920YOPE   D2A12856  18.707  10.059   6.679  0.0011  0.1869  0.0171
  920YOPE   C3A12857  18.400  10.057   6.990 -0.3189  0.1968  0.0694
  920YOPE   C4A12858  18.140  10.192   7.230  0.1601 -0.0068 -0.1207
  920YOPE   C1B12859  19.128   9.938   6.537  0.0431  0.4521 -0.1300
  920YOPE   C2B12860  19.181  10.110   6.875  0.3705 -0.0673  0.0896
  920YOPE   D3B12861  18.878  10.236   7.107  0.2486  0.2425  0.2421
  920YOPE   C4B12862  18.564  10.339   7.358 -0.1072 -0.0176 -0.0628
  921YOPE   NH312863   0.004   2.576   5.784  0.0653  0.0479  0.2707
  921YOPE   PO412864  -0.377   2.780   6.023 -0.0312 -0.2729  0.1535
  921YOPE   GL112865  -0.163   2.585   6.297  0.0801 -0.1270  0.1579
  921YOPE   GL212866   0.153   2.553   6.401 -0.0344  0.0575 -0.0494
  921YOPE   C1A12867  -0.241   2.280   6.698 -0.0743  0.1020  0.3046
  921YOPE   D2A12868  -0.536   1.992   6.832 -0.0354 -0.0107 -0.0775
  921YOPE   C3A12869  -0.268   2.064   7.298  0.1656  0.1483 -0.1896
  921YOPE   C4A12870  -0.265   1.665   7.622 -0.3947 -0.3813  0.2151
  921YOPE   C1B12871   0.223   2.370   6.847 -0.0389  0.0323  0.1230
  921YOPE   C2B12872   0.600   2.051   7.047  0.1557 -0.3733 -0.0457
  921YOPE   D3B12873   0.686   1.756   7.287  0.0041 -0.1156  0.2742
  921YOPE   C4B12874   0.655   1.731   7.764 -0.2187  0.1357 -0.2306
  922YOPE   NH312875   3.874   4.271   5.607  0.1578 -0.1126 -0.2195
  922YOPE   PO412876   3.855   3.877   5.523 -0.0589  0.1859 -0.0824
  922YOPE   GL112877   4.129   3.784   5.882 -0.1240  0.1299 -0.1984
  922YOPE   GL212878   4.038   3.344   5.970  0.0175 -0.1678 -0.1246
  922YOPE   C1A12879   4.266   4.086   6.131 -0.2195  0.0930 -0.1823
  922YOPE   D2A12880   4.602   4.183   6.395  0.1701 -0.3045 -0.4204
  922YOPE   C3A12881   4.525   4.379   6.832  0.2603  0.3521 -0.1778
  922YOPE   C4A12882   4.041   4.560   7.008 -0.0184 -0.0260  0.0867
  922YOPE   C1B12883   4.189   3.365   6.400 -0.1115  0.1506  0.0478
  922YOPE   C2B12884   4.171   3.460   6.837  0.5996 -0.0602  0.0460
  922YOPE   D3B12885   3.965   3.351   7.180  0.1451 -0.0479  0.2257
  922YOPE   C4B12886   3.615   3.047   7.394 -0.2673  0.1630 -0.1294
  923YOPE   NH312887  10.304   9.095   5.571  0.2943 -0.2771 -0.0393
  923YOPE   PO412888  10.718   9.046   5.523 -0.1366  0.0751 -0.4270
  923YOPE   GL112889  10.616   9.124   5.996  0.2445 -0.0242 -0.1366
  923YOPE   GL212890  10.441   8.893   6.205 -0.1900 -0.1112 -0.1646
  923YOPE   C1A12891  10.295   9.458   6.235  0.2785 -0.2492 -0.2003
  923YOPE   D2A12892  10.332   9.787   6.488  0.0267 -0.2062 -0.2990
  923YOPE   C3A12893  10.431   9.722   6.872  0.2005  0.1874 -0.1469
  923YOPE   C4A12894  10.293   9.382   7.106  0.1374 -0.1849  0.0681
  923YOPE   C1B12895  10.485   9.145   6.551 -0.0439  0.0145  0.2016
  923YOPE   C2B12896  10.657   9.026   6.951 -0.1596  0.0432  0.0654
  923YOPE   D3B12897  10.778   8.848   7.336 -0.3142 -0.2049 -0.0891
  923YOPE   C4B12898  10.544   8.637   7.662 -0.1422 -0.0062 -0.1269
  924YOPE   NH312899   0.954   0.891   5.579 -0.0599  0.3321 -0.0570
  924YOPE   PO412900   0.615   0.600   5.655 -0.1701 -0.2773 -0.0628
  924YOPE   GL112901   0.816   0.491   6.041  0.1736 -0.2867 -0.0115
  924YOPE   GL212902   0.834   0.810   6.199  0.0033 -0.1287 -0.3053
  924YOPE   C1A12903   0.688   0.347   6.344  0.1588 -0.1203 -0.1259
  924YOPE   D2A12904   0.500   0.353   6.672  0.0202 -0.1935 -0.0221
  924YOPE   C3A12905   0.602   0.407   7.107 -0.1250  0.1534 -0.4438
  924YOPE   C4A12906   0.623   0.308   7.589 -0.3490 -0.1214 -0.1522
  924YOPE   C1B12907   0.843   0.806   6.650  0.2392 -0.1451 -0.2657
  924YOPE   C2B12908   0.864   0.899   7.048 -0.0421  0.0527 -0.0889
  924YOPE   D3B12909   0.720   0.882   7.453 -0.4075 -0.1112 -0.0907
  924YOPE   C4B12910   0.521   1.209   7.567 -0.3124  0.1754 -0.0091
  925YOPE   NH312911  11.420   7.805   5.528 -0.3515 -0.1447 -0.4425
  925YOPE   PO412912  11.575   8.207   5.411 -0.0719  0.0423  0.2473
  925YOPE   GL112913  11.643   8.178   5.798 -0.3762 -0.0697 -0.6094
  925YOPE   GL212914  11.844   7.904   5.970  0.2823  0.0573  0.0869
  925YOPE   C1A12915  11.527   8.128   6.256  0.3264  0.1509 -0.1300
  925YOPE   D2A12916  11.530   7.948   6.641  0.2602 -0.1769  0.0299
  925YOPE   C3A12917  11.546   7.938   7.115  0.1449 -0.1738 -0.1103
  925YOPE   C4A12918  11.797   7.730   7.282 -0.0019  0.0447  0.2548
  925YOPE   C1B12919  12.060   7.908   6.322  0.2537  0.1570  0.2335
  925YOPE   C2B12920  12.051   7.868   6.815  0.3396 -0.0354 -0.1390
  925YOPE   D3B12921  12.022   8.329   7.083 -0.0536 -0.0133  0.4350
  925YOPE   C4B12922  11.844   8.717   7.351  0.1567  0.3362 -0.0054
  926YOPE   NH312923  16.214   0.024   5.690 -0.5537 -0.0414 -0.0396
  926YOPE   PO412924  16.651  -0.097   5.749  0.1084 -0.1584 -0.1667
  926YOPE   GL112925  16.598  -0.014   6.263 -0.4526 -0.0484  0.0214
  926YOPE   GL212926  16.886   0.286   6.224 -0.1826  0.1789  0.1003
  926YOPE   C1A12927  16.523  -0.274   6.630 -0.3318  0.0054 -0.2102
  926YOPE   D2A12928  16.663  -0.163   7.018 -0.0965 -0.0832 -0.1557
  926YOPE   C3A12929  16.414  -0.074   7.443  0.2006  0.3143  0.0002
  926YOPE   C4A12930  16.549  -0.291   7.764  0.3305  0.2398 -0.0340
  926YOPE   C1B12931  17.065   0.674   6.327 -0.2972 -0.0656  0.2088
  926YOPE   C2B12932  17.125   0.787   6.748 -0.1137 -0.1065  0.0758
  926YOPE   D3B12933  17.037   0.931   7.198  0.2160  0.2176  0.1975
  926YOPE   C4B12934  16.845   1.259   7.545 -0.0936  0.2603  0.1490
  927YOPE   NH312935   3.735  15.603   5.057 -0.0379 -0.1131  0.0461
  927YOPE   PO412936   3.968  16.006   5.057 -0.0779  0.2159  0.0385
  927YOPE   GL112937   4.083  15.821   5.451 -0.2067 -0.0763 -0.3362
  927YOPE   GL212938   4.213  16.012   5.664 -0.3050  0.2606 -0.0700
  927YOPE   C1A12939   4.146  15.500   5.686 -0.1149 -0.3024 -0.1275
  927YOPE   D2A12940   4.260  15.317   5.992 -0.1151 -0.1045 -0.0571
  927YOPE   C3A12941   4.436  15.141   6.382 -0.3606  0.0986  0.2211
  927YOPE   C4A12942   4.328  15.033   6.785  0.1336  0.0746  0.0283
  927YOPE   C1B12943   4.032  15.917   6.011  0.1769 -0.2129  0.0984
  927YOPE   C2B12944   3.899  15.865   6.433 -0.0175 -0.0067  0.0121
  927YOPE   D3B12945   3.969  16.055   6.835  0.0971 -0.1123 -0.2163
  927YOPE   C4B12946   4.074  16.466   7.051  0.2207 -0.0556 -0.2398
  928YOPE   NH312947  17.367   7.050   6.025  0.0841 -0.0786 -0.2946
  928YOPE   PO412948  17.589   6.547   6.034  0.1107  0.1635 -0.0092
  928YOPE   GL112949  17.705   6.759   6.332  0.1386  0.1971 -0.0795
  928YOPE   GL212950  17.484   6.753   6.565  0.0872  0.0604  0.1131
  928YOPE   C1A12951  17.882   7.102   6.524 -0.0985 -0.2182  0.0452
  928YOPE   D2A12952  18.155   7.277   6.808 -0.1142  0.0324 -0.0196
  928YOPE   C3A12953  18.093   7.602   7.096  0.4021 -0.0845  0.2028
  928YOPE   C4A12954  18.220   8.102   7.224  0.0680  0.0888  0.1228
  928YOPE   C1B12955  17.585   6.661   7.035  0.0262 -0.5371  0.0285
  928YOPE   C2B12956  17.575   6.545   7.505 -0.1014  0.1500 -0.0435
  928YOPE   D3B12957  17.723   6.451   7.930  0.2289  0.2219  0.1101
  928YOPE   C4B12958  17.873   6.769   7.908  0.0659 -0.1499 -0.2231
  929YOPE   NH312959  13.977   5.103   5.799  0.1486  0.3014 -0.2528
  929YOPE   PO412960  13.543   5.293   5.919 -0.0435  0.2850  0.1657
  929YOPE   GL112961  13.294   5.179   6.287 -0.2372  0.1594 -0.0108
  929YOPE   GL212962  13.423   5.168   6.550 -0.0259 -0.0801 -0.1040
  929YOPE   C1A12963  13.170   4.745   6.317 -0.2942 -0.1954 -0.4026
  929YOPE   D2A12964  13.183   4.412   6.586 -0.3901 -0.0931  0.3966
  929YOPE   C3A12965  13.185   4.570   6.963 -0.3749 -0.1840  0.1671
  929YOPE   C4A12966  13.330   4.941   6.983  0.1863 -0.2049  0.4515
  929YOPE   C1B12967  12.999   5.097   6.651 -0.0123  0.2214 -0.1101
  929YOPE   C2B12968  12.845   5.080   7.038  0.0704 -0.2089  0.4807
  929YOPE   D3B12969  12.659   4.906   7.435  0.2621  0.2527  0.1254
  929YOPE   C4B12970  12.640   5.007   7.814  0.1561 -0.3894  0.1226
  930YOPE   NH312971  11.134   4.080   5.822 -0.0279 -0.0311  0.2670
  930YOPE   PO412972  11.068   3.639   5.895 -0.2020 -0.0622 -0.4707
  930YOPE   GL112973  11.024   3.488   6.362  0.0781  0.0243 -0.1994
  930YOPE   GL212974  11.195   3.192   6.349 -0.0089  0.0835 -0.2284
  930YOPE   C1A12975  10.912   3.757   6.671 -0.3042 -0.2861 -0.0289
  930YOPE   D2A12976  10.637   3.925   6.960  0.0563 -0.0421 -0.1490
  930YOPE   C3A12977  10.654   3.745   7.317  0.1559  0.0926  0.0260
  930YOPE   C4A12978  10.716   3.475   7.623 -0.0385 -0.3058  0.2598
  930YOPE   C1B12979  11.331   3.051   6.789  0.1926 -0.0219  0.0815
  930YOPE   C2B12980  11.573   3.051   7.240 -0.0002  0.2691 -0.0930
  930YOPE   D3B12981  11.808   3.183   7.543  0.1324 -0.2345 -0.3340
  930YOPE   C4B12982  12.028   3.077   7.907  0.0806 -0.0929 -0.0399
  931YOPE   NH312983  11.781   0.742   5.766 -0.2222 -0.1158  0.0437
  931YOPE   PO412984  12.299   0.770   5.759  0.2899  0.1640 -0.1393
  931YOPE   GL112985  12.166   1.075   6.054  0.1954 -0.1838 -0.3841
  931YOPE   GL212986  11.946   0.939   6.171 -0.3019 -0.0014  0.0064
  931YOPE   C1A12987  12.058   1.352   6.489 -0.1585 -0.0890  0.3555
  931YOPE   D2A12988  11.893   1.369   6.924 -0.1651 -0.1308 -0.0566
  931YOPE   C3A12989  12.095   1.276   7.347 -0.0892  0.1278 -0.0034
  931YOPE   C4A12990  12.296   0.936   7.448  0.0249  0.0776  0.0211
  931YOPE   C1B12991  11.935   0.908   6.667 -0.3268 -0.2383 -0.3928
  931YOPE   C2B12992  11.926   0.879   7.123  0.2379  0.2563 -0.2627
  931YOPE   D3B12993  11.782   0.838   7.532 -0.2213  0.0294 -0.3292
  931YOPE   C4B12994  11.844   0.930   7.892  0.0627  0.2504 -0.0363
  932YOPE   NH312995  16.461   5.916   5.956 -0.0337  0.0195 -0.2193
  932YOPE   PO412996  15.944   6.051   5.944 -0.0248 -0.0538  0.3374
  932YOPE   GL112997  15.916   5.962   6.372  0.4009 -0.0754 -0.0034
  932YOPE   GL212998  16.243   5.886   6.452  0.3386  0.4198  0.0605
  932YOPE   C1A12999  15.819   5.574   6.520  0.2274  0.0755 -0.1692
  932YOPE   D2A13000  16.089   5.192   6.529  0.1677  0.0064 -0.1911
  932YOPE   C3A13001  16.144   4.835   6.805  0.3016 -0.3603 -0.2430
  932YOPE   C4A13002  16.042   4.437   7.036  0.0538  0.1186 -0.0280
  932YOPE   C1B13003  16.252   6.210   6.677 -0.0320  0.4112 -0.1862
  932YOPE   C2B13004  16.309   6.267   7.151  0.1994  0.2639 -0.0357
  932YOPE   D3B13005  16.351   6.317   7.552 -0.0168  0.0411  0.2957
  932YOPE   C4B13006  16.687   6.301   7.807 -0.2367  0.2090  0.3526
  933YOPE   NH313007   1.890   0.942   4.809  0.0363  0.0779  0.1997
  933YOPE   PO413008   1.766   1.075   5.294  0.0976  0.2343 -0.1323
  933YOPE   GL113009   1.404   1.072   5.670 -0.1730 -0.2575  0.0275
  933YOPE   GL213010   1.270   1.314   5.653 -0.1826 -0.3780 -0.0611
  933YOPE   C1A13011   1.153   1.148   6.066 -0.1973 -0.4039 -0.0312
  933YOPE   D2A13012   1.192   1.209   6.521 -0.0800 -0.0598  0.1016
  933YOPE   C3A13013   1.065   1.363   6.883  0.0044 -0.0276  0.2550
  933YOPE   C4A13014   1.122   1.752   7.059  0.0360 -0.0359 -0.4457
  933YOPE   C1B13015   1.605   1.388   6.002  0.2749 -0.1022 -0.2240
  933YOPE   C2B13016   2.032   1.454   6.146 -0.0140 -0.0858  0.1544
  933YOPE   D3B13017   2.420   1.425   6.511 -0.1304  0.2595  0.0030
  933YOPE   C4B13018   2.460   1.252   6.920  0.1160 -0.2501  0.1166
  934YOPE   NH313019   1.556  11.441   5.538  0.1878  0.5120  0.1240
  934YOPE   PO413020   1.574  11.053   5.565  0.0247 -0.2051  0.3133
  934YOPE   GL113021   1.683  11.113   5.988 -0.4919  0.1124  0.2467
  934YOPE   GL213022   1.851  11.418   5.981 -0.1588  0.2664 -0.2233
  934YOPE   C1A13023   1.638  11.113   6.399  0.2082  0.1229 -0.1871
  934YOPE   D2A13024   1.642  11.310   6.714 -0.0454 -0.1151  0.0723
  934YOPE   C3A13025   1.737  11.603   6.923  0.0553 -0.2310  0.1944
  934YOPE   C4A13026   2.066  11.776   7.155  0.0766  0.0846  0.0430
  934YOPE   C1B13027   1.848  11.760   6.333  0.1580 -0.0890 -0.1612
  934YOPE   C2B13028   1.837  12.063   6.703  0.1331  0.4192 -0.2047
  934YOPE   D3B13029   2.053  12.399   6.967  0.0401 -0.0544  0.1066
  934YOPE   C4B13030   2.094  12.693   7.316  0.1211 -0.0446 -0.4671
  935YOPE   NH313031   0.863  14.449   5.411  0.1293 -0.0034  0.3360
  935YOPE   PO413032   1.213  14.445   5.666  0.4830 -0.0160  0.1171
  935YOPE   GL113033   1.529  14.573   6.054  0.0549  0.0904  0.1539
  935YOPE   GL213034   1.362  14.400   6.331  0.2877  0.0950 -0.1820
  935YOPE   C1A13035   1.831  14.648   6.437 -0.0553 -0.2146 -0.0273
  935YOPE   D2A13036   2.163  14.471   6.720  0.2002  0.0307 -0.1384
  935YOPE   C3A13037   2.153  14.630   7.050 -0.1159  0.0556  0.2163
  935YOPE   C4A13038   2.254  14.798   7.394  0.3271  0.1950 -0.0844
  935YOPE   C1B13039   1.525  14.514   6.805  0.0343  0.1059  0.2247
  935YOPE   C2B13040   1.548  14.482   7.150 -0.3407  0.2681 -0.2218
  935YOPE   D3B13041   1.906  14.467   7.516 -0.1689  0.5516 -0.2142
  935YOPE   C4B13042   1.943  14.102   7.696  0.0660  0.0876 -0.0966
  936YOPE   NH313043  14.370   4.296   5.979 -0.0671  0.1895 -0.0033
  936YOPE   PO413044  14.658   4.088   5.878  0.0039 -0.1299  0.2159
  936YOPE   GL113045  14.620   3.957   6.314 -0.2313  0.0565  0.1176
  936YOPE   GL213046  14.493   4.149   6.393  0.3893 -0.0558 -0.1950
  936YOPE   C1A13047  14.894   3.698   6.442  0.1160  0.1655  0.0908
  936YOPE   D2A13048  15.289   3.660   6.574 -0.0691 -0.0488  0.0570
  936YOPE   C3A13049  15.313   3.713   7.087  0.0599  0.1612 -0.2029
  936YOPE   C4A13050  15.741   3.623   7.236 -0.1018 -0.3439  0.2540
  936YOPE   C1B13051  14.536   4.335   6.855 -0.2139 -0.0207 -0.1370
  936YOPE   C2B13052  14.583   4.343   7.219  0.1695 -0.3474 -0.3436
  936YOPE   D3B13053  14.668   4.198   7.628 -0.0668  0.0925  0.2165
  936YOPE   C4B13054  14.282   4.205   7.867 -0.1292  0.1407 -0.1132
  937YOPE   NH313055  10.311  15.946   5.423  0.3407 -0.0063 -0.4047
  937YOPE   PO413056  10.653  15.504   5.527  0.1826 -0.1124  0.0429
  937YOPE   GL113057  10.170  15.522   5.716  0.2698 -0.2691 -0.0616
  937YOPE   GL213058  10.105  15.141   5.692  0.1719 -0.2131 -0.1106
  937YOPE   C1A13059  10.162  15.418   6.124 -0.2277  0.0680 -0.4138
  937YOPE   D2A13060  10.346  15.278   6.466  0.0180  0.0717 -0.0023
  937YOPE   C3A13061  10.204  15.369   6.917 -0.0167 -0.0112  0.2148
  937YOPE   C4A13062  10.085  15.222   7.289  0.1001  0.0812  0.3283
  937YOPE   C1B13063  10.211  14.840   6.096  0.0457 -0.1254  0.2056
  937YOPE   C2B13064  10.068  14.671   6.407  0.0931 -0.0383  0.1607
  937YOPE   D3B13065   9.869  14.338   6.634  0.2745 -0.2078 -0.0425
  937YOPE   C4B13066   9.444  14.337   6.845 -0.3500 -0.2109 -0.0373
  938YOPE   NH313067   0.380   1.567   5.429 -0.1305 -0.1119  0.1022
  938YOPE   PO413068   0.829   1.421   5.455 -0.0318 -0.3081  0.1225
  938YOPE   GL113069   0.623   1.320   5.815 -0.1837 -0.0543 -0.2217
  938YOPE   GL213070   0.489   1.014   5.864 -0.1625 -0.0444 -0.1391
  938YOPE   C1A13071   0.717   1.283   6.312 -0.0553  0.0866 -0.1010
  938YOPE   D2A13072   0.524   1.178   6.728  0.0257 -0.1330  0.0197
  938YOPE   C3A13073   0.442   1.366   7.056  0.0545 -0.0955 -0.1180
  938YOPE   C4A13074   0.178   1.541   7.431 -0.2521 -0.1780  0.0762
  938YOPE   C1B13075   0.345   0.827   6.331  0.0866 -0.2285 -0.0151
  938YOPE   C2B13076   0.204   0.749   6.791  0.0729 -0.1642 -0.0960
  938YOPE   D3B13077   0.323   0.835   7.181  0.2913  0.0374 -0.1115
  938YOPE   C4B13078   0.283   0.685   7.618  0.0322  0.1943  0.0380
  939YOPE   NH313079   9.994   0.371   5.677  0.1795  0.2557  0.1692
  939YOPE   PO413080   9.800   0.022   5.628 -0.3046  0.2633 -0.0359
  939YOPE   GL113081   9.777   0.109   6.105 -0.0769  0.2155  0.2800
  939YOPE   GL213082  10.041   0.196   6.223  0.0852  0.0617  0.0681
  939YOPE   C1A13083   9.545  -0.030   6.373 -0.2811 -0.0783  0.0259
  939YOPE   D2A13084   9.326  -0.304   6.614 -0.1377  0.4195 -0.2625
  939YOPE   C3A13085   9.503  -0.663   6.654  0.0814 -0.2306 -0.1701
  939YOPE   C4A13086   9.676  -0.923   6.613 -0.0955  0.0144  0.0233
  939YOPE   C1B13087  10.139   0.287   6.584 -0.0767 -0.0558 -0.2306
  939YOPE   C2B13088  10.107   0.578   6.940  0.1220  0.0248  0.0407
  939YOPE   D3B13089  10.136   0.595   7.384 -0.1090 -0.1923 -0.0638
  939YOPE   C4B13090  10.245   0.933   7.723 -0.0560 -0.0211  0.1825
  940YOPE   NH313091  11.873   2.291   5.704  0.1569 -0.1173  0.2282
  940YOPE   PO413092  11.557   2.056   5.665  0.3602 -0.1371  0.0650
  940YOPE   GL113093  11.672   1.984   6.057 -0.2588  0.2149  0.1217
  940YOPE   GL213094  11.633   2.286   6.166 -0.2121  0.2147  0.2204
  940YOPE   C1A13095  11.522   1.975   6.494  0.2371  0.1948  0.0745
  940YOPE   D2A13096  11.184   2.214   6.627  0.1283 -0.3196 -0.0935
  940YOPE   C3A13097  11.390   2.537   6.579 -0.0101  0.0565  0.1598
  940YOPE   C4A13098  11.611   2.806   6.476  0.0597 -0.2532  0.0747
  940YOPE   C1B13099  11.860   2.388   6.585  0.0022  0.0652 -0.0613
  940YOPE   C2B13100  12.094   2.278   6.970 -0.0348  0.0587 -0.0292
  940YOPE   D3B13101  11.945   2.183   7.335 -0.2586 -0.2530 -0.0993
  940YOPE   C4B13102  11.903   2.282   7.785 -0.0686 -0.1544  0.1760
  941YOPE   NH313103   4.102   1.080   5.126 -0.1112  0.1886  0.1599
  941YOPE   PO413104   3.835   0.846   5.362  0.0889  0.1438  0.2586
  941YOPE   GL113105   3.992   1.148   5.644  0.0931 -0.1161 -0.0595
  941YOPE   GL213106   3.828   1.391   5.715  0.0126  0.1782  0.1293
  941YOPE   C1A13107   4.227   1.250   6.052 -0.0969  0.1526  0.0764
  941YOPE   D2A13108   4.484   1.096   6.343  0.0526  0.0282 -0.2607
  941YOPE   C3A13109   4.341   0.868   6.759  0.0745 -0.0201  0.4802
  941YOPE   C4A13110   4.222   0.961   7.108 -0.1709 -0.0378 -0.0060
  941YOPE   C1B13111   3.849   1.531   6.189  0.2239 -0.3946 -0.0140
  941YOPE   C2B13112   3.909   1.802   6.564 -0.4744 -0.0707  0.1032
  941YOPE   D3B13113   3.984   1.909   6.952  0.3007 -0.0022  0.0480
  941YOPE   C4B13114   4.289   1.914   7.322  0.3956 -0.0391  0.2824
  942POPC   NC313115   1.291  10.700   5.348 -0.0081 -0.1375  0.1515
  942POPC   PO413116   1.612  10.300   5.520  0.0590  0.1162  0.3060
  942POPC   GL113117   1.666  10.273   5.850 -0.3283  0.2537  0.1022
  942POPC   GL213118   1.985  10.168   5.919  0.0304  0.1259  0.0397
  942POPC   C1A13119   1.483  10.090   6.164  0.2140 -0.5379  0.0721
  942POPC   D2A13120   1.450  10.177   6.566 -0.0959 -0.4658  0.2005
  942POPC   C3A13121   1.694   9.961   6.942 -0.3126 -0.1933 -0.3862
  942POPC   C4A13122   1.978  10.111   7.198 -0.0221 -0.0082 -0.1467
  942POPC   C1B13123   1.950  10.048   6.405  0.3182  0.0991  0.0412
  942POPC   C2B13124   2.192  10.300   6.709 -0.0392 -0.1062  0.2034
  942POPC   C3B13125   2.476  10.292   7.069  0.0561 -0.2181 -0.0132
  942POPC   C4B13126   2.757  10.064   7.346  0.0884  0.1871 -0.0923
  943POPC   NC313127   5.637  10.152   4.948 -0.0756 -0.0112 -0.0418
  943POPC   PO413128   5.865   9.934   5.267 -0.2368  0.0092  0.1982
  943POPC   GL113129   6.012  10.329   5.344  0.0371  0.1204  0.0604
  943POPC   GL213130   5.614  10.511   5.344 -0.4161 -0.2514  0.1690
  943POPC   C1A13131   6.180  10.217   5.888  0.0003  0.0887 -0.0253
  943POPC   D2A13132   6.265  10.140   6.168 -0.2647  0.0819  0.2015
  943POPC   C3A13133   5.944   9.914   6.232  0.1462  0.0524 -0.0224
  943POPC   C4A13134   5.586   9.775   6.151  0.0498  0.0426  0.1431
  943POPC   C1B13135   5.710  10.364   5.739  0.1320  0.0278 -0.0559
  943POPC   C2B13136   5.750  10.433   6.014 -0.1915  0.4449 -0.0460
  943POPC   C3B13137   5.910  10.328   6.501  0.7839  0.1000 -0.1199
  943POPC   C4B13138   5.986  10.243   6.880  0.1639  0.1152  0.1328
  944POPC   NC313139  16.822  12.439   5.516 -0.2021 -0.0689 -0.0792
  944POPC   PO413140  16.672  12.130   5.650  0.1055  0.2184 -0.4831
  944POPC   GL113141  16.699  12.166   6.213 -0.0205  0.0903 -0.3167
  944POPC   GL213142  16.759  11.870   6.382 -0.1178 -0.1991 -0.3331
  944POPC   C1A13143  16.428  12.206   6.558  0.1563  0.2116 -0.2171
  944POPC   D2A13144  16.251  12.101   6.950  0.0732 -0.2062  0.3070
  944POPC   C3A13145  16.371  12.154   7.330 -0.1638 -0.0830  0.3066
  944POPC   C4A13146  16.161  11.946   7.592  0.1728  0.3297  0.0548
  944POPC   C1B13147  16.688  11.865   6.836 -0.0451 -0.0155  0.1097
  944POPC   C2B13148  16.555  11.654   7.196 -0.1740  0.1433  0.0399
  944POPC   C3B13149  16.592  11.615   7.641 -0.1986  0.0191 -0.1785
  944POPC   C4B13150  16.295  11.530   7.903 -0.2015 -0.2184 -0.0749
  945POPC   NC313151   1.570   8.807   5.502  0.0921  0.2180  0.2184
  945POPC   PO413152   1.632   9.170   5.876  0.3195  0.0854  0.1525
  945POPC   GL113153   1.633   8.777   6.058 -0.0983 -0.1891  0.1143
  945POPC   GL213154   1.409   8.620   5.913 -0.0453  0.0618  0.1999
  945POPC   C1A13155   1.678   8.667   6.395  0.2270 -0.1943  0.0757
  945POPC   D2A13156   1.764   8.624   6.755  0.4048  0.0315  0.0153
  945POPC   C3A13157   2.074   8.853   7.021  0.0133 -0.4212 -0.0448
  945POPC   C4A13158   2.224   9.142   7.328 -0.2375  0.2283  0.2098
  945POPC   C1B13159   1.281   8.411   6.250  0.0517  0.1220  0.0676
  945POPC   C2B13160   1.286   8.488   6.667  0.2127 -0.4017 -0.1447
  945POPC   C3B13161   1.056   8.573   7.077 -0.3263 -0.2693  0.2189
  945POPC   C4B13162   1.024   8.669   7.463  0.1897  0.2722  0.0907
  946POPC   NC313163  10.610  14.173   4.982  0.4167  0.2189  0.2181
  946POPC   PO413164  10.411  13.905   5.165 -0.2306 -0.2036  0.1403
  946POPC   GL113165  10.413  13.728   5.610  0.0967  0.0839  0.1187
  946POPC   GL213166  10.431  13.965   5.905 -0.2986  0.0114 -0.1625
  946POPC   C1A13167  10.404  13.444   6.015  0.0485 -0.0115  0.0826
  946POPC   D2A13168  10.138  13.457   6.471 -0.0818 -0.2638  0.1629
  946POPC   C3A13169  10.282  13.263   6.872 -0.5048  0.0007 -0.0602
  946POPC   C4A13170  10.554  12.946   7.086 -0.0390 -0.1310 -0.0064
  946POPC   C1B13171  10.389  13.888   6.240 -0.3608 -0.0909 -0.3349
  946POPC   C2B13172  10.229  13.929   6.682  0.1078  0.0506 -0.0028
  946POPC   C3B13173   9.968  14.041   7.022  0.2904  0.0666  0.0006
  946POPC   C4B13174   9.491  13.960   7.142 -0.1613 -0.0870  0.1465
  947POPC   NC313175   8.789  15.619   5.071 -0.1319  0.0465 -0.0786
  947POPC   PO413176   8.804  15.099   5.190 -0.0081 -0.3190  0.1900
  947POPC   GL113177   8.846  14.947   5.525 -0.2530 -0.2238  0.1854
  947POPC   GL213178   8.781  14.606   5.521 -0.0350 -0.3059 -0.3287
  947POPC   C1A13179   8.655  14.857   5.934  0.0226  0.0190 -0.0375
  947POPC   D2A13180   8.379  14.833   6.198  0.4033 -0.1793 -0.0023
  947POPC   C3A13181   8.447  14.827   6.677  0.0024 -0.3338 -0.1225
  947POPC   C4A13182   8.318  14.797   7.070 -0.5551  0.0192  0.2166
  947POPC   C1B13183   8.954  14.426   5.831 -0.1202  0.0043  0.1824
  947POPC   C2B13184   9.279  14.389   6.007 -0.1471  0.0648  0.1564
  947POPC   C3B13185   9.670  14.591   5.972  0.1439 -0.4936  0.2716
  947POPC   C4B13186  10.075  14.384   6.053  0.0817  0.1497  0.3659
  948POPC   NC313187  10.661   4.238   5.013 -0.2314  0.3967 -0.1208
  948POPC   PO413188  10.296   4.087   5.252  0.0916 -0.2851  0.5816
  948POPC   GL113189  10.099   4.168   5.672  0.0925  0.0870  0.1550
  948POPC   GL213190  10.031   3.887   5.762  0.1287  0.1462 -0.0554
  948POPC   C1A13191  10.050   4.405   6.019 -0.0022 -0.1332  0.0174
  948POPC   D2A13192   9.628   4.431   6.309  0.1323  0.1048 -0.1092
  948POPC   C3A13193   9.667   4.544   6.753  0.0666 -0.3392 -0.3079
  948POPC   C4A13194   9.703   4.802   7.077 -0.0030  0.1538 -0.0758
  948POPC   C1B13195  10.026   3.936   6.232  0.0091  0.0511 -0.1695
  948POPC   C2B13196   9.975   4.059   6.583 -0.3664  0.2807  0.0538
  948POPC   C3B13197  10.071   4.185   6.969  0.0147 -0.3314  0.0270
  948POPC   C4B13198  10.077   4.503   7.374  0.3593  0.2121  0.1161
  949POPC   NC313199   9.837   5.791   4.865 -0.0218 -0.1294  0.0579
  949POPC   PO413200  10.124   5.571   5.140  0.1982 -0.0225  0.1109
  949POPC   GL113201   9.894   5.525   5.554 -0.2779 -0.4440 -0.0864
  949POPC   GL213202  10.141   5.248   5.729  0.0570  0.0490  0.1264
  949POPC   C1A13203   9.772   5.460   6.011 -0.0222 -0.4448 -0.0839
  949POPC   D2A13204  10.058   5.604   6.368  0.1949 -0.2894 -0.2460
  949POPC   C3A13205   9.998   5.668   6.900  0.1488  0.0456  0.1758
  949POPC   C4A13206   9.927   5.666   7.347  0.1580 -0.2677  0.3074
  949POPC   C1B13207  10.413   5.605   5.909 -0.3793  0.1739  0.0577
  949POPC   C2B13208  10.796   5.738   6.001  0.4645  0.2357  0.0169
  949POPC   C3B13209  11.093   5.832   6.288 -0.0754 -0.0945  0.5680
  949POPC   C4B13210  11.255   6.063   6.644 -0.0552 -0.2346 -0.1571
  950POPC   NC313211  15.315   0.856   5.264 -0.2576 -0.4971  0.0572
  950POPC   PO413212  15.130   0.864   5.681  0.0433  0.1105  0.2576
  950POPC   GL113213  15.154   0.780   6.109  0.0761 -0.1439  0.1259
  950POPC   GL213214  14.914   0.932   6.203  0.1224 -0.2638 -0.0609
  950POPC   C1A13215  15.280   0.697   6.583 -0.0918  0.0308 -0.0967
  950POPC   D2A13216  15.306   0.617   7.004  0.0607  0.0697  0.3291
  950POPC   C3A13217  15.508   0.167   7.128  0.2031 -0.0899 -0.1346
  950POPC   C4A13218  15.539  -0.015   7.576 -0.3232 -0.2577 -0.1232
  950POPC   C1B13219  14.661   0.783   6.549  0.0784  0.0938 -0.2430
  950POPC   C2B13220  14.785   0.811   6.923  0.0961  0.2769 -0.4121
  950POPC   C3B13221  14.848   0.664   7.307 -0.1443 -0.2447  0.1048
  950POPC   C4B13222  14.892   0.729   7.752  0.1245  0.0802  0.0377
  951POPC   NC313223  10.135  17.894   5.371 -0.0092 -0.0018  0.0235
  951POPC   PO413224   9.994  17.485   5.541  0.1263  0.0066  0.0523
  951POPC   GL113225  10.307  17.307   5.918 -0.3166  0.0981  0.0207
  951POPC   GL213226  10.216  17.359   6.295  0.0448 -0.1802  0.0378
  951POPC   C1A13227  10.643  17.184   6.126 -0.1806 -0.0083 -0.1227
  951POPC   D2A13228  10.786  17.266   6.482  0.0173  0.0601 -0.1835
  951POPC   C3A13229  10.674  17.206   6.987 -0.2156  0.1022 -0.1308
  951POPC   C4A13230  10.621  16.936   7.438 -0.0670  0.1155  0.1470
  951POPC   C1B13231  10.303  17.284   6.609  0.2448  0.1708 -0.3458
  951POPC   C2B13232  10.223  17.425   6.972  0.1846  0.3410 -0.3929
  951POPC   C3B13233  10.385  17.420   7.340 -0.1331  0.0273 -0.0347
  951POPC   C4B13234  10.735  17.547   7.651  0.1610 -0.2727  0.1447
  952POPC   NC313235  14.551   6.448   5.969  0.0959  0.0293  0.3369
  952POPC   PO413236  14.830   6.304   5.750 -0.3284 -0.0141  0.0412
  952POPC   GL113237  15.021   6.485   6.114 -0.0854  0.0590  0.0095
  952POPC   GL213238  14.723   6.613   6.385 -0.1269 -0.1128  0.3781
  952POPC   C1A13239  15.165   6.373   6.504 -0.1281 -0.3279 -0.1600
  952POPC   D2A13240  14.992   6.078   6.768 -0.2119 -0.0595 -0.0221
  952POPC   C3A13241  14.817   6.156   7.188  0.0281  0.1607 -0.0232
  952POPC   C4A13242  14.477   6.198   7.525  0.0238  0.0381 -0.0169
  952POPC   C1B13243  14.780   6.560   6.804  0.1240 -0.0844 -0.3925
  952POPC   C2B13244  14.870   6.707   7.265  0.0041  0.3049 -0.3144
  952POPC   C3B13245  14.827   6.522   7.631 -0.0624 -0.1789 -0.1388
  952POPC   C4B13246  14.906   6.007   7.752 -0.3479  0.1747  0.1281
  953POPC   NC313247  16.563  13.792   5.830 -0.1577  0.2002  0.1979
  953POPC   PO413248  16.404  14.201   5.811 -0.0833  0.0590  0.2279
  953POPC   GL113249  16.467  14.062   6.222 -0.1920  0.0587 -0.1486
  953POPC   GL213250  16.305  14.260   6.428  0.0617 -0.0037 -0.1720
  953POPC   C1A13251  16.133  13.800   6.489 -0.2524  0.2494 -0.0632
  953POPC   D2A13252  15.757  13.592   6.342 -0.3259 -0.2418  0.2342
  953POPC   C3A13253  15.777  13.287   6.050  0.3382  0.2462  0.0595
  953POPC   C4A13254  15.570  12.857   6.093  0.1064  0.1428 -0.2336
  953POPC   C1B13255  16.407  14.390   6.704 -0.0591  0.2759 -0.0699
  953POPC   C2B13256  16.647  14.366   7.049 -0.0146 -0.1364  0.3155
  953POPC   C3B13257  16.732  14.586   7.425  0.0673  0.0827  0.3479
  953POPC   C4B13258  16.941  14.665   7.866 -0.2133  0.1101 -0.3733
  954POPC   NC313259  12.472   3.255   5.881 -0.3045  0.2124  0.0743
  954POPC   PO413260  12.391   3.736   5.864  0.1954 -0.3307  0.1382
  954POPC   GL113261  12.738   3.652   6.197 -0.1208 -0.1200  0.1356
  954POPC   GL213262  13.026   3.552   6.030 -0.3643 -0.2873 -0.0587
  954POPC   C1A13263  12.903   3.749   6.576  0.3188 -0.0409 -0.0402
  954POPC   D2A13264  12.827   4.182   6.738  0.3295 -0.0478 -0.0043
  954POPC   C3A13265  12.735   4.542   6.386  0.2504  0.0013 -0.1291
  954POPC   C4A13266  12.687   4.883   6.094 -0.0032  0.3531 -0.2260
  954POPC   C1B13267  13.365   3.615   6.292  0.4020  0.2380  0.2362
  954POPC   C2B13268  13.412   3.768   6.780  0.1237 -0.1037  0.0869
  954POPC   C3B13269  13.554   3.594   7.112  0.1671  0.3555 -0.0541
  954POPC   C4B13270  13.578   3.537   7.607 -0.0014 -0.1145  0.2173
  955POPC   NC313271  13.631  15.576   5.583 -0.0580  0.0028 -0.0093
  955POPC   PO413272  13.693  15.044   5.689  0.0977 -0.1895 -0.0905
  955POPC   GL113273  13.505  15.271   6.143 -0.1382 -0.2547  0.3901
  955POPC   GL213274  13.622  15.420   6.324 -0.3024  0.0253 -0.0744
  955POPC   C1A13275  13.243  15.115   6.402 -0.1387  0.2185  0.3784
  955POPC   D2A13276  12.950  15.097   6.551 -0.1020  0.0798  0.0531
  955POPC   C3A13277  12.991  15.054   6.995  0.0442 -0.0433  0.0181
  955POPC   C4A13278  13.292  14.984   7.359 -0.0944  0.1266  0.2981
  955POPC   C1B13279  13.455  15.853   6.417  0.1071 -0.0892  0.1885
  955POPC   C2B13280  13.393  16.061   6.744 -0.2330 -0.0251  0.1069
  955POPC   C3B13281  13.318  16.103   7.214  0.1060 -0.1855 -0.0374
  955POPC   C4B13282  13.315  15.783   7.521 -0.0280 -0.2333 -0.3982
  956POPC   NC313283   5.197  12.411   4.697  0.0374 -0.1498 -0.3110
  956POPC   PO413284   5.326  12.196   5.171 -0.0248  0.3171 -0.5821
  956POPC   GL113285   5.351  12.292   5.531 -0.1079 -0.0198  0.0739
  956POPC   GL213286   5.001  12.403   5.640  0.0379 -0.2689 -0.1868
  956POPC   C1A13287   5.257  12.140   5.970 -0.1430  0.1042  0.0261
  956POPC   D2A13288   5.198  12.491   6.227  0.2063  0.2676 -0.0677
  956POPC   C3A13289   5.095  12.256   6.692 -0.0148 -0.1117  0.0966
  956POPC   C4A13290   5.396  11.917   6.938  0.2084 -0.0303 -0.2058
  956POPC   C1B13291   4.808  12.696   6.001  0.2976 -0.2174 -0.0700
  956POPC   C2B13292   4.732  12.760   6.415 -0.2117  0.1524  0.0377
  956POPC   C3B13293   4.619  12.545   6.885  0.2787  0.2236  0.5570
  956POPC   C4B13294   4.363  12.372   7.190 -0.0482 -0.0404 -0.2475
  957POPC   NC313295   3.323   9.024   5.324  0.1170 -0.0376  0.0746
  957POPC   PO413296   2.832   8.864   5.237 -0.0445  0.1027 -0.1753
  957POPC   GL113297   2.774   8.791   5.753  0.1149 -0.2391 -0.0127
  957POPC   GL213298   3.128   8.972   5.847  0.3558  0.1502  0.0017
  957POPC   C1A13299   2.559   8.693   6.114 -0.0356 -0.0782 -0.1772
  957POPC   D2A13300   2.420   8.851   6.360  0.0606 -0.1518  0.0826
  957POPC   C3A13301   2.498   8.905   6.710  0.0261  0.2079  0.0393
  957POPC   C4A13302   2.618   8.868   7.104 -0.1122  0.1068  0.1328
  957POPC   C1B13303   2.977   9.333   5.986  0.1571  0.0215  0.0976
  957POPC   C2B13304   3.034   9.600   6.297  0.0925 -0.0288 -0.0587
  957POPC   C3B13305   3.272   9.924   6.449 -0.1012  0.0263  0.0507
  957POPC   C4B13306   3.282  10.208   6.653  0.1193  0.1068  0.0083
  958POPC   NC313307   8.289  12.659   4.876 -0.0627  0.2426 -0.0760
  958POPC   PO413308   7.866  12.797   4.884 -0.2622 -0.1688  0.3524
  958POPC   GL113309   7.921  12.820   5.261 -0.0195  0.1168  0.1512
  958POPC   GL213310   8.118  12.651   5.422 -0.1216 -0.2140  0.0536
  958POPC   C1A13311   8.106  13.053   5.619 -0.0959  0.1045 -0.1799
  958POPC   D2A13312   7.923  13.232   6.046  0.0897 -0.0188 -0.3661
  958POPC   C3A13313   7.842  13.512   6.351  0.2738 -0.1235  0.0886
  958POPC   C4A13314   7.641  13.628   6.675  0.0444  0.2572  0.1227
  958POPC   C1B13315   7.980  12.445   5.732  0.1337 -0.1689  0.0213
  958POPC   C2B13316   7.829  12.544   6.143 -0.3351 -0.1557 -0.2797
  958POPC   C3B13317   7.911  12.460   6.506 -0.1836  0.1482  0.2688
  958POPC   C4B13318   7.882  12.333   6.946  0.1911  0.0399  0.0688
  959POPC   NC313319   1.629   5.511   5.285 -0.3747 -0.2085  0.0306
  959POPC   PO413320   1.628   5.967   5.344 -0.1724  0.0304  0.1441
  959POPC   GL113321   1.306   6.053   5.599  0.1413 -0.0529 -0.1588
  959POPC   GL213322   1.222   5.810   5.742  0.0191 -0.1150  0.1415
  959POPC   C1A13323   1.201   6.431   5.676 -0.2212 -0.1948  0.1790
  959POPC   D2A13324   1.329   6.781   5.942 -0.1564 -0.0089  0.0722
  959POPC   C3A13325   1.143   6.895   6.331  0.2448 -0.0935  0.1562
  959POPC   C4A13326   1.064   7.140   6.532  0.0908  0.1240 -0.1483
  959POPC   C1B13327   1.388   5.880   6.174  0.1492 -0.0151  0.2187
  959POPC   C2B13328   1.237   5.693   6.459 -0.2397 -0.2567 -0.0626
  959POPC   C3B13329   1.373   5.641   6.961  0.2921  0.0921  0.0089
  959POPC   C4B13330   1.370   5.376   7.259 -0.0215 -0.0720  0.2515
  960POPC   NC313331  14.956  18.570   6.038 -0.1932 -0.1480  0.3610
  960POPC   PO413332  14.752  19.013   6.048  0.2287 -0.2540  0.1884
  960POPC   GL113333  14.687  18.985   6.398  0.1642  0.0476  0.1158
  960POPC   GL213334  14.809  18.721   6.516  0.2006  0.0232 -0.1706
  960POPC   C1A13335  14.364  18.864   6.784  0.2273  0.1990  0.1475
  960POPC   D2A13336  14.196  18.658   7.156 -0.0724  0.3713 -0.2382
  960POPC   C3A13337  14.170  18.629   7.635 -0.0882 -0.0115 -0.0883
  960POPC   C4A13338  14.046  18.846   8.067 -0.0542 -0.4167  0.0807
  960POPC   C1B13339  14.729  18.617   6.895 -0.3860 -0.1999 -0.1065
  960POPC   C2B13340  14.703  18.411   7.281 -0.2681 -0.0796  0.3580
  960POPC   C3B13341  14.778  18.097   7.546 -0.2257  0.3430 -0.0872
  960POPC   C4B13342  14.580  17.746   7.560 -0.5255 -0.0276  0.3812
  961POPC   NC313343   9.507  10.706   5.235  0.1748  0.1038 -0.0752
  961POPC   PO413344   9.597  11.109   5.273 -0.2704  0.3751  0.0594
  961POPC   GL113345   9.621  11.455   5.589  0.1428  0.0837 -0.2017
  961POPC   GL213346   9.296  11.608   5.716  0.0816  0.0470 -0.0619
  961POPC   C1A13347   9.821  11.469   6.049 -0.1674  0.1802 -0.4752
  961POPC   D2A13348   9.885  11.488   6.381 -0.2932 -0.0214 -0.2626
  961POPC   C3A13349  10.251  11.368   6.603 -0.0135 -0.1236 -0.1909
  961POPC   C4A13350  10.677  11.305   6.728 -0.1872  0.0736 -0.1631
  961POPC   C1B13351   9.142  11.503   6.121  0.2114  0.1188  0.0878
  961POPC   C2B13352   9.360  11.276   6.382  0.0375 -0.2763  0.0209
  961POPC   C3B13353   9.548  11.280   6.705  0.0122  0.1086 -0.2876
  961POPC   C4B13354   9.794  11.460   6.919  0.0443 -0.2501  0.1383
  962POPC   NC313355   5.751   8.190   5.186 -0.2426 -0.1835  0.1152
  962POPC   PO413356   5.890   8.481   5.356 -0.0272  0.2602 -0.2116
  962POPC   GL113357   5.943   8.891   5.480 -0.1520  0.3595 -0.1155
  962POPC   GL213358   6.119   8.785   5.723 -0.2408 -0.0687 -0.1144
  962POPC   C1A13359   5.769   9.193   5.756 -0.3527  0.0597 -0.1129
  962POPC   D2A13360   5.875   9.364   6.172 -0.1321  0.0036  0.1310
  962POPC   C3A13361   5.975   9.284   6.541  0.0031 -0.0848 -0.1778
  962POPC   C4A13362   6.019   8.974   6.859  0.4166 -0.2982 -0.1541
  962POPC   C1B13363   6.142   8.553   6.141 -0.0973  0.1831  0.1183
  962POPC   C2B13364   6.145   8.549   6.550 -0.1176 -0.1268 -0.3987
  962POPC   C3B13365   6.378   8.567   7.013 -0.0071  0.0218  0.1690
  962POPC   C4B13366   6.608   8.565   7.287 -0.1526 -0.2239 -0.1370
  963POPC   NC313367  17.303   8.299   5.324  0.0312  0.1022 -0.2480
  963POPC   PO413368  16.901   8.157   5.540  0.0149 -0.0484 -0.2507
  963POPC   GL113369  17.046   8.244   5.824  0.4642 -0.0152 -0.2630
  963POPC   GL213370  16.850   8.403   6.014  0.0702 -0.4380  0.1600
  963POPC   C1A13371  17.297   8.258   6.175  0.2137 -0.2553 -0.1535
  963POPC   D2A13372  17.334   8.344   6.634  0.0925  0.7301  0.0930
  963POPC   C3A13373  17.324   8.750   6.841  0.0546  0.0258 -0.0178
  963POPC   C4A13374  17.319   8.745   7.293  0.0559  0.0454  0.0085
  963POPC   C1B13375  16.866   8.852   5.954  0.1934 -0.0317  0.0194
  963POPC   C2B13376  17.035   9.155   6.266  0.2745 -0.0667 -0.0807
  963POPC   C3B13377  17.187   9.318   6.751  0.2186 -0.1712 -0.1789
  963POPC   C4B13378  17.319   9.688   6.987  0.1430  0.0509  0.1133
  964POPC   NC313379  15.243   4.232   5.741 -0.1490 -0.2278 -0.2392
  964POPC   PO413380  15.231   4.704   5.779  0.2432  0.1601 -0.1893
  964POPC   GL113381  15.234   4.779   6.229  0.3603  0.2112  0.0076
  964POPC   GL213382  15.355   5.097   6.282  0.0970  0.1654  0.1275
  964POPC   C1A13383  15.211   4.838   6.689 -0.0408 -0.1023  0.2409
  964POPC   D2A13384  15.253   4.949   7.123 -0.0460  0.0629 -0.1279
  964POPC   C3A13385  15.359   5.388   7.221  0.2399 -0.1104 -0.0947
  964POPC   C4A13386  15.500   5.797   7.168  0.2394  0.2656 -0.2040
  964POPC   C1B13387  14.912   5.188   6.508 -0.2797 -0.1832  0.2784
  964POPC   C2B13388  14.558   5.208   6.622 -0.2114 -0.0020 -0.3354
  964POPC   C3B13389  14.438   5.320   6.923 -0.1437  0.1106 -0.0637
  964POPC   C4B13390  14.156   5.172   7.192 -0.1294  0.2862  0.0676
  965POPC   NC313391   6.792   5.646   5.477 -0.2881 -0.0800  0.3265
  965POPC   PO413392   6.538   5.939   5.379 -0.0102 -0.1582 -0.2631
  965POPC   GL113393   6.591   5.927   5.813  0.1205  0.0089 -0.2088
  965POPC   GL213394   6.263   5.735   5.832 -0.1926  0.0334  0.0234
  965POPC   C1A13395   6.622   5.862   6.307 -0.1520 -0.0223  0.1761
  965POPC   D2A13396   6.441   5.951   6.649  0.0150  0.1431  0.1198
  965POPC   C3A13397   6.555   6.080   7.013  0.0807  0.2242  0.2504
  965POPC   C4A13398   6.659   6.441   7.281  0.1070 -0.1118  0.0943
  965POPC   C1B13399   5.963   5.554   6.084  0.0418 -0.0322  0.1849
  965POPC   C2B13400   5.949   5.104   6.345 -0.1493  0.0527  0.1120
  965POPC   C3B13401   5.780   4.951   6.707 -0.0027  0.0520 -0.1472
  965POPC   C4B13402   5.731   5.006   7.130  0.0550 -0.0275 -0.0630
  966POPC   NC313403   3.089   5.734   5.161 -0.1340  0.0293 -0.0073
  966POPC   PO413404   3.410   5.633   5.469 -0.1590  0.0335  0.1390
  966POPC   GL113405   3.642   5.451   5.873  0.1732 -0.0969  0.0129
  966POPC   GL213406   3.723   5.560   6.154 -0.3621  0.1839 -0.1426
  966POPC   C1A13407   3.949   5.146   6.030 -0.5192  0.2563  0.0071
  966POPC   D2A13408   4.023   5.153   6.373 -0.0498 -0.1933 -0.0266
  966POPC   C3A13409   4.339   5.378   6.408  0.0059  0.0319 -0.1090
  966POPC   C4A13410   4.662   5.182   6.551  0.0380 -0.0492 -0.0867
  966POPC   C1B13411   3.882   5.693   6.548  0.0160  0.3287  0.0521
  966POPC   C2B13412   4.167   5.892   6.862 -0.0048  0.2509 -0.0889
  966POPC   C3B13413   4.227   6.205   7.072 -0.1746 -0.1851  0.3536
  966POPC   C4B13414   4.431   6.457   7.353  0.0749  0.0514  0.1187
  967POPC   NC313415   4.069  12.985   5.344 -0.0339  0.0296 -0.3340
  967POPC   PO413416   4.564  13.143   5.367  0.0403  0.0779 -0.1892
  967POPC   GL113417   4.886  13.118   5.770 -0.0646 -0.0813  0.1656
  967POPC   GL213418   5.186  13.101   5.778 -0.1627 -0.2153  0.0872
  967POPC   C1A13419   4.921  13.167   6.213 -0.1034  0.0018  0.0322
  967POPC   D2A13420   4.916  13.271   6.571 -0.0408  0.1945 -0.0163
  967POPC   C3A13421   5.301  13.315   6.841 -0.0852 -0.0275 -0.0552
  967POPC   C4A13422   5.662  12.977   6.853  0.0271 -0.1275 -0.3219
  967POPC   C1B13423   5.385  12.903   6.073  0.1537 -0.2848  0.0745
  967POPC   C2B13424   5.248  12.889   6.482  0.2916 -0.0222 -0.2037
  967POPC   C3B13425   5.087  12.774   6.754  0.1542  0.1431 -0.0692
  967POPC   C4B13426   5.208  12.979   7.161 -0.0800  0.1211 -0.0304
  968POPC   NC313427   5.793  13.310   4.941  0.3482 -0.1137 -0.0506
  968POPC   PO413428   6.027  13.667   4.889  0.1672 -0.0085 -0.0146
  968POPC   GL113429   6.204  13.957   5.298  0.1103 -0.2810 -0.2384
  968POPC   GL213430   6.473  14.036   5.301  0.0101 -0.0143  0.1950
  968POPC   C1A13431   6.261  14.081   5.711  0.0144 -0.1992  0.3005
  968POPC   D2A13432   6.192  14.331   6.085  0.2009 -0.2939  0.0499
  968POPC   C3A13433   6.348  14.352   6.485 -0.0339 -0.1687  0.1137
  968POPC   C4A13434   6.492  14.501   6.927  0.1544 -0.1264 -0.0213
  968POPC   C1B13435   6.494  13.662   5.627  0.1161  0.0379 -0.1450
  968POPC   C2B13436   6.559  13.726   5.958  0.1888  0.1584  0.1431
  968POPC   C3B13437   6.727  13.436   6.291  0.0244  0.0608 -0.3385
  968POPC   C4B13438   6.945  13.307   6.553 -0.3471  0.0553 -0.1397
  969POPC   NC313439  18.297   9.919   5.196  0.1261 -0.1779 -0.0504
  969POPC   PO413440  18.113   9.671   5.503 -0.1192  0.1069 -0.0035
  969POPC   GL113441  18.290   9.826   5.816 -0.3525  0.0457 -0.1554
  969POPC   GL213442  18.404   9.591   6.067  0.3645  0.2709  0.1922
  969POPC   C1A13443  18.196  10.102   6.066  0.1817  0.0582  0.1782
  969POPC   D2A13444  18.218  10.175   6.509 -0.0882  0.0560 -0.1183
  969POPC   C3A13445  17.915  10.129   6.738 -0.1643 -0.3257 -0.0744
  969POPC   C4A13446  17.631  10.076   7.129 -0.0999 -0.0673 -0.0482
  969POPC   C1B13447  18.416   9.710   6.478  0.2929  0.1566  0.1091
  969POPC   C2B13448  18.448   9.566   6.951 -0.2249  0.1900 -0.0939
  969POPC   C3B13449  18.592   9.363   7.359  0.2182 -0.0200  0.0204
  969POPC   C4B13450  18.693   9.095   7.603 -0.0775 -0.0280 -0.0193
  970POPC   NC313451   2.898  17.553   5.297 -0.2697 -0.3842 -0.0846
  970POPC   PO413452   2.613  17.925   5.396  0.1136  0.0584 -0.1116
  970POPC   GL113453   2.636  17.645   5.737  0.1513  0.1006 -0.3776
  970POPC   GL213454   2.378  17.593   5.988  0.0012 -0.1265 -0.2813
  970POPC   C1A13455   2.868  17.460   5.977  0.0923 -0.1643  0.0581
  970POPC   D2A13456   3.021  17.399   6.412  0.0354 -0.2439 -0.1768
  970POPC   C3A13457   2.710  17.316   6.826 -0.2290 -0.0123  0.3734
  970POPC   C4A13458   2.506  17.182   7.172 -0.1007  0.1387  0.1073
  970POPC   C1B13459   2.548  17.778   6.383  0.0849  0.0011 -0.0319
  970POPC   C2B13460   2.646  17.766   6.896 -0.2378 -0.2836 -0.0912
  970POPC   C3B13461   2.742  17.787   7.263  0.3168 -0.4243 -0.1142
  970POPC   C4B13462   3.005  17.807   7.611  0.1452  0.0800 -0.3285
  971POPC   NC313463   9.776   8.408   5.376  0.0492  0.0551  0.1594
  971POPC   PO413464   9.308   8.469   5.407 -0.1986  0.0054 -0.2741
  971POPC   GL113465   9.173   8.507   5.871  0.1593 -0.0324 -0.0974
  971POPC   GL213466   8.875   8.521   5.937  0.2725 -0.0160 -0.1649
  971POPC   C1A13467   9.367   8.644   6.243 -0.0711  0.3007  0.2926
  971POPC   D2A13468   9.382   8.570   6.586 -0.1119  0.1341  0.1386
  971POPC   C3A13469   9.643   8.740   6.869  0.1567 -0.0334 -0.3349
  971POPC   C4A13470  10.133   8.904   6.960 -0.0582 -0.1333 -0.1188
  971POPC   C1B13471   8.758   8.885   6.259 -0.2970  0.2891 -0.1313
  971POPC   C2B13472   8.507   8.826   6.685  0.0278 -0.2904  0.0580
  971POPC   C3B13473   8.231   8.878   7.055  0.2350  0.0467  0.0823
  971POPC   C4B13474   8.051   8.731   7.427  0.1626 -0.1506 -0.1210
  972POPC   NC313475   3.774  17.267   5.304 -0.0542 -0.2871  0.3531
  972POPC   PO413476   3.516  17.527   5.262 -0.3765 -0.0591 -0.0452
  972POPC   GL113477   3.325  17.489   5.687 -0.2811 -0.0802 -0.1919
  972POPC   GL213478   3.160  17.859   5.764  0.0274 -0.0598 -0.1918
  972POPC   C1A13479   3.420  17.572   6.107  0.2159  0.3753 -0.2199
  972POPC   D2A13480   3.454  17.625   6.578 -0.0685  0.4971 -0.0882
  972POPC   C3A13481   3.138  17.595   6.944 -0.1864 -0.2364 -0.0655
  972POPC   C4A13482   2.941  17.374   7.291 -0.0127  0.1298 -0.0764
  972POPC   C1B13483   3.000  17.889   6.133  0.1201  0.2306 -0.1580
  972POPC   C2B13484   3.033  17.916   6.563 -0.2353  0.1003  0.0836
  972POPC   C3B13485   3.042  18.058   6.870  0.0417  0.1681  0.1539
  972POPC   C4B13486   3.161  18.205   7.246  0.1385  0.0152 -0.0291
  973POPC   NC313487   0.452  14.195   6.219 -0.4091 -0.1225  0.0302
  973POPC   PO413488   0.756  14.213   5.926  0.3213  0.1209  0.0626
  973POPC   GL113489   1.016  14.089   6.292  0.0768 -0.1251 -0.1572
  973POPC   GL213490   0.844  14.346   6.550 -0.0419  0.0457  0.1416
  973POPC   C1A13491   1.204  13.807   6.552  0.0067 -0.2470  0.0481
  973POPC   D2A13492   1.578  13.941   6.747  0.2799 -0.1826  0.0322
  973POPC   C3A13493   1.887  14.090   7.142 -0.0682 -0.0579  0.0978
  973POPC   C4A13494   2.283  14.225   7.222 -0.1581 -0.2215 -0.0181
  973POPC   C1B13495   0.667  14.172   6.953 -0.0152  0.0097 -0.1670
  973POPC   C2B13496   0.732  14.153   7.198  0.2406 -0.0396 -0.2731
  973POPC   C3B13497   0.574  14.285   7.523  0.2606 -0.2130  0.0004
  973POPC   C4B13498   0.635  14.465   8.026  0.2544 -0.0052 -0.0442
  974POPC   NC313499  17.888  13.311   6.074  0.2360 -0.0166 -0.0312
  974POPC   PO413500  17.778  12.983   6.136 -0.1154 -0.3092  0.1332
  974POPC   GL113501  18.039  12.990   6.627 -0.4025  0.3565  0.5029
  974POPC   GL213502  18.310  13.061   6.603 -0.1419 -0.1294 -0.5196
  974POPC   C1A13503  17.949  12.903   7.030  0.2503  0.1183 -0.1623
  974POPC   D2A13504  17.676  12.611   7.144  0.0784 -0.3101 -0.0682
  974POPC   C3A13505  17.879  12.323   7.460  0.0180  0.0345  0.0317
  974POPC   C4A13506  17.988  12.518   7.805 -0.0947 -0.1645 -0.2351
  974POPC   C1B13507  18.550  12.693   6.764  0.1199  0.1839  0.2051
  974POPC   C2B13508  18.644  12.525   7.133 -0.1801 -0.0419 -0.1663
  974POPC   C3B13509  18.603  12.200   7.117  0.2558  0.3587 -0.0144
  974POPC   C4B13510  18.568  11.874   7.419  0.0545 -0.3031  0.0179
  975POPC   NC313511  14.742  11.068   5.010  0.0624  0.2614 -0.2064
  975POPC   PO413512  14.502  11.054   5.418  0.2040 -0.1239  0.5482
  975POPC   GL113513  14.539  11.108   5.909  0.2441 -0.2736  0.4076
  975POPC   GL213514  14.786  11.304   5.797 -0.6074 -0.1345 -0.2482
  975POPC   C1A13515  14.325  11.142   6.297 -0.0485 -0.1069  0.1346
  975POPC   D2A13516  14.369  11.247   6.677  0.2803 -0.0237  0.0268
  975POPC   C3A13517  14.521  10.983   6.976  0.3527  0.1137 -0.1174
  975POPC   C4A13518  14.525  10.712   7.318 -0.2492 -0.1114 -0.1002
  975POPC   C1B13519  14.640  11.466   6.227 -0.1022 -0.2095  0.1182
  975POPC   C2B13520  14.359  11.781   6.586  0.0157  0.0429  0.4278
  975POPC   C3B13521  14.520  11.710   7.005 -0.0597 -0.0271 -0.0057
  975POPC   C4B13522  14.704  11.602   7.435 -0.0061  0.1434  0.0843
  976POPC   NC313523   7.902  16.574   5.199 -0.0396  0.1976  0.0821
  976POPC   PO413524   8.263  16.685   5.342  0.0113  0.0730  0.0089
  976POPC   GL113525   8.155  16.314   5.627  0.0256 -0.1594  0.0471
  976POPC   GL213526   8.352  16.039   5.743 -0.0619 -0.2985 -0.0265
  976POPC   C1A13527   7.768  16.130   5.777  0.0442  0.6770 -0.1793
  976POPC   D2A13528   7.316  16.274   5.871 -0.0218  0.0021  0.1389
  976POPC   C3A13529   7.069  16.481   6.145 -0.3078  0.1526 -0.1524
  976POPC   C4A13530   6.808  16.576   6.628 -0.0396  0.1477  0.1889
  976POPC   C1B13531   8.212  15.902   6.154  0.0269  0.0722  0.3540
  976POPC   C2B13532   8.069  15.645   6.586 -0.0256  0.0085  0.1624
  976POPC   C3B13533   8.154  15.360   6.953 -0.0739  0.0450 -0.1294
  976POPC   C4B13534   8.177  15.211   7.352 -0.0354 -0.0442  0.1326
  977POPC   NC313535  17.830  16.617   5.915  0.2218  0.3191 -0.0471
  977POPC   PO413536  17.461  16.741   5.920 -0.1686 -0.4355 -0.1040
  977POPC   GL113537  17.469  16.695   6.311 -0.0919 -0.1287  0.1041
  977POPC   GL213538  17.673  16.983   6.414 -0.1147  0.0908 -0.4160
  977POPC   C1A13539  17.393  16.954   6.785 -0.0457  0.0405 -0.0277
  977POPC   D2A13540  17.374  16.958   7.187  0.0291  0.2537 -0.3518
  977POPC   C3A13541  17.180  17.201   7.312  0.0765 -0.2264  0.1108
  977POPC   C4A13542  17.272  17.598   7.383  0.1819 -0.1415  0.0348
  977POPC   C1B13543  17.888  17.077   6.575 -0.0856 -0.0702  0.0342
  977POPC   C2B13544  17.877  16.972   7.098 -0.0242 -0.0553 -0.1416
  977POPC   C3B13545  17.727  16.865   7.496  0.0797  0.1910 -0.0327
  977POPC   C4B13546  17.788  16.967   7.915  0.4316 -0.2051 -0.2319
  978POPC   NC313547   0.998   0.304   5.623  0.0087  0.3554 -0.1287
  978POPC   PO413548   1.320   0.637   5.330 -0.5950  0.1453  0.0102
  978POPC   GL113549   1.492   0.450   5.731  0.0394 -0.2083  0.0959
  978POPC   GL213550   1.310   0.619   5.887 -0.3145 -0.0420 -0.2497
  978POPC   C1A13551   1.701   0.430   6.133 -0.0418  0.1311  0.4781
  978POPC   D2A13552   1.656   0.289   6.484 -0.1857  0.2221 -0.2890
  978POPC   C3A13553   1.734   0.452   6.872 -0.0387 -0.0118  0.0006
  978POPC   C4A13554   1.949   0.707   7.209 -0.0794 -0.0031  0.0589
  978POPC   C1B13555   1.277   0.629   6.272  0.0730  0.2146 -0.0286
  978POPC   C2B13556   1.315   0.748   6.717 -0.2983  0.1929 -0.1337
  978POPC   C3B13557   1.421   1.040   6.967  0.0529 -0.0208  0.0361
  978POPC   C4B13558   1.594   1.182   7.348  0.2392  0.4127 -0.0136
  979POPC   NC313559  16.166   9.220   5.267 -0.0541  0.0353 -0.2287
  979POPC   PO413560  15.861   8.971   5.459 -0.0673 -0.3243  0.1133
  979POPC   GL113561  15.821   8.899   5.943  0.0880  0.0398  0.0185
  979POPC   GL213562  15.538   8.865   6.132 -0.3352 -0.3203  0.0170
  979POPC   C1A13563  15.941   9.074   6.368 -0.0412 -0.2100  0.3442
  979POPC   D2A13564  16.083   9.251   6.765  0.2141 -0.1723  0.4238
  979POPC   C3A13565  16.041   9.307   7.206 -0.5407 -0.0199  0.0802
  979POPC   C4A13566  16.278   9.726   7.435 -0.0299  0.0460 -0.2389
  979POPC   C1B13567  15.579   8.729   6.544 -0.0774  0.5606 -0.1412
  979POPC   C2B13568  15.927   8.825   6.851  0.1194 -0.1398 -0.0805
  979POPC   C3B13569  16.201   8.765   7.144  0.0303 -0.1009  0.3585
  979POPC   C4B13570  16.545   8.960   7.456  0.0860  0.2445 -0.2645
  980POPC   NC313571  13.386   1.786   5.202  0.2243  0.1674 -0.0499
  980POPC   PO413572  13.744   1.865   5.460 -0.0220 -0.0761 -0.1830
  980POPC   GL113573  13.622   1.854   5.931 -0.0616  0.1355 -0.2777
  980POPC   GL213574  13.369   1.674   6.072 -0.0087 -0.2028  0.0552
  980POPC   C1A13575  13.771   2.007   6.316  0.0859 -0.3472 -0.1094
  980POPC   D2A13576  13.765   1.902   6.750  0.2316 -0.3826 -0.0990
  980POPC   C3A13577  13.463   1.853   6.971 -0.0832  0.3935 -0.2067
  980POPC   C4A13578  13.384   2.101   7.403  0.0802 -0.2594 -0.0506
  980POPC   C1B13579  13.316   1.710   6.507  0.1427 -0.0189  0.0031
  980POPC   C2B13580  12.990   1.921   6.802 -0.2443 -0.0630  0.0155
  980POPC   C3B13581  12.984   1.812   7.218  0.2440 -0.1255  0.0712
  980POPC   C4B13582  12.872   2.151   7.581  0.2037 -0.2740 -0.1071
  981POPC   NC313583   5.357  11.069   5.183 -0.0086  0.0246 -0.1991
  981POPC   PO413584   5.405  11.520   5.206  0.0921 -0.2314 -0.0434
  981POPC   GL113585   5.209  11.435   5.493 -0.0069 -0.1527 -0.1323
  981POPC   GL213586   5.309  11.769   5.652  0.3244  0.4199 -0.3227
  981POPC   C1A13587   5.099  11.150   5.840 -0.1668  0.0790  0.0989
  981POPC   D2A13588   5.177  11.097   6.281  0.2215  0.2377 -0.0989
  981POPC   C3A13589   5.105  10.807   6.494  0.3670 -0.4095 -0.0764
  981POPC   C4A13590   5.115  10.600   6.896  0.0276  0.1315  0.1572
  981POPC   C1B13591   5.181  11.674   6.081 -0.0740 -0.4002 -0.3474
  981POPC   C2B13592   5.211  11.560   6.659 -0.1994  0.4460 -0.0946
  981POPC   C3B13593   5.137  11.560   7.104 -0.0933 -0.4218 -0.2465
  981POPC   C4B13594   5.129  11.355   7.581  0.0223  0.3096 -0.0717
  982YOPC   NC313595   7.994   7.614   4.848  0.0082  0.1417  0.0599
  982YOPC   PO413596   7.845   8.087   5.017 -0.1123 -0.1024 -0.1087
  982YOPC   GL113597   8.008   8.168   5.567  0.0954 -0.2576 -0.1721
  982YOPC   GL213598   8.325   8.157   5.700 -0.0196  0.2286 -0.1111
  982YOPC   C1A13599   7.892   8.326   5.925 -0.0287  0.3363 -0.0457
  982YOPC   D2A13600   7.601   8.230   6.273  0.1347 -0.1117 -0.1228
  982YOPC   C3A13601   7.511   8.353   6.812 -0.0024 -0.4496  0.0038
  982YOPC   C4A13602   7.357   8.111   7.140  0.1778 -0.0981  0.1019
  982YOPC   C1B13603   8.345   8.215   6.091  0.0375  0.3851 -0.0118
  982YOPC   C2B13604   8.503   8.466   6.338 -0.1913 -0.3651 -0.0405
  982YOPC   D3B13605   8.930   8.415   6.416 -0.1925 -0.0439 -0.2380
  982YOPC   C4B13606   9.354   8.171   6.337 -0.3064 -0.3154  0.0478
  983YOPC   NC313607   7.490   6.203   5.351  0.2120 -0.2052  0.2182
  983YOPC   PO413608   7.289   5.752   5.510  0.0252  0.0022  0.0361
  983YOPC   GL113609   7.095   6.043   5.759 -0.0037 -0.0307 -0.1078
  983YOPC   GL213610   7.046   5.702   5.951 -0.0152  0.1887 -0.1041
  983YOPC   C1A13611   6.950   6.235   6.132 -0.0307 -0.0397  0.3315
  983YOPC   D2A13612   6.901   6.227   6.592  0.1409 -0.0974  0.0978
  983YOPC   C3A13613   7.030   6.260   6.986  0.0074  0.0634 -0.1096
  983YOPC   C4A13614   7.049   6.169   7.386 -0.1344 -0.0585  0.1156
  983YOPC   C1B13615   6.996   5.611   6.461 -0.1082  0.1692 -0.4133
  983YOPC   C2B13616   6.911   5.788   6.785  0.0126  0.0033 -0.1071
  983YOPC   D3B13617   7.159   5.693   7.174 -0.1661  0.3229 -0.2744
  983YOPC   C4B13618   7.343   5.868   7.605  0.2115 -0.1294  0.0978
  984YOPC   NC313619  17.921   0.695   5.668  0.3404 -0.2101 -0.2344
  984YOPC   PO413620  17.732   0.385   5.932 -0.0807 -0.1229 -0.2421
  984YOPC   GL113621  17.383   0.306   6.272 -0.0306  0.0326 -0.1484
  984YOPC   GL213622  17.487  -0.032   6.268 -0.3531  0.1947 -0.1324
  984YOPC   C1A13623  17.265   0.337   6.642  0.3205 -0.0221 -0.0620
  984YOPC   D2A13624  16.847   0.314   6.745 -0.0887 -0.1968 -0.1650
  984YOPC   C3A13625  16.843   0.465   7.129  0.1043 -0.3920 -0.0388
  984YOPC   C4A13626  17.072   0.316   7.481  0.0104 -0.1502 -0.0107
  984YOPC   C1B13627  17.784  -0.142   6.653 -0.0088 -0.0800  0.1032
  984YOPC   C2B13628  17.976   0.037   7.008  0.2851 -0.3239 -0.0638
  984YOPC   D3B13629  17.925   0.516   7.163  0.1372  0.0107 -0.0907
  984YOPC   C4B13630  17.774   0.869   7.361  0.1124  0.0738  0.0443
  985YOPC   NC313631   4.337   6.755   5.540 -0.1733  0.0383 -0.0094
  985YOPC   PO413632   4.620   7.114   5.515 -0.0510  0.2738  0.1870
  985YOPC   GL113633   4.639   6.881   5.923  0.0335  0.0898  0.3502
  985YOPC   GL213634   4.368   6.950   5.970  0.2142  0.0657 -0.0585
  985YOPC   C1A13635   4.965   6.844   6.282  0.3059 -0.1844  0.1743
  985YOPC   D2A13636   5.112   7.038   6.556 -0.0461  0.0811 -0.3501
  985YOPC   C3A13637   5.424   7.400   6.703 -0.0024  0.0363 -0.1756
  985YOPC   C4A13638   5.647   7.379   7.042  0.0295  0.2941  0.0633
  985YOPC   C1B13639   4.428   7.087   6.365 -0.1517 -0.1828  0.1895
  985YOPC   C2B13640   4.630   7.033   6.680  0.1373  0.1121 -0.1239
  985YOPC   D3B13641   4.419   7.299   6.900 -0.1574 -0.0755 -0.0963
  985YOPC   C4B13642   4.302   7.690   6.962  0.0340  0.0554  0.0895
  986YOPC   NC313643  16.739  14.591   5.849 -0.2459  0.0230 -0.3034
  986YOPC   PO413644  16.975  14.242   5.903  0.1768 -0.0087  0.3037
  986YOPC   GL113645  16.920  14.046   6.220  0.0536 -0.1735  0.4373
  986YOPC   GL213646  17.086  13.876   6.458 -0.3943 -0.1275 -0.2258
  986YOPC   C1A13647  16.653  13.921   6.680  0.0527 -0.0946 -0.3640
  986YOPC   D2A13648  16.238  14.032   7.003 -0.0568 -0.1292 -0.0987
  986YOPC   C3A13649  16.057  13.843   7.424  0.2755 -0.0911 -0.1697
  986YOPC   C4A13650  16.279  13.552   7.665  0.0600 -0.1233 -0.0136
  986YOPC   C1B13651  17.449  14.095   6.676  0.2312 -0.1486  0.0573
  986YOPC   C2B13652  17.607  14.215   7.101  0.1886  0.1295  0.3314
  986YOPC   D3B13653  17.484  13.932   7.383 -0.3971  0.2086 -0.1401
  986YOPC   C4B13654  17.255  13.739   7.698  0.1354  0.2200  0.1548
  987YOPC   NC313655  11.425   0.921   5.172  0.1130 -0.2090 -0.1774
  987YOPC   PO413656  11.394   1.173   5.556  0.4999 -0.2922 -0.2585
  987YOPC   GL113657  11.506   1.107   5.953 -0.0852 -0.3119 -0.4683
  987YOPC   GL213658  11.667   1.316   6.160 -0.0608 -0.1267  0.2735
  987YOPC   C1A13659  11.253   0.817   6.119  0.4297  0.0568 -0.0608
  987YOPC   D2A13660  10.905   0.614   6.333 -0.1718 -0.2545  0.0770
  987YOPC   C3A13661  10.929   0.724   6.786 -0.3388 -0.0998  0.0116
  987YOPC   C4A13662  11.105   0.821   7.250 -0.1036  0.2849  0.0162
  987YOPC   C1B13663  11.551   1.495   6.536 -0.1520  0.0740  0.2371
  987YOPC   C2B13664  11.301   1.700   6.789  0.0164  0.3923  0.2558
  987YOPC   D3B13665  11.092   1.912   7.108  0.4614 -0.0995  0.2375
  987YOPC   C4B13666  11.061   2.043   7.566 -0.1905 -0.0036 -0.0289
  988YOPC   NC313667  17.895  12.446   5.357  0.4315 -0.1755  0.0424
  988YOPC   PO413668  17.911  12.540   5.773  0.1249  0.0761 -0.1289
  988YOPC   GL113669  17.998  12.601   6.249 -0.1392 -0.3524  0.2130
  988YOPC   GL213670  18.121  12.484   6.525  0.1462 -0.2008  0.0595
  988YOPC   C1A13671  17.643  12.704   6.666  0.1541  0.3104  0.1275
  988YOPC   D2A13672  17.234  12.635   6.966 -0.2729  0.0990  0.1639
  988YOPC   C3A13673  17.254  12.365   7.374 -0.2394 -0.2282 -0.1583
  988YOPC   C4A13674  17.303  12.126   7.759 -0.3156  0.0740  0.1774
  988YOPC   C1B13675  18.145  12.394   6.989  0.0745 -0.3698 -0.1533
  988YOPC   C2B13676  18.128  12.008   7.137 -0.0625 -0.2385 -0.1952
  988YOPC   D3B13677  18.090  11.806   7.616 -0.0047  0.3225 -0.0970
  988YOPC   C4B13678  17.787  11.971   7.792  0.3658 -0.1839  0.3681
  989YOPC   NC313679   1.875   7.322   5.184 -0.1243  0.1427 -0.1589
  989YOPC   PO413680   1.967   7.635   5.446  0.1999  0.0947  0.0119
  989YOPC   GL113681   2.021   7.627   5.906  0.0131 -0.1537  0.3038
  989YOPC   GL213682   1.765   7.524   6.160  0.0587  0.1054  0.1356
  989YOPC   C1A13683   2.222   7.767   6.253 -0.0468  0.0245 -0.2092
  989YOPC   D2A13684   2.261   7.925   6.664  0.2898 -0.2305 -0.2303
  989YOPC   C3A13685   2.412   7.769   7.120  0.2042 -0.2541 -0.2498
  989YOPC   C4A13686   2.735   7.757   7.465  0.0935 -0.1224 -0.1343
  989YOPC   C1B13687   1.994   7.407   6.496  0.1804  0.0384 -0.3330
  989YOPC   C2B13688   2.104   7.416   6.913 -0.1810 -0.1111 -0.2222
  989YOPC   D3B13689   1.772   7.303   7.262 -0.1595 -0.2570  0.5256
  989YOPC   C4B13690   1.403   7.246   7.378 -0.1420 -0.0434 -0.1661
  990YOPC   NC313691   4.011   6.042   4.979  0.2467 -0.1295  0.0874
  990YOPC   PO413692   4.446   5.988   5.189 -0.0511 -0.0166  0.3057
  990YOPC   GL113693   4.293   6.062   5.584 -0.0291 -0.0255 -0.1817
  990YOPC   GL213694   4.263   6.271   5.686  0.1460 -0.0070 -0.0357
  990YOPC   C1A13695   4.491   5.996   6.050 -0.1509 -0.0016 -0.1642
  990YOPC   D2A13696   4.361   5.893   6.409  0.0472 -0.3743  0.0936
  990YOPC   C3A13697   4.693   5.619   6.726  0.1377 -0.2626 -0.0020
  990YOPC   C4A13698   4.875   5.352   7.102  0.0904 -0.1543 -0.0028
  990YOPC   C1B13699   4.415   6.492   6.141 -0.0934  0.0216 -0.2218
  990YOPC   C2B13700   4.434   6.615   6.566  0.3574 -0.3015 -0.0995
  990YOPC   D3B13701   4.280   6.726   6.915 -0.0872 -0.1055 -0.0654
  990YOPC   C4B13702   4.034   7.054   7.109 -0.3570  0.3002 -0.1436
  991YOPC   NC313703   7.468   9.378   4.737 -0.1844 -0.1414 -0.1570
  991YOPC   PO413704   7.538   9.764   4.974 -0.1607  0.0719  0.1518
  991YOPC   GL113705   7.444   9.906   5.381  0.1284  0.2780  0.1394
  991YOPC   GL213706   7.166  10.116   5.417  0.0645 -0.2088 -0.1256
  991YOPC   C1A13707   7.277   9.671   5.718 -0.2205 -0.4886 -0.2807
  991YOPC   D2A13708   7.016   9.760   6.163  0.0740 -0.2781 -0.0508
  991YOPC   C3A13709   7.145   9.514   6.452  0.1357 -0.3630 -0.3130
  991YOPC   C4A13710   7.146   9.566   6.926  0.0991 -0.0820 -0.2082
  991YOPC   C1B13711   7.101  10.315   5.796 -0.0217 -0.2723 -0.0580
  991YOPC   C2B13712   7.048  10.280   6.252  0.1867 -0.2522 -0.2191
  991YOPC   D3B13713   7.446  10.057   6.378  0.1041 -0.1996  0.0221
  991YOPC   C4B13714   7.577   9.711   6.666  0.0199 -0.0793  0.2141
  992YOPC   NC313715   5.244  17.341   5.172  0.1096 -0.1009  0.1503
  992YOPC   PO413716   5.150  16.854   5.087 -0.1728  0.2431 -0.0892
  992YOPC   GL113717   5.332  16.841   5.446  0.2089  0.2059 -0.0685
  992YOPC   GL213718   5.144  17.078   5.606  0.0651  0.2609  0.2123
  992YOPC   C1A13719   5.384  16.725   5.858  0.0453 -0.1142 -0.1934
  992YOPC   D2A13720   5.300  16.954   6.296 -0.1560 -0.0325  0.2693
  992YOPC   C3A13721   4.974  17.243   6.454 -0.1857 -0.1918  0.1584
  992YOPC   C4A13722   4.887  17.709   6.393 -0.2855  0.0143  0.4976
  992YOPC   C1B13723   4.929  17.036   5.974 -0.3219 -0.1166 -0.0857
  992YOPC   C2B13724   4.628  16.950   6.272  0.0144  0.0744 -0.2120
  992YOPC   D3B13725   4.752  16.919   6.769  0.0913  0.1199 -0.1882
  992YOPC   C4B13726   5.154  16.906   6.926 -0.1443 -0.2835  0.1303
  993YOPC   NC313727   2.870   4.282   4.957 -0.0591 -0.0354 -0.0690
  993YOPC   PO413728   2.648   4.177   5.343 -0.2701  0.4445  0.0762
  993YOPC   GL113729   2.508   3.954   5.770 -0.0871 -0.0370  0.0641
  993YOPC   GL213730   2.304   3.966   5.882 -0.0522 -0.0083 -0.0704
  993YOPC   C1A13731   2.618   4.169   6.182  0.2495  0.0812  0.0277
  993YOPC   D2A13732   2.569   4.247   6.612  0.2055  0.0129  0.1634
  993YOPC   C3A13733   2.501   4.092   7.092 -0.0989  0.0251 -0.0316
  993YOPC   C4A13734   2.067   4.084   7.339  0.0720 -0.1957  0.0633
  993YOPC   C1B13735   2.130   4.014   6.280 -0.1796  0.2928  0.0593
  993YOPC   C2B13736   1.797   4.253   6.432  0.1043  0.0388 -0.2335
  993YOPC   D3B13737   1.673   4.142   6.702 -0.3423  0.0786  0.0003
  993YOPC   C4B13738   1.598   4.112   7.168  0.1342  0.0126 -0.1077
  994YOPC   NC313739  16.216   4.526   5.594 -0.2244  0.0170  0.3198
  994YOPC   PO413740  16.521   4.769   5.740 -0.0385  0.0792  0.2829
  994YOPC   GL113741  16.453   4.655   6.113 -0.2020  0.1238 -0.1162
  994YOPC   GL213742  16.181   4.667   6.215 -0.2500 -0.0302 -0.0207
  994YOPC   C1A13743  16.553   4.922   6.493 -0.1376  0.0909  0.0239
  994YOPC   D2A13744  16.662   5.106   6.796  0.1465 -0.0478 -0.1446
  994YOPC   C3A13745  16.444   5.229   7.069  0.2244  0.0754  0.2584
  994YOPC   C4A13746  16.371   5.415   7.448 -0.2872  0.2224 -0.1348
  994YOPC   C1B13747  15.973   4.386   6.414  0.1995 -0.4468 -0.0952
  994YOPC   C2B13748  16.135   4.101   6.670 -0.0017 -0.2294  0.3324
  994YOPC   D3B13749  16.040   3.847   6.935 -0.2489 -0.0884 -0.1352
  994YOPC   C4B13750  16.241   3.573   7.416  0.2054  0.0586 -0.0416
  995YOPC   NC313751  18.167   1.798   5.402 -0.0367  0.0016  0.2531
  995YOPC   PO413752  18.456   1.935   5.589  0.1002  0.0518  0.2445
  995YOPC   GL113753  18.650   1.863   5.969 -0.2534 -0.0619  0.0577
  995YOPC   GL213754  18.437   1.924   6.216  0.2623  0.2065  0.1702
  995YOPC   C1A13755  18.887   1.690   6.355 -0.4971 -0.0330 -0.0853
  995YOPC   D2A13756  19.106   1.475   6.696 -0.0229  0.2835 -0.1346
  995YOPC   C3A13757  18.948   1.149   7.007  0.2072 -0.2064 -0.3944
  995YOPC   C4A13758  18.877   0.854   7.242  0.2744  0.5123 -0.2378
  995YOPC   C1B13759  18.368   2.319   6.471 -0.2391  0.2205  0.0642
  995YOPC   C2B13760  18.587   2.784   6.688 -0.2365 -0.2995 -0.0019
  995YOPC   D3B13761  18.466   2.982   7.113  0.1453 -0.1062  0.0778
  995YOPC   C4B13762  18.361   3.024   7.542  0.0438  0.1480 -0.0741
  996YOPC   NC313763   9.167  12.629   5.131 -0.1946  0.0410  0.1231
  996YOPC   PO413764   8.744  12.583   5.103  0.5621 -0.1399 -0.0591
  996YOPC   GL113765   8.829  12.821   5.454  0.0272  0.2267 -0.2909
  996YOPC   GL213766   9.069  12.923   5.682  0.0822 -0.6230 -0.0461
  996YOPC   C1A13767   8.536  12.896   5.760  0.1462  0.3325  0.0001
  996YOPC   D2A13768   8.235  12.867   6.082 -0.1118  0.0354  0.0700
  996YOPC   C3A13769   8.277  12.785   6.471  0.1192 -0.0619  0.0821
  996YOPC   C4A13770   8.247  12.596   6.867  0.0905  0.4748  0.1837
  996YOPC   C1B13771   9.126  13.379   5.805 -0.0680  0.0477 -0.1220
  996YOPC   C2B13772   9.115  13.553   6.211  0.2315 -0.0918 -0.1680
  996YOPC   D3B13773   8.920  13.356   6.582 -0.0331 -0.1071  0.3142
  996YOPC   C4B13774   8.677  13.045   6.541 -0.1146 -0.5048 -0.1507
  997YOPC   NC313775  15.049  13.230   5.485 -0.1856  0.2690  0.1506
  997YOPC   PO413776  14.638  13.512   5.608 -0.2270 -0.0671 -0.1663
  997YOPC   GL113777  14.720  13.561   6.018 -0.0352 -0.1537 -0.2012
  997YOPC   GL213778  14.805  13.193   5.995  0.0451  0.3708 -0.1233
  997YOPC   C1A13779  14.704  13.653   6.368 -0.1920  0.1194  0.2625
  997YOPC   D2A13780  14.620  13.274   6.673 -0.0821 -0.1844 -0.2951
  997YOPC   C3A13781  14.479  13.504   7.026 -0.2170  0.1538  0.2844
  997YOPC   C4A13782  14.698  13.848   7.290 -0.0840  0.0929 -0.0505
  997YOPC   C1B13783  15.136  13.039   6.303 -0.0485 -0.1317  0.2002
  997YOPC   C2B13784  15.113  12.671   6.612 -0.0573  0.0363 -0.2537
  997YOPC   D3B13785  15.017  12.677   7.033 -0.1512  0.0021 -0.2817
  997YOPC   C4B13786  15.163  12.845   7.401 -0.1152  0.1301 -0.1222
  998YOPC   NC313787  15.793   2.753   5.405 -0.0156  0.2305  0.0680
  998YOPC   PO413788  16.006   2.361   5.683 -0.3811  0.0905  0.1904
  998YOPC   GL113789  15.909   2.481   6.063  0.2339 -0.2164  0.3962
  998YOPC   GL213790  15.731   2.179   6.190  0.0222  0.0118 -0.2703
  998YOPC   C1A13791  16.178   2.473   6.419  0.2069  0.0707  0.1285
  998YOPC   D2A13792  16.404   2.571   6.787 -0.2240  0.0378  0.0399
  998YOPC   C3A13793  16.397   2.337   7.103 -0.0315  0.2125 -0.2832
  998YOPC   C4A13794  16.480   2.077   7.470  0.0754 -0.1294 -0.0523
  998YOPC   C1B13795  15.749   2.356   6.576  0.2483  0.1688 -0.0830
  998YOPC   C2B13796  15.924   2.410   6.996 -0.1549  0.0363 -0.2744
  998YOPC   D3B13797  15.988   2.006   7.285 -0.2746 -0.0572 -0.0921
  998YOPC   C4B13798  15.958   1.832   7.760  0.3524 -0.1551  0.3834
  999YOPC   NC313799   8.270  11.800   5.019  0.0012  0.1589  0.2364
  999YOPC   PO413800   7.796  11.783   5.128  0.0704  0.0649  0.0698
  999YOPC   GL113801   7.720  11.407   5.423 -0.1984  0.3625 -0.1651
  999YOPC   GL213802   7.738  11.618   5.620 -0.2149  0.2975 -0.1678
  999YOPC   C1A13803   7.808  11.065   5.580  0.0914  0.1309  0.0840
  999YOPC   D2A13804   7.610  10.683   5.773  0.0074 -0.0046 -0.2440
  999YOPC   C3A13805   7.578  10.589   6.233  0.1439  0.0433 -0.0558
  999YOPC   C4A13806   7.415  10.593   6.533 -0.1426  0.1958 -0.3190
  999YOPC   C1B13807   7.817  11.546   6.038  0.3420 -0.3319 -0.0668
  999YOPC   C2B13808   7.984  11.341   6.403  0.2304  0.1353 -0.2517
  999YOPC   D3B13809   8.370  11.401   6.604  0.0196 -0.0617  0.0521
  999YOPC   C4B13810   8.309  11.559   6.961 -0.0194 -0.0657 -0.0799
 1000YOPC   NC313811  15.891   8.501   5.507 -0.1447  0.1715 -0.1617
 1000YOPC   PO413812  15.991   8.163   5.395  0.0945  0.3002  0.0724
 1000YOPC   GL113813  16.330   8.300   5.732  0.0100 -0.0327 -0.0897
 1000YOPC   GL213814  16.316   8.651   5.856  0.1063  0.1783 -0.2397
 1000YOPC   C1A13815  16.355   8.215   6.164  0.3684 -0.1811  0.0418
 1000YOPC   D2A13816  16.072   8.048   6.547  0.2212 -0.0963 -0.1274
 1000YOPC   C3A13817  15.960   8.245   6.852 -0.0075 -0.0054  0.0502
 1000YOPC   C4A13818  15.885   8.394   7.295 -0.1874  0.1834 -0.0890
 1000YOPC   C1B13819  16.529   8.855   6.314  0.0132  0.1573  0.0120
 1000YOPC   C2B13820  16.598   8.872   6.787  0.0538 -0.1248  0.1410
 1000YOPC   D3B13821  16.578   9.295   7.034  0.1255  0.1233 -0.2958
 1000YOPC   C4B13822  16.686   9.759   7.104 -0.0602  0.0837  0.1968
 1001YOPC   NC313823  18.966   1.781   5.586 -0.1178  0.1538  0.1711
 1001YOPC   PO413824  19.344   2.059   5.585  0.0485  0.3539 -0.0977
 1001YOPC   GL113825  19.327   1.695   5.920 -0.0506  0.0086 -0.0500
 1001YOPC   GL213826  19.195   1.426   5.843 -0.2967  0.0561  0.3623
 1001YOPC   C1A13827  19.439   1.663   6.301 -0.3567  0.1657  0.0135
 1001YOPC   D2A13828  19.322   1.923   6.600  0.1586  0.1233  0.1320
 1001YOPC   C3A13829  19.088   1.884   6.982  0.0191 -0.2843  0.1752
 1001YOPC   C4A13830  18.755   1.569   7.084 -0.1190  0.2136  0.2912
 1001YOPC   C1B13831  19.143   1.289   6.176  0.0563 -0.1693  0.2446
 1001YOPC   C2B13832  18.868   1.097   6.473  0.1281 -0.0336 -0.0751
 1001YOPC   D3B13833  18.346   1.042   6.455 -0.2876  0.0051 -0.0633
 1001YOPC   C4B13834  18.073   1.480   6.400  0.0488 -0.2865  0.4769
 1002YOPC   NC313835  17.055  17.058   5.705  0.2185  0.0799 -0.1468
 1002YOPC   PO413836  17.020  16.642   5.542  0.0910 -0.1291 -0.1209
 1002YOPC   GL113837  17.022  16.621   5.977  0.0764  0.2422  0.1652
 1002YOPC   GL213838  17.044  16.857   6.207 -0.0341  0.0205  0.0193
 1002YOPC   C1A13839  17.062  16.427   6.415 -0.1419  0.0804 -0.0396
 1002YOPC   D2A13840  16.890  16.135   6.584  0.1388 -0.2970 -0.3128
 1002YOPC   C3A13841  17.248  15.784   6.570  0.1151  0.0955 -0.4376
 1002YOPC   C4A13842  17.580  15.499   6.673 -0.1664 -0.0223  0.2270
 1002YOPC   C1B13843  16.973  17.155   6.521  0.0001  0.6456 -0.1259
 1002YOPC   C2B13844  17.034  17.455   6.855 -0.2834  0.2618 -0.2987
 1002YOPC   D3B13845  17.270  17.776   6.833  0.0129 -0.0139  0.0144
 1002YOPC   C4B13846  17.322  18.021   7.162 -0.4327 -0.0510  0.1475
 1003YOPC   NC313847  18.181  14.927   6.071  0.1022  0.0199  0.1009
 1003YOPC   PO413848  18.322  14.528   6.261  0.1563 -0.3439  0.0113
 1003YOPC   GL113849  18.399  14.401   6.616 -0.1546  0.3158  0.1090
 1003YOPC   GL213850  18.754  14.594   6.644  0.4973 -0.0784 -0.0368
 1003YOPC   C1A13851  18.281  14.443   7.019  0.0522  0.0201  0.2848
 1003YOPC   D2A13852  18.064  14.328   7.276 -0.0374 -0.0339 -0.2353
 1003YOPC   C3A13853  17.711  14.515   7.532 -0.0116 -0.0291  0.4344
 1003YOPC   C4A13854  17.343  14.371   7.851  0.0316 -0.0607 -0.2453
 1003YOPC   C1B13855  18.719  14.655   7.097  0.1460 -0.3356  0.1965
 1003YOPC   C2B13856  18.413  14.648   7.464  0.3814 -0.1557  0.2608
 1003YOPC   D3B13857  18.479  14.812   7.927 -0.0051  0.3393 -0.0165
 1003YOPC   C4B13858  18.592  14.698   8.304  0.3080 -0.1217 -0.1028
 1004YOPC   NC313859   0.554   7.344   5.647  0.2216  0.0229  0.1234
 1004YOPC   PO413860   0.381   7.603   5.974  0.0032 -0.0263 -0.0059
 1004YOPC   GL113861   0.142   7.465   6.350 -0.1018  0.0770 -0.1662
 1004YOPC   GL213862  -0.071   7.287   6.348  0.0908 -0.2029 -0.0730
 1004YOPC   C1A13863   0.194   7.455   6.873 -0.2404  0.2874  0.1003
 1004YOPC   D2A13864   0.626   7.354   7.006 -0.4059  0.2774 -0.0307
 1004YOPC   C3A13865   0.735   7.115   7.405 -0.2763  0.1085  0.1627
 1004YOPC   C4A13866   0.734   6.937   7.811 -0.1448  0.0958  0.0336
 1004YOPC   C1B13867  -0.326   7.324   6.818  0.0410 -0.0198 -0.1213
 1004YOPC   C2B13868  -0.321   7.197   7.258  0.0956  0.1637 -0.0730
 1004YOPC   D3B13869  -0.671   7.188   7.311  0.0524 -0.0880 -0.1854
 1004YOPC   C4B13870  -1.114   6.928   7.438 -0.0173  0.2138  0.2564
 1005YOPC   NC313871  13.123   2.859   5.429  0.4236  0.1229  0.2831
 1005YOPC   PO413872  13.072   2.538   5.604 -0.4248 -0.0532 -0.0378
 1005YOPC   GL113873  13.146   2.149   6.019 -0.0999  0.0277  0.1648
 1005YOPC   GL213874  12.864   1.977   6.374  0.4909 -0.0740 -0.1116
 1005YOPC   C1A13875  13.340   2.167   6.501 -0.2282  0.2751  0.2231
 1005YOPC   D2A13876  13.338   2.350   6.943  0.0388  0.1769 -0.1611
 1005YOPC   C3A13877  13.636   2.514   7.189 -0.1104  0.3579  0.0935
 1005YOPC   C4A13878  13.668   2.647   7.611  0.2768 -0.2404  0.1606
 1005YOPC   C1B13879  12.917   2.363   6.472 -0.0333  0.0045  0.0725
 1005YOPC   C2B13880  13.068   2.748   6.297 -0.0222  0.5347  0.3529
 1005YOPC   D3B13881  13.101   3.099   6.406  0.3304 -0.0942 -0.1341
 1005YOPC   C4B13882  13.305   3.276   6.748 -0.0689 -0.3637  0.2336
 1006YOPC   NC313883   6.464  11.959   4.955 -0.1179 -0.0657 -0.3675
 1006YOPC   PO413884   6.137  12.125   5.215  0.2044 -0.4253  0.0889
 1006YOPC   GL113885   6.022  12.082   5.691 -0.3818 -0.0314 -0.0013
 1006YOPC   GL213886   5.737  11.953   5.588 -0.2378 -0.1485 -0.1904
 1006YOPC   C1A13887   6.203  12.115   6.090  0.0178 -0.0363 -0.1440
 1006YOPC   D2A13888   6.364  12.238   6.434  0.1477  0.0828  0.0940
 1006YOPC   C3A13889   6.240  12.549   6.659  0.1239  0.0167 -0.3056
 1006YOPC   C4A13890   5.957  12.582   6.954  0.0987 -0.0159 -0.1914
 1006YOPC   C1B13891   5.677  11.931   6.058 -0.0220  0.0248  0.2769
 1006YOPC   C2B13892   5.586  11.907   6.477  0.2489 -0.1860  0.0190
 1006YOPC   D3B13893   5.947  11.967   6.798 -0.0912 -0.1231 -0.2836
 1006YOPC   C4B13894   6.292  12.188   6.988  0.1421 -0.0568 -0.0123
 1007YOPC   NC313895   7.614   2.615   5.023  0.2201  0.1702  0.0757
 1007YOPC   PO413896   7.366   2.919   5.215  0.0279 -0.1968  0.2082
 1007YOPC   GL113897   7.508   3.253   5.387 -0.1479  0.1066 -0.1137
 1007YOPC   GL213898   7.717   3.556   5.262 -0.1339 -0.4478  0.2241
 1007YOPC   C1A13899   7.419   3.555   5.711 -0.0289 -0.0323 -0.2386
 1007YOPC   D2A13900   7.612   3.739   6.074  0.0098  0.3123  0.3091
 1007YOPC   C3A13901   7.805   3.269   6.183 -0.1798  0.0642 -0.2112
 1007YOPC   C4A13902   7.551   3.045   6.428  0.1831  0.2897  0.0992
 1007YOPC   C1B13903   8.081   3.532   5.539  0.0494 -0.0831  0.3242
 1007YOPC   C2B13904   8.133   3.620   5.917  0.1227  0.1398  0.0551
 1007YOPC   D3B13905   8.595   3.645   6.053  0.1334 -0.0992  0.2384
 1007YOPC   C4B13906   9.146   3.620   5.947  0.0113 -0.0770  0.4504
 1008YOPC   NC313907   6.935  14.742   4.639  0.2327  0.0230  0.0740
 1008YOPC   PO413908   6.648  15.167   4.779  0.2894  0.0752  0.0837
 1008YOPC   GL113909   6.436  15.140   5.220 -0.1371  0.0053 -0.4579
 1008YOPC   GL213910   6.168  15.034   5.391 -0.0858  0.0160 -0.2214
 1008YOPC   C1A13911   6.679  14.975   5.618 -0.4886  0.1037 -0.1328
 1008YOPC   D2A13912   7.098  14.738   5.682 -0.0796 -0.2258  0.2402
 1008YOPC   C3A13913   7.138  14.488   5.893 -0.0675  0.3665  0.1965
 1008YOPC   C4A13914   7.170  14.034   6.087  0.1873 -0.2286  0.4864
 1008YOPC   C1B13915   6.201  14.975   5.893 -0.1029 -0.1878  0.0297
 1008YOPC   C2B13916   6.357  14.838   6.262  0.0915 -0.0670 -0.0128
 1008YOPC   D3B13917   6.864  14.871   6.553  0.1701  0.1508 -0.0758
 1008YOPC   C4B13918   6.911  15.151   6.882 -0.0443 -0.1939 -0.1632
 1009YOPC   NC313919  18.284   7.823   5.245  0.0417 -0.1693  0.0670
 1009YOPC   PO413920  18.326   7.967   5.697 -0.3597  0.2101 -0.1808
 1009YOPC   GL113921  18.414   8.061   6.019 -0.2522  0.0575 -0.0955
 1009YOPC   GL213922  18.791   8.166   6.123  0.0194 -0.1329  0.1131
 1009YOPC   C1A13923  18.266   8.153   6.363 -0.0481  0.0354  0.2287
 1009YOPC   D2A13924  18.258   8.308   6.672  0.1583  0.1256  0.0470
 1009YOPC   C3A13925  18.380   8.678   6.920 -0.0534  0.1146 -0.4304
 1009YOPC   C4A13926  18.624   8.715   7.331  0.1894  0.1047  0.1895
 1009YOPC   C1B13927  18.806   8.221   6.586  0.2299 -0.3342  0.1045
 1009YOPC   C2B13928  18.697   8.260   7.021 -0.0845  0.0951 -0.0664
 1009YOPC   D3B13929  18.804   8.181   7.428  0.1445 -0.1596 -0.0017
 1009YOPC   C4B13930  18.487   8.162   7.657 -0.1007  0.2287  0.3462
 1010YOPC   NC313931   5.799  15.784   4.875  0.0889 -0.0819  0.0614
 1010YOPC   PO413932   5.921  16.199   5.106 -0.1962  0.2589 -0.1431
 1010YOPC   GL113933   5.878  16.255   5.500 -0.1044 -0.1935 -0.1641
 1010YOPC   GL213934   5.447  16.337   5.498  0.0056  0.0167  0.0614
 1010YOPC   C1A13935   5.843  16.518   5.906 -0.0528  0.0524 -0.0476
 1010YOPC   D2A13936   5.755  16.775   6.289 -0.1229  0.0669 -0.0255
 1010YOPC   C3A13937   5.448  16.614   6.635  0.1740  0.2503  0.0421
 1010YOPC   C4A13938   5.563  16.657   7.111 -0.2625  0.3535 -0.2086
 1010YOPC   C1B13939   5.376  16.192   5.886 -0.1088 -0.1900 -0.1938
 1010YOPC   C2B13940   5.507  16.263   6.279 -0.2131 -0.0785  0.1339
 1010YOPC   D3B13941   5.518  16.091   6.617 -0.1532  0.0777  0.3484
 1010YOPC   C4B13942   5.595  16.112   7.094  0.1377  0.2464  0.1988
 1011YOPC   NC313943  17.611  11.633   5.621 -0.2514 -0.2062  0.2317
 1011YOPC   PO413944  17.461  11.275   5.686  0.0465 -0.2694  0.0085
 1011YOPC   GL113945  17.483  11.351   6.096 -0.2873 -0.0343 -0.0215
 1011YOPC   GL213946  17.765  11.452   6.108 -0.0859 -0.2333  0.0437
 1011YOPC   C1A13947  17.232  11.566   6.308  0.0734  0.1046  0.1951
 1011YOPC   D2A13948  17.182  11.730   6.635  0.2482 -0.3387 -0.2160
 1011YOPC   C3A13949  17.038  11.564   7.076  0.1469  0.0900 -0.0611
 1011YOPC   C4A13950  17.155  11.565   7.529  0.3510  0.0928  0.0866
 1011YOPC   C1B13951  17.642  11.440   6.599 -0.2708 -0.0384 -0.2881
 1011YOPC   C2B13952  17.658  11.647   6.886 -0.1026  0.0854 -0.1191
 1011YOPC   D3B13953  17.704  11.550   7.238 -0.1769 -0.0817  0.1711
 1011YOPC   C4B13954  17.945  11.304   7.581 -0.1590  0.1970  0.1455
 1012YOPC   NC313955  19.003  15.583   5.898 -0.1773  0.2662  0.4128
 1012YOPC   PO413956  18.510  15.288   5.806 -0.1091  0.0702  0.1512
 1012YOPC   GL113957  18.610  15.289   6.247  0.0157  0.1185  0.2146
 1012YOPC   GL213958  18.787  15.120   6.499  0.4325 -0.1657  0.1865
 1012YOPC   C1A13959  18.461  15.482   6.573  0.0491  0.2020  0.0844
 1012YOPC   D2A13960  18.389  15.761   6.959 -0.0484 -0.2251 -0.0645
 1012YOPC   C3A13961  18.630  15.760   7.395  0.0529 -0.1209 -0.1147
 1012YOPC   C4A13962  18.771  15.863   7.742 -0.1410 -0.1427  0.0456
 1012YOPC   C1B13963  19.211  15.344   6.553  0.1254  0.0701  0.0816
 1012YOPC   C2B13964  19.428  15.431   6.958  0.0114 -0.0609 -0.1402
 1012YOPC   D3B13965  19.864  15.666   7.074 -0.0811  0.0075  0.1633
 1012YOPC   C4B13966  20.261  15.855   6.858  0.1173 -0.2359 -0.1547
 1013YOPC   NC313967  15.622   8.299   5.109  0.0670 -0.2339  0.1192
 1013YOPC   PO413968  15.380   8.436   5.494  0.1841 -0.3031 -0.2561
 1013YOPC   GL113969  15.531   8.418   5.890 -0.0281  0.0981 -0.3295
 1013YOPC   GL213970  15.898   8.394   5.984  0.1539 -0.3709  0.0520
 1013YOPC   C1A13971  15.330   8.422   6.272 -0.1918 -0.1185 -0.4964
 1013YOPC   D2A13972  15.053   8.421   6.641 -0.0169  0.3100 -0.0864
 1013YOPC   C3A13973  14.687   8.448   6.468 -0.0076 -0.3086  0.2468
 1013YOPC   C4A13974  14.368   8.555   6.324  0.6176 -0.3570 -0.1479
 1013YOPC   C1B13975  16.006   8.580   6.385 -0.0737 -0.0205 -0.0876
 1013YOPC   C2B13976  16.376   8.429   6.642 -0.0995 -0.0949  0.1387
 1013YOPC   D3B13977  16.393   8.334   7.108  0.0284  0.1096 -0.0240
 1013YOPC   C4B13978  16.256   8.555   7.589 -0.5990 -0.2949  0.4985
 1014YOPC   NC313979  18.974  10.587   5.522 -0.1809 -0.1952  0.3057
 1014YOPC   PO413980  19.126  10.171   5.518  0.1472  0.0277 -0.0301
 1014YOPC   GL113981  19.486  10.134   5.826 -0.0611  0.2690 -0.5014
 1014YOPC   GL213982  19.722   9.773   5.806 -0.0866 -0.0833  0.2374
 1014YOPC   C1A13983  19.586  10.479   6.176 -0.1097  0.0029  0.0114
 1014YOPC   D2A13984  19.675  10.668   6.458 -0.1361 -0.1535 -0.0594
 1014YOPC   C3A13985  19.728  10.830   6.835  0.1944  0.2705 -0.0130
 1014YOPC   C4A13986  19.726  10.855   7.194  0.2200 -0.0268 -0.0239
 1014YOPC   C1B13987  19.575   9.952   6.230 -0.2908 -0.0581 -0.1832
 1014YOPC   C2B13988  19.610  10.201   6.640 -0.0015  0.0585 -0.0243
 1014YOPC   D3B13989  19.912  10.304   6.899  0.0625 -0.0365 -0.1468
 1014YOPC   C4B13990  20.233  10.119   7.139 -0.2395 -0.2991 -0.2496
 1015YOPC   NC313991   0.748  13.511   5.612  0.1316  0.1123  0.0324
 1015YOPC   PO413992   0.885  13.091   5.515  0.1120 -0.0715  0.2954
 1015YOPC   GL113993   0.994  13.143   5.956 -0.0270  0.1780 -0.2094
 1015YOPC   GL213994   1.293  12.912   6.051  0.1837 -0.5015 -0.3691
 1015YOPC   C1A13995   0.969  13.328   6.431 -0.0536 -0.0938  0.0500
 1015YOPC   D2A13996   0.936  13.254   6.890  0.1288 -0.1283 -0.1127
 1015YOPC   C3A13997   0.840  13.657   7.046  0.3495 -0.1519  0.3097
 1015YOPC   C4A13998   1.155  14.006   7.034  0.1119  0.0903 -0.1970
 1015YOPC   C1B13999   1.592  12.819   6.381 -0.0336 -0.3654  0.0896
 1015YOPC   C2B14000   1.751  12.740   6.884 -0.3030  0.0310 -0.0046
 1015YOPC   D3B14001   1.591  12.562   7.289 -0.0692 -0.1942 -0.1040
 1015YOPC   C4B14002   1.412  12.302   7.644  0.2828  0.3174 -0.0907
 1016YOPC   NC314003   3.771  13.914   4.918  0.0860  0.2326  0.0553
 1016YOPC   PO414004   3.548  14.249   4.996 -0.1116  0.3298 -0.0618
 1016YOPC   GL114005   3.816  14.205   5.354  0.2030 -0.0350 -0.2073
 1016YOPC   GL214006   3.847  14.472   5.469  0.1428 -0.0908  0.0318
 1016YOPC   C1A14007   3.989  14.079   5.695  0.3520  0.0754 -0.0701
 1016YOPC   D2A14008   4.250  13.978   6.010 -0.1876  0.0635  0.0920
 1016YOPC   C3A14009   4.718  14.053   6.151  0.0298 -0.0068  0.4402
 1016YOPC   C4A14010   4.839  14.476   6.173 -0.1158 -0.1231  0.1437
 1016YOPC   C1B14011   3.774  14.570   5.830  0.1366 -0.1076 -0.0981
 1016YOPC   C2B14012   4.000  14.829   6.133  0.2028  0.2350  0.0348
 1016YOPC   D3B14013   3.940  14.669   6.716  0.0244 -0.1145  0.3278
 1016YOPC   C4B14014   4.069  14.462   7.036 -0.1291 -0.1408 -0.1041
 1017YOPC   NC314015   2.728   0.949   5.085 -0.0366  0.1922  0.0766
 1017YOPC   PO414016   2.234   0.929   5.217  0.2473 -0.3045 -0.2534
 1017YOPC   GL114017   2.523   0.977   5.559 -0.3608 -0.0244  0.0124
 1017YOPC   GL214018   2.404   0.810   5.861 -0.0652  0.0859 -0.3257
 1017YOPC   C1A14019   2.888   0.808   5.793 -0.4659 -0.0923 -0.3280
 1017YOPC   D2A14020   2.921   0.923   6.195 -0.1063  0.1124  0.0815
 1017YOPC   C3A14021   2.865   1.086   6.623 -0.2685 -0.1535  0.1603
 1017YOPC   C4A14022   2.922   1.113   7.109 -0.2887 -0.1953  0.1728
 1017YOPC   C1B14023   2.188   0.570   6.099  0.3709  0.2448 -0.0390
 1017YOPC   C2B14024   2.080   0.476   6.481  0.0110 -0.2250 -0.1064
 1017YOPC   D3B14025   2.010   0.047   6.736 -0.0461 -0.1381 -0.3116
 1017YOPC   C4B14026   2.055   0.064   7.186  0.0125  0.0969  0.0566
 1018YOPC   NC314027   8.925   8.953   5.598  0.0154 -0.0334  0.0069
 1018YOPC   PO414028   9.011   9.405   5.687  0.2128  0.1659  0.0906
 1018YOPC   GL114029   8.645   9.493   5.932  0.1025  0.1827  0.1454
 1018YOPC   GL214030   8.481   9.165   5.886 -0.0691  0.2496  0.3014
 1018YOPC   C1A14031   8.401   9.516   6.286  0.0507 -0.1376  0.3257
 1018YOPC   D2A14032   8.280   9.253   6.667  0.0827  0.0771 -0.2211
 1018YOPC   C3A14033   7.933   9.264   6.954 -0.3474 -0.1337  0.1554
 1018YOPC   C4A14034   7.888   9.227   7.358 -0.1692 -0.3373  0.0798
 1018YOPC   C1B14035   8.294   8.908   6.209 -0.0824 -0.0833  0.1325
 1018YOPC   C2B14036   8.028   8.696   6.325  0.2743 -0.1654  0.0389
 1018YOPC   D3B14037   7.881   8.813   6.675  0.3477 -0.1737  0.1087
 1018YOPC   C4B14038   7.680   8.794   7.008  0.1533 -0.2765 -0.1069
 1019YOPC   NC314039  14.884  16.353   5.376 -0.1626  0.2162 -0.2125
 1019YOPC   PO414040  14.518  16.359   5.675 -0.0144  0.0990 -0.0050
 1019YOPC   GL114041  14.204  16.369   6.112  0.0531 -0.1385 -0.0548
 1019YOPC   GL214042  13.928  16.461   6.170 -0.0200  0.3485  0.3472
 1019YOPC   C1A14043  14.300  16.300   6.525  0.1617  0.3530 -0.0321
 1019YOPC   D2A14044  14.625  16.472   6.765 -0.2385 -0.2502 -0.1161
 1019YOPC   C3A14045  14.663  16.496   7.294  0.1955 -0.1605  0.1410
 1019YOPC   C4A14046  14.814  16.357   7.767 -0.2219 -0.3175 -0.2283
 1019YOPC   C1B14047  13.813  16.373   6.633  0.2750  0.1518  0.0098
 1019YOPC   C2B14048  13.618  16.501   7.071 -0.0284 -0.0375  0.0403
 1019YOPC   D3B14049  13.509  16.767   7.384  0.0025  0.0859 -0.0523
 1019YOPC   C4B14050  13.311  16.899   7.844 -0.0878 -0.1534 -0.1956
 1020YOPC   NC314051  15.192  14.181   5.554 -0.1779  0.1106  0.2966
 1020YOPC   PO414052  15.033  13.863   5.487  0.1438 -0.0702 -0.0905
 1020YOPC   GL114053  15.152  13.827   5.936 -0.2269  0.1295 -0.1975
 1020YOPC   GL214054  15.335  14.139   6.069 -0.0243  0.3598  0.1380
 1020YOPC   C1A14055  15.311  13.650   6.205 -0.1780  0.4384 -0.2312
 1020YOPC   D2A14056  15.299  13.540   6.658  0.0334  0.1022 -0.1365
 1020YOPC   C3A14057  15.070  13.147   6.878  0.2067 -0.1965 -0.0600
 1020YOPC   C4A14058  14.753  13.126   7.189  0.1631 -0.3197 -0.1986
 1020YOPC   C1B14059  15.344  14.104   6.571  0.0795  0.1953  0.1280
 1020YOPC   C2B14060  15.275  14.004   7.026 -0.3411 -0.2196 -0.2869
 1020YOPC   D3B14061  15.646  13.725   7.208 -0.0487  0.2492 -0.2572
 1020YOPC   C4B14062  15.861  13.339   7.450  0.1004 -0.0756 -0.3209
 1021YOPC   NC314063  14.595   7.130   5.525 -0.1833 -0.1305 -0.2003
 1021YOPC   PO414064  14.257   6.757   5.580 -0.0536  0.2498 -0.1160
 1021YOPC   GL114065  14.336   6.885   5.924 -0.1137  0.1758  0.1436
 1021YOPC   GL214066  14.542   7.073   6.062  0.0969  0.1287  0.2096
 1021YOPC   C1A14067  13.998   7.082   6.186 -0.2355 -0.2414  0.2359
 1021YOPC   D2A14068  14.049   7.417   6.526  0.1840  0.2591 -0.2136
 1021YOPC   C3A14069  14.087   7.251   6.881  0.4089  0.0069  0.1421
 1021YOPC   C4A14070  14.023   7.375   7.346 -0.1711  0.1229  0.3766
 1021YOPC   C1B14071  14.615   7.234   6.437 -0.0712 -0.0823 -0.2343
 1021YOPC   C2B14072  14.591   7.458   6.885  0.1103  0.0946  0.4910
 1021YOPC   D3B14073  14.752   7.675   7.200  0.2310 -0.4752 -0.0700
 1021YOPC   C4B14074  14.718   7.862   7.538  0.1603 -0.1674  0.4118
 1022YOPC   NC314075  12.689  16.443   5.512  0.3187  0.1905  0.0745
 1022YOPC   PO414076  12.794  16.193   5.936 -0.0665 -0.1594  0.2788
 1022YOPC   GL114077  12.968  16.040   6.258 -0.0821 -0.2752  0.2441
 1022YOPC   GL214078  13.028  16.324   6.407  0.2700 -0.2474 -0.0778
 1022YOPC   C1A14079  12.904  15.875   6.744 -0.2337 -0.0186 -0.0709
 1022YOPC   D2A14080  12.822  15.559   6.916  0.0048  0.2522 -0.1123
 1022YOPC   C3A14081  12.563  15.434   7.283  0.1186  0.6277  0.1087
 1022YOPC   C4A14082  12.383  15.253   7.637 -0.0808  0.1925 -0.1606
 1022YOPC   C1B14083  12.948  16.338   6.819  0.1857 -0.3926 -0.1708
 1022YOPC   C2B14084  12.763  16.047   7.187 -0.0740 -0.1230 -0.1324
 1022YOPC   D3B14085  12.888  16.077   7.650  0.0399 -0.0645  0.0596
 1022YOPC   C4B14086  12.998  16.276   7.999  0.1042  0.2710 -0.0732
 1023YOPC   NC314087   7.400   8.099   4.735  0.1090  0.4494  0.0624
 1023YOPC   PO414088   7.073   8.441   4.986  0.0532  0.5464  0.1816
 1023YOPC   GL114089   6.973   8.572   5.395  0.1983  0.4270 -0.0276
 1023YOPC   GL214090   6.786   8.926   5.440  0.3148 -0.0724 -0.1100
 1023YOPC   C1A14091   7.015   8.742   5.820  0.0578 -0.1596 -0.1673
 1023YOPC   D2A14092   6.793   8.710   6.222  0.1690  0.0741  0.1788
 1023YOPC   C3A14093   6.586   8.213   6.353  0.0594 -0.0858  0.0276
 1023YOPC   C4A14094   6.264   8.030   6.517  0.0714  0.2490  0.1853
 1023YOPC   C1B14095   6.567   8.928   5.846 -0.2255  0.2436 -0.4437
 1023YOPC   C2B14096   6.283   9.006   6.237 -0.1372 -0.1926 -0.2051
 1023YOPC   D3B14097   6.476   8.921   6.597  0.3963 -0.0135 -0.1939
 1023YOPC   C4B14098   6.811   8.959   6.986  0.1985  0.3256  0.0536
 1024YOPC   NC314099   0.204  17.525   5.944 -0.0676  0.0123 -0.1136
 1024YOPC   PO414100   0.567  17.179   5.847  0.0935 -0.1264  0.0320
 1024YOPC   GL114101   0.746  17.331   6.272 -0.3376  0.1916 -0.2611
 1024YOPC   GL214102   1.191  17.470   6.302  0.2178  0.0434 -0.0119
 1024YOPC   C1A14103   0.692  17.319   6.744 -0.2129 -0.2601  0.1724
 1024YOPC   D2A14104   0.795  17.381   7.065  0.4861  0.0914 -0.4519
 1024YOPC   C3A14105   0.837  17.071   7.326 -0.2261 -0.0348  0.1577
 1024YOPC   C4A14106   1.070  16.824   7.497  0.0421 -0.0821 -0.1511
 1024YOPC   C1B14107   1.194  17.507   6.762  0.0067  0.5769 -0.2696
 1024YOPC   C2B14108   1.362  17.202   7.135 -0.2387 -0.0375 -0.2515
 1024YOPC   D3B14109   1.243  17.320   7.571 -0.2405 -0.4547  0.0268
 1024YOPC   C4B14110   1.136  17.373   7.986 -0.0724 -0.0816  0.1538
 1025YOPC   NC314111  11.513  18.961   5.054 -0.0326 -0.1530  0.0187
 1025YOPC   PO414112  11.409  18.991   5.572  0.1651  0.0760  0.3805
 1025YOPC   GL114113  11.232  19.003   5.964 -0.4711 -0.0658  0.1154
 1025YOPC   GL214114  11.138  19.279   6.064 -0.1772  0.2993  0.3275
 1025YOPC   C1A14115  11.510  18.944   6.307 -0.3422 -0.0587  0.1794
 1025YOPC   D2A14116  11.829  19.072   6.577  0.0349 -0.1255 -0.0533
 1025YOPC   C3A14117  12.314  18.979   6.640  0.3650  0.0971 -0.1769
 1025YOPC   C4A14118  12.661  18.848   6.823  0.5744  0.1190  0.1935
 1025YOPC   C1B14119  11.070  19.277   6.597 -0.1920 -0.1491  0.0101
 1025YOPC   C2B14120  11.003  19.320   7.135 -0.0948 -0.1176 -0.0748
 1025YOPC   D3B14121  10.729  19.106   7.396 -0.0801 -0.0275 -0.1611
 1025YOPC   C4B14122  10.326  19.137   7.534  0.2853  0.2648  0.0078
 1026YOPC   NC314123   0.119  11.383   5.375  0.1048 -0.0476  0.0013
 1026YOPC   PO414124  -0.114  11.070   5.581 -0.1361 -0.1985  0.0044
 1026YOPC   GL114125   0.050  10.949   5.942  0.0007 -0.1090 -0.2139
 1026YOPC   GL214126  -0.188  10.926   6.173 -0.0587  0.1867  0.0077
 1026YOPC   C1A14127   0.298  11.061   6.282  0.2372  0.2852 -0.2710
 1026YOPC   D2A14128   0.315  11.223   6.748  0.3596 -0.3391 -0.5351
 1026YOPC   C3A14129   0.171  11.521   6.860  0.1077 -0.1548  0.1181
 1026YOPC   C4A14130  -0.027  11.922   7.128 -0.1104  0.0148  0.1255
 1026YOPC   C1B14131  -0.122  11.072   6.608 -0.1516 -0.0908  0.0998
 1026YOPC   C2B14132  -0.187  11.205   7.030 -0.1132 -0.1279  0.0759
 1026YOPC   D3B14133  -0.308  11.456   7.286 -0.2015  0.1383 -0.0462
 1026YOPC   C4B14134  -0.493  11.485   7.724 -0.1192  0.1398  0.3977
 1027YOPC   NC314135  13.299  16.341   5.911  0.3931 -0.1426 -0.3470
 1027YOPC   PO414136  13.629  16.102   5.618 -0.2246 -0.0765  0.2140
 1027YOPC   GL114137  13.771  16.039   5.977  0.1350  0.3241  0.2409
 1027YOPC   GL214138  13.903  15.694   5.977  0.0991 -0.1741 -0.0821
 1027YOPC   C1A14139  13.949  15.912   6.418  0.2393 -0.1169  0.0126
 1027YOPC   D2A14140  13.800  15.682   6.749 -0.3109 -0.0954 -0.3534
 1027YOPC   C3A14141  13.752  15.896   7.035 -0.0859  0.2912  0.0053
 1027YOPC   C4A14142  13.792  16.136   7.420 -0.0319  0.3126  0.0503
 1027YOPC   C1B14143  14.126  15.380   6.138 -0.1826  0.1637 -0.3146
 1027YOPC   C2B14144  14.446  14.974   6.274  0.0826  0.1725  0.1199
 1027YOPC   D3B14145  14.245  14.635   6.463 -0.2843  0.2746 -0.2519
 1027YOPC   C4B14146  14.106  14.688   6.881 -0.0814 -0.0555  0.2295
 1028YOPC   NC314147  12.502   4.946   5.220 -0.4786 -0.1627 -0.0898
 1028YOPC   PO414148  12.168   4.994   5.523  0.2319 -0.1789  0.2494
 1028YOPC   GL114149  12.170   4.887   5.888  0.2664  0.1669 -0.0030
 1028YOPC   GL214150  11.837   4.957   6.030 -0.0470 -0.1583 -0.0664
 1028YOPC   C1A14151  12.213   5.035   6.331  0.0993 -0.0178 -0.0099
 1028YOPC   D2A14152  12.042   4.992   6.710 -0.1532 -0.0347  0.1008
 1028YOPC   C3A14153  11.750   5.295   6.891  0.2564 -0.2059 -0.1036
 1028YOPC   C4A14154  11.398   5.321   7.236 -0.1105 -0.0259  0.1802
 1028YOPC   C1B14155  11.693   5.124   6.351  0.3641 -0.2592 -0.1176
 1028YOPC   C2B14156  11.594   5.570   6.475  0.3661  0.0865  0.1245
 1028YOPC   D3B14157  11.612   5.798   6.881  0.0697 -0.2798 -0.1432
 1028YOPC   C4B14158  11.837   6.148   7.011 -0.0905 -0.0543 -0.1480
 1029YOPC   NC314159   4.072   1.888   5.488 -0.1289  0.0522 -0.2440
 1029YOPC   PO414160   3.576   2.022   5.382  0.0378 -0.4139  0.3012
 1029YOPC   GL114161   3.593   1.793   5.804 -0.1090 -0.0612 -0.2240
 1029YOPC   GL214162   3.874   1.946   5.950  0.0703  0.0045 -0.1974
 1029YOPC   C1A14163   3.432   1.776   6.214 -0.0192  0.0388  0.2925
 1029YOPC   D2A14164   3.404   1.940   6.636  0.0088  0.0433 -0.0608
 1029YOPC   C3A14165   3.533   1.725   7.106  0.0960  0.2565  0.1525
 1029YOPC   C4A14166   3.713   1.552   7.536 -0.1177  0.1280  0.1274
 1029YOPC   C1B14167   3.763   2.235   6.230 -0.1357 -0.0941  0.1525
 1029YOPC   C2B14168   3.779   2.295   6.633 -0.1695 -0.0936  0.2008
 1029YOPC   D3B14169   3.554   2.229   6.994 -0.2097  0.4254  0.0718
 1029YOPC   C4B14170   3.291   2.099   7.379 -0.2200  0.0492  0.2617
 1030YOPC   NC314171  14.544  16.839   5.609  0.2577  0.0386 -0.1083
 1030YOPC   PO414172  15.022  16.827   5.579  0.0103 -0.0892  0.0609
 1030YOPC   GL114173  14.900  16.560   5.941  0.0941 -0.0992  0.2011
 1030YOPC   GL214174  15.042  16.309   6.098  0.2763  0.1555  0.1549
 1030YOPC   C1A14175  14.615  16.700   6.217 -0.0593  0.5714  0.0678
 1030YOPC   D2A14176  14.627  16.937   6.631 -0.0434  0.1140 -0.1081
 1030YOPC   C3A14177  14.914  17.252   6.592 -0.1784  0.3076 -0.2448
 1030YOPC   C4A14178  14.895  17.662   6.598  0.0866 -0.1335  0.2102
 1030YOPC   C1B14179  14.827  16.203   6.380 -0.1125  0.1222  0.0869
 1030YOPC   C2B14180  14.725  15.925   6.757 -0.1185  0.2815  0.2098
 1030YOPC   D3B14181  14.263  15.941   7.060 -0.2873 -0.0630  0.2740
 1030YOPC   C4B14182  14.139  15.704   7.389  0.0588 -0.2917 -0.1861
 1031YOPC   NC314183   1.584  13.587   5.460  0.0621 -0.2421  0.1111
 1031YOPC   PO414184   1.309  13.308   5.578  0.1220 -0.0586 -0.2508
 1031YOPC   GL114185   1.391  13.480   5.938  0.1612  0.1919  0.1582
 1031YOPC   GL214186   1.722  13.577   5.915  0.0956  0.1613 -0.1358
 1031YOPC   C1A14187   1.453  13.286   6.324 -0.1210  0.0754 -0.0705
 1031YOPC   D2A14188   1.631  13.323   6.609  0.1242 -0.1342 -0.0151
 1031YOPC   C3A14189   1.425  13.504   6.924  0.3309 -0.3023 -0.2278
 1031YOPC   C4A14190   1.224  13.465   7.327 -0.0151 -0.5150  0.0337
 1031YOPC   C1B14191   2.190  13.522   6.068  0.2642  0.1142 -0.1109
 1031YOPC   C2B14192   2.414  13.939   6.251 -0.0910  0.1476 -0.1624
 1031YOPC   D3B14193   2.347  13.920   6.720  0.1421  0.1228  0.0348
 1031YOPC   C4B14194   2.421  13.583   6.926  0.2081  0.0336 -0.1695
 1032YOPC   NC314195  15.702  12.011   5.131 -0.2200  0.1822 -0.1950
 1032YOPC   PO414196  15.553  11.495   5.339  0.2272 -0.0447  0.1801
 1032YOPC   GL114197  15.403  11.569   5.708  0.0371 -0.1590 -0.2711
 1032YOPC   GL214198  15.090  11.768   5.811 -0.0354 -0.1810  0.1187
 1032YOPC   C1A14199  15.602  11.237   6.011 -0.4292 -0.2393 -0.0920
 1032YOPC   D2A14200  16.053  11.207   6.225  0.0115 -0.2799  0.0646
 1032YOPC   C3A14201  16.055  11.089   6.642 -0.0415 -0.0661 -0.3280
 1032YOPC   C4A14202  16.187  11.152   7.081  0.0704  0.2417 -0.0584
 1032YOPC   C1B14203  15.162  11.577   6.234 -0.1589  0.1560 -0.2006
 1032YOPC   C2B14204  15.362  11.673   6.686 -0.0381 -0.0001  0.2855
 1032YOPC   D3B14205  15.219  11.423   7.007 -0.0353 -0.0241 -0.2969
 1032YOPC   C4B14206  14.994  11.187   7.219 -0.0413  0.1988  0.0145
 1033YOPC   NC314207  10.008  11.344   5.264 -0.0512  0.1617 -0.1081
 1033YOPC   PO414208  10.082  11.813   5.230  0.1458  0.1636  0.1350
 1033YOPC   GL114209  10.104  11.838   5.638 -0.2075  0.1244  0.0273
 1033YOPC   GL214210  10.302  11.571   5.784  0.3063 -0.0723 -0.4051
 1033YOPC   C1A14211  10.163  12.209   6.012  0.1591  0.1714  0.2037
 1033YOPC   D2A14212  10.441  12.292   6.321  0.2331  0.0580 -0.0447
 1033YOPC   C3A14213  10.383  12.624   6.726 -0.1543 -0.1536 -0.0716
 1033YOPC   C4A14214  10.171  12.502   7.106 -0.0866  0.1700 -0.0265
 1033YOPC   C1B14215  10.286  11.662   6.167 -0.0877  0.0127  0.2340
 1033YOPC   C2B14216  10.166  11.846   6.595 -0.2035  0.0877  0.3696
 1033YOPC   D3B14217  10.457  12.167   6.823  0.1238 -0.2321  0.1511
 1033YOPC   C4B14218  10.660  12.461   7.126  0.1158  0.2257 -0.3369
 1034YOPC   NC314219   9.605   2.567   5.371  0.1633  0.0727 -0.0647
 1034YOPC   PO414220   9.785   2.921   5.324  0.1992  0.0006 -0.3002
 1034YOPC   GL114221   9.885   2.784   5.704  0.3932  0.1632  0.1266
 1034YOPC   GL214222   9.729   2.571   5.943 -0.1234  0.2602  0.1553
 1034YOPC   C1A14223  10.025   2.910   6.154 -0.0893 -0.0897 -0.2533
 1034YOPC   D2A14224  10.098   3.130   6.625 -0.0023 -0.0748  0.2048
 1034YOPC   C3A14225  10.033   2.885   7.047  0.0813 -0.2466  0.0132
 1034YOPC   C4A14226  10.023   2.885   7.389  0.1792 -0.2743 -0.3907
 1034YOPC   C1B14227   9.591   2.408   6.363  0.1319 -0.0350  0.1812
 1034YOPC   C2B14228   9.615   2.207   6.752 -0.0409 -0.0761  0.0804
 1034YOPC   D3B14229   9.362   2.203   7.126  0.0173  0.0808 -0.0593
 1034YOPC   C4B14230   9.217   2.420   7.423  0.0212 -0.0360 -0.2767
 1035YOPC   NC314231  17.275   2.002   5.448  0.2041 -0.1694 -0.0410
 1035YOPC   PO414232  16.918   2.269   5.712  0.1228 -0.0451  0.1818
 1035YOPC   GL114233  16.971   1.929   5.961 -0.2204 -0.1386 -0.3253
 1035YOPC   GL214234  17.368   1.962   5.963  0.0997 -0.0314 -0.3120
 1035YOPC   C1A14235  16.741   1.635   6.042 -0.1779 -0.0771  0.0642
 1035YOPC   D2A14236  16.391   1.417   6.224 -0.0539  0.0095  0.1424
 1035YOPC   C3A14237  16.111   1.597   6.511 -0.1561 -0.1998  0.2205
 1035YOPC   C4A14238  16.146   2.016   6.720  0.3366  0.3788 -0.0891
 1035YOPC   C1B14239  17.736   1.867   6.239  0.2756  0.1895  0.1604
 1035YOPC   C2B14240  18.013   1.989   6.615 -0.1589  0.0732  0.1974
 1035YOPC   D3B14241  17.833   2.314   6.739 -0.1173  0.0922  0.3547
 1035YOPC   C4B14242  17.894   2.577   7.087  0.3000 -0.3165 -0.2299
 1036YOPC   NC314243  11.305  13.674   5.275 -0.0980  0.0724 -0.3141
 1036YOPC   PO414244  11.206  13.331   5.525  0.0755  0.0148 -0.0816
 1036YOPC   GL114245  11.159  12.916   5.630 -0.0285  0.1326  0.0421
 1036YOPC   GL214246  10.959  12.937   5.853  0.3330  0.0876 -0.0701
 1036YOPC   C1A14247  11.123  12.455   5.630 -0.3182 -0.1072  0.2621
 1036YOPC   D2A14248  11.055  12.113   5.843  0.0472 -0.0974  0.1488
 1036YOPC   C3A14249  11.422  11.964   6.147  0.3364  0.0983 -0.0888
 1036YOPC   C4A14250  11.690  11.813   6.372  0.0428  0.0877  0.1788
 1036YOPC   C1B14251  11.202  12.993   6.164  0.0361  0.0136  0.1126
 1036YOPC   C2B14252  11.053  13.166   6.649  0.1618  0.5313 -0.1379
 1036YOPC   D3B14253  10.802  13.328   6.882 -0.0810 -0.0327  0.0320
 1036YOPC   C4B14254  10.599  13.579   6.572  0.2138 -0.2801 -0.1880
 1037YOPC   NC314255   5.969   4.817   4.714  0.3516  0.2047  0.0309
 1037YOPC   PO414256   6.115   4.891   5.155  0.2618  0.0676  0.1222
 1037YOPC   GL114257   6.075   4.909   5.590 -0.1453 -0.0931 -0.2585
 1037YOPC   GL214258   5.824   5.171   5.789  0.0781  0.0271  0.0419
 1037YOPC   C1A14259   6.315   4.950   5.982 -0.0948 -0.0231  0.0466
 1037YOPC   D2A14260   6.720   4.859   6.154 -0.0472  0.3702  0.5017
 1037YOPC   C3A14261   6.791   4.465   6.323 -0.2364  0.1812  0.0916
 1037YOPC   C4A14262   6.880   4.252   6.597 -0.3577  0.0581 -0.1678
 1037YOPC   C1B14263   5.872   4.744   6.018 -0.2563 -0.1611  0.0935
 1037YOPC   C2B14264   5.760   4.355   6.269  0.2330 -0.0753 -0.0271
 1037YOPC   D3B14265   5.899   4.358   6.662  0.1881  0.3138 -0.0432
 1037YOPC   C4B14266   6.349   4.142   6.715 -0.0201  0.2453  0.0286
 1038YOPC   NC314267   7.860  13.811   5.140  0.1211  0.0165  0.0658
 1038YOPC   PO414268   7.793  14.164   4.857  0.1416  0.1634  0.0893
 1038YOPC   GL114269   7.488  14.521   5.018  0.0567  0.1215  0.2585
 1038YOPC   GL214270   7.138  14.461   5.055 -0.0644 -0.0081 -0.1215
 1038YOPC   C1A14271   7.481  14.771   5.355  0.1462  0.0904 -0.3201
 1038YOPC   D2A14272   7.372  15.158   5.472  0.0315 -0.1232  0.2028
 1038YOPC   C3A14273   7.172  15.178   5.919 -0.1072  0.0253  0.0071
 1038YOPC   C4A14274   6.846  14.961   6.090 -0.1467  0.2622 -0.0474
 1038YOPC   C1B14275   6.921  14.338   5.326 -0.1692 -0.2694 -0.0980
 1038YOPC   C2B14276   6.839  14.104   5.678 -0.0821  0.3049  0.2014
 1038YOPC   D3B14277   7.025  13.631   5.819 -0.2295 -0.1540 -0.0666
 1038YOPC   C4B14278   7.089  13.284   5.986  0.2430  0.0091 -0.1304
 1039YOPC   NC314279   1.285   2.700   4.864 -0.3989  0.1285 -0.1361
 1039YOPC   PO414280   1.528   2.680   5.299  0.1141 -0.0721 -0.0823
 1039YOPC   GL114281   1.733   2.632   5.735 -0.3040  0.1458 -0.1442
 1039YOPC   GL214282   1.899   2.342   5.813  0.1072  0.2155 -0.0588
 1039YOPC   C1A14283   1.645   2.786   6.134  0.1169  0.0273 -0.2009
 1039YOPC   D2A14284   1.784   2.641   6.561  0.0760  0.3282  0.0371
 1039YOPC   C3A14285   1.932   2.769   6.896 -0.1411  0.1117 -0.0106
 1039YOPC   C4A14286   1.906   2.664   7.275  0.1051  0.1476  0.0379
 1039YOPC   C1B14287   2.079   2.486   6.155  0.0831  0.1427  0.0641
 1039YOPC   C2B14288   2.233   2.497   6.548 -0.1540 -0.0648 -0.2769
 1039YOPC   D3B14289   2.642   2.361   6.646  0.4797 -0.0739  0.3013
 1039YOPC   C4B14290   2.961   2.092   6.438  0.1343  0.1828 -0.2155
 1040YOPC   NC314291   2.545   1.490   4.802  0.0767 -0.3245  0.0658
 1040YOPC   PO414292   2.685   1.428   5.163 -0.1692  0.2674  0.0715
 1040YOPC   GL114293   2.827   1.383   5.504 -0.1336 -0.0248  0.0092
 1040YOPC   GL214294   2.619   1.679   5.681 -0.2499  0.0125  0.2599
 1040YOPC   C1A14295   3.078   1.339   5.794 -0.0303  0.1923 -0.2016
 1040YOPC   D2A14296   3.323   1.249   6.206  0.0274 -0.2507  0.3965
 1040YOPC   C3A14297   3.703   1.068   6.087  0.0134  0.0767 -0.0701
 1040YOPC   C4A14298   3.998   0.748   6.104  0.2948  0.2012 -0.0761
 1040YOPC   C1B14299   2.545   1.300   6.023  0.4933 -0.0805  0.2108
 1040YOPC   C2B14300   2.330   0.927   6.321 -0.1986 -0.1595  0.4278
 1040YOPC   D3B14301   2.275   0.807   6.782 -0.2205  0.2952 -0.1715
 1040YOPC   C4B14302   2.425   0.902   7.213  0.0203  0.0805  0.0753
 1041YOPC   NC314303  12.743   9.167   5.505 -0.3193  0.2818 -0.1323
 1041YOPC   PO414304  13.122   9.031   5.416  0.3522 -0.2229  0.0286
 1041YOPC   GL114305  13.160   8.917   5.818 -0.0807 -0.0617 -0.0990
 1041YOPC   GL214306  12.902   8.998   5.986  0.3069 -0.0270  0.0207
 1041YOPC   C1A14307  13.299   8.704   6.069  0.1294 -0.2790  0.3423
 1041YOPC   D2A14308  13.278   8.599   6.464 -0.4446  0.1928  0.1120
 1041YOPC   C3A14309  13.330   8.115   6.640 -0.0564 -0.0118 -0.0387
 1041YOPC   C4A14310  13.385   7.764   6.832 -0.2582 -0.1157 -0.1454
 1041YOPC   C1B14311  12.755   8.590   6.034  0.1202 -0.0499  0.3215
 1041YOPC   C2B14312  12.515   8.258   6.200 -0.0588 -0.0145 -0.1906
 1041YOPC   D3B14313  12.343   8.277   6.585  0.0685  0.3630 -0.1635
 1041YOPC   C4B14314  12.443   8.126   7.054  0.1947  0.0261 -0.1747
 1042YOPC   NC314315   4.350   3.693   5.350 -0.1604  0.2006 -0.0791
 1042YOPC   PO414316   4.662   3.947   5.123 -0.1112 -0.1929  0.1620
 1042YOPC   GL114317   4.739   4.036   5.555 -0.0856 -0.0656  0.0706
 1042YOPC   GL214318   4.664   3.938   5.861  0.2755  0.2372 -0.2077
 1042YOPC   C1A14319   5.034   4.497   5.632 -0.4585 -0.0514 -0.4570
 1042YOPC   D2A14320   4.848   4.840   5.735  0.0068  0.4515 -0.0830
 1042YOPC   C3A14321   5.055   5.125   6.159 -0.3800  0.2320  0.0332
 1042YOPC   C4A14322   5.179   5.402   6.561  0.3395  0.4122  0.0152
 1042YOPC   C1B14323   4.639   3.690   6.196  0.1763 -0.0711 -0.5760
 1042YOPC   C2B14324   4.553   3.735   6.629 -0.0482 -0.1283 -0.1114
 1042YOPC   D3B14325   4.999   3.676   6.877 -0.3811 -0.1874  0.1483
 1042YOPC   C4B14326   5.222   3.420   7.142 -0.0515 -0.0128 -0.3018
 1043YOPC   NC314327   6.521  10.289   5.061 -0.1803 -0.2432  0.3843
 1043YOPC   PO414328   6.970  10.413   5.068 -0.1963  0.1145 -0.0287
 1043YOPC   GL114329   7.024  10.826   5.302 -0.0200 -0.2432 -0.2225
 1043YOPC   GL214330   7.143  10.748   5.559 -0.1700  0.2876  0.2248
 1043YOPC   C1A14331   6.862  11.143   5.633 -0.1029  0.2027 -0.0978
 1043YOPC   D2A14332   6.811  11.152   6.029 -0.1968  0.0987 -0.0495
 1043YOPC   C3A14333   7.184  11.286   6.396 -0.1991  0.2843  0.2751
 1043YOPC   C4A14334   7.518  11.484   6.443 -0.1533 -0.3836 -0.3828
 1043YOPC   C1B14335   7.124  10.774   5.968 -0.2202  0.0904  0.1085
 1043YOPC   C2B14336   6.976  10.822   6.328 -0.4105  0.1229  0.0777
 1043YOPC   D3B14337   6.950  10.594   6.801  0.0101 -0.0856  0.2970
 1043YOPC   C4B14338   6.815  10.456   7.168 -0.1924  0.1137  0.2078
 1044YOPC   NC314339  10.395   2.083   5.600  0.0560  0.2925 -0.0022
 1044YOPC   PO414340   9.945   2.237   5.544 -0.0508 -0.0783  0.0492
 1044YOPC   GL114341   9.907   2.108   5.865  0.1051  0.1810  0.0497
 1044YOPC   GL214342   9.657   2.080   6.024  0.0819  0.0662  0.1261
 1044YOPC   C1A14343  10.066   2.232   6.318  0.0157 -0.0292  0.1591
 1044YOPC   D2A14344  10.053   2.606   6.593  0.0492  0.0904  0.4331
 1044YOPC   C3A14345  10.060   2.421   6.937  0.1053  0.0078 -0.1290
 1044YOPC   C4A14346   9.847   2.327   7.275  0.1521  0.2027  0.2066
 1044YOPC   C1B14347   9.743   1.834   6.383 -0.0512 -0.0824  0.2407
 1044YOPC   C2B14348  10.038   1.921   6.723 -0.3111  0.2083  0.1693
 1044YOPC   D3B14349  10.166   1.969   7.120  0.0617  0.0329 -0.0800
 1044YOPC   C4B14350  10.193   2.011   7.556  0.0024  0.0011  0.0837
 1045YOPC   NC314351  12.254  15.464   5.690  0.1967  0.2048  0.1731
 1045YOPC   PO414352  12.681  15.387   5.578  0.0930  0.0800  0.1048
 1045YOPC   GL114353  12.812  15.659   5.958  0.1806  0.4211  0.2068
 1045YOPC   GL214354  12.503  15.606   6.065 -0.1650 -0.2516 -0.0416
 1045YOPC   C1A14355  13.093  15.576   6.362  0.1166  0.0187  0.2247
 1045YOPC   D2A14356  13.337  15.486   6.729  0.2380  0.1652 -0.3193
 1045YOPC   C3A14357  13.317  15.582   7.058  0.0631 -0.0912  0.0749
 1045YOPC   C4A14358  13.597  15.393   7.257 -0.2371  0.1992 -0.1759
 1045YOPC   C1B14359  12.618  15.477   6.499  0.0152  0.1613  0.1737
 1045YOPC   C2B14360  12.498  15.189   6.781  0.1238 -0.0434 -0.2535
 1045YOPC   D3B14361  12.149  15.031   7.194  0.1915 -0.0144  0.1407
 1045YOPC   C4B14362  11.770  15.077   7.467  0.1056 -0.0206 -0.1735
 1046YOPC   NC314363   2.951  18.218   5.156 -0.4893  0.2258  0.1694
 1046YOPC   PO414364   3.190  18.387   5.054  0.2783  0.4536 -0.0062
 1046YOPC   GL114365   3.298  18.330   5.509 -0.0093 -0.0064  0.4218
 1046YOPC   GL214366   3.337  18.731   5.623 -0.1001  0.0821 -0.1698
 1046YOPC   C1A14367   3.509  18.250   5.974 -0.5639  0.2609  0.2237
 1046YOPC   D2A14368   3.475  18.063   6.312  0.0126 -0.1435 -0.2260
 1046YOPC   C3A14369   3.494  18.135   6.732  0.2841  0.0721  0.0361
 1046YOPC   C4A14370   3.700  18.053   7.060 -0.2949 -0.0856 -0.0587
 1046YOPC   C1B14371   3.600  18.709   6.003 -0.0318 -0.4315  0.1194
 1046YOPC   C2B14372   3.630  18.963   6.401  0.1671  0.2505 -0.3675
 1046YOPC   D3B14373   3.514  18.908   6.806  0.2028 -0.1219 -0.0801
 1046YOPC   C4B14374   3.602  18.563   7.107 -0.1609  0.0961 -0.3398
 1047YOPC   NC314375   1.381  16.299   5.034  0.2011 -0.4208  0.4813
 1047YOPC   PO414376   1.680  16.420   5.253 -0.1782  0.1444  0.0756
 1047YOPC   GL114377   1.844  16.399   5.663  0.0633  0.0281  0.3473
 1047YOPC   GL214378   2.162  16.334   5.649 -0.0993 -0.0569 -0.1620
 1047YOPC   C1A14379   1.891  16.399   6.116  0.3238 -0.0779 -0.0384
 1047YOPC   D2A14380   2.065  16.349   6.430 -0.1482  0.2331  0.0158
 1047YOPC   C3A14381   1.983  16.496   6.776 -0.1636 -0.1173  0.2938
 1047YOPC   C4A14382   1.985  16.568   7.156 -0.0794 -0.0894  0.2741
 1047YOPC   C1B14383   2.256  16.048   5.997  0.2904  0.1571 -0.0011
 1047YOPC   C2B14384   2.477  16.042   6.480  0.0262  0.2008  0.0174
 1047YOPC   D3B14385   2.227  16.024   6.780  0.3872 -0.4349  0.4292
 1047YOPC   C4B14386   2.111  15.900   7.176 -0.0635  0.0386  0.1518
 1048YOPC   NC314387   4.462  18.564   5.283 -0.0751  0.0976  0.0596
 1048YOPC   PO414388   4.231  19.051   5.260 -0.2882 -0.2257 -0.0727
 1048YOPC   GL114389   4.369  19.048   5.642  0.2244  0.3567  0.4310
 1048YOPC   GL214390   4.479  19.371   5.763  0.1401 -0.0953 -0.0842
 1048YOPC   C1A14391   4.581  19.103   6.171  0.0229 -0.0312 -0.1008
 1048YOPC   D2A14392   4.927  19.189   6.337  0.1852  0.2671 -0.2337
 1048YOPC   C3A14393   5.276  19.198   6.065 -0.2474  0.1403  0.2223
 1048YOPC   C4A14394   5.350  19.046   5.698  0.1915  0.2321  0.2321
 1048YOPC   C1B14395   4.099  19.275   6.100 -0.1340  0.0440 -0.1273
 1048YOPC   C2B14396   3.810  19.402   6.435  0.1284  0.1070 -0.0427
 1048YOPC   D3B14397   3.855  19.764   6.590  0.1115 -0.3597  0.0599
 1048YOPC   C4B14398   3.781  19.985   6.865  0.1129  0.1035 -0.0502
 1049YOPC   NC314399   2.326   1.745   5.267 -0.1058  0.2691  0.0543
 1049YOPC   PO414400   2.789   1.972   5.227 -0.3656  0.0265 -0.2977
 1049YOPC   GL114401   2.997   2.148   5.601  0.0105 -0.0032 -0.1421
 1049YOPC   GL214402   3.135   1.966   5.760 -0.1740 -0.5319 -0.0433
 1049YOPC   C1A14403   2.750   2.233   6.003 -0.0384  0.0488 -0.2222
 1049YOPC   D2A14404   2.547   2.566   6.117  0.2545 -0.2104  0.0884
 1049YOPC   C3A14405   2.655   2.815   6.516  0.2354  0.0275  0.0270
 1049YOPC   C4A14406   2.426   2.927   6.937 -0.0020  0.1146  0.2715
 1049YOPC   C1B14407   3.399   2.275   5.958 -0.1150 -0.0476  0.0813
 1049YOPC   C2B14408   3.488   2.692   6.342  0.0080  0.1920  0.3350
 1049YOPC   D3B14409   3.201   2.983   6.562  0.2606  0.4092  0.1729
 1049YOPC   C4B14410   3.050   2.981   6.890  0.1551 -0.2913 -0.2861
 1050YOPC   NC314411   5.370  14.269   5.062 -0.1652 -0.0853  0.3389
 1050YOPC   PO414412   5.117  13.848   5.213  0.2325 -0.0904 -0.4029
 1050YOPC   GL114413   5.312  14.056   5.526 -0.0983  0.1825  0.3989
 1050YOPC   GL214414   5.155  14.038   5.833 -0.1566 -0.0757 -0.0448
 1050YOPC   C1A14415   5.560  14.309   5.865  0.1057 -0.0353 -0.1903
 1050YOPC   D2A14416   5.690  14.336   6.284  0.2169  0.0071  0.1620
 1050YOPC   C3A14417   5.889  14.082   6.586 -0.0107 -0.0431  0.1300
 1050YOPC   C4A14418   6.029  14.072   7.019 -0.4922  0.1239 -0.4462
 1050YOPC   C1B14419   5.246  14.190   6.240  0.0586  0.1394  0.3092
 1050YOPC   C2B14420   4.987  14.345   6.620  0.0279  0.3268  0.0567
 1050YOPC   D3B14421   5.059  14.549   7.002  0.1148 -0.0700 -0.1918
 1050YOPC   C4B14422   5.039  14.810   7.403  0.2182 -0.0055 -0.0787
 1051YOPC   NC314423  16.013  12.954   5.552 -0.1385  0.1117 -0.0951
 1051YOPC   PO414424  15.842  12.475   5.564  0.1668  0.3432  0.2862
 1051YOPC   GL114425  15.788  12.381   5.990 -0.0450  0.1653  0.0004
 1051YOPC   GL214426  16.102  12.181   6.163  0.0177  0.0602 -0.0928
 1051YOPC   C1A14427  15.667  12.514   6.467  0.0756 -0.0998  0.3213
 1051YOPC   D2A14428  15.619  12.355   6.852 -0.0177 -0.4537  0.0959
 1051YOPC   C3A14429  15.544  12.604   7.193 -0.0105  0.2084  0.1084
 1051YOPC   C4A14430  15.719  12.875   7.459  0.3886 -0.2902 -0.0041
 1051YOPC   C1B14431  15.906  12.077   6.438 -0.0663 -0.3034 -0.0618
 1051YOPC   C2B14432  15.765  11.906   6.897  0.1691  0.4147 -0.0552
 1051YOPC   D3B14433  15.821  12.130   7.251 -0.1059 -0.4154 -0.1558
 1051YOPC   C4B14434  15.581  12.060   7.630  0.0932  0.1376 -0.2094
 1052YOPC   NC314435  12.111  10.049   5.356 -0.0789  0.1857 -0.0304
 1052YOPC   PO414436  12.534  10.222   5.511  0.0538  0.0574  0.0669
 1052YOPC   GL114437  12.415  10.137   5.888 -0.1779 -0.0144  0.1500
 1052YOPC   GL214438  12.248   9.835   5.831 -0.0956 -0.5280  0.2751
 1052YOPC   C1A14439  12.308  10.228   6.258 -0.0205 -0.3627  0.1773
 1052YOPC   D2A14440  12.378  10.494   6.590  0.1688 -0.3263 -0.0184
 1052YOPC   C3A14441  12.534  10.373   6.958 -0.1902  0.0896  0.0714
 1052YOPC   C4A14442  12.576  10.255   7.361 -0.1763  0.2714  0.0443
 1052YOPC   C1B14443  12.355   9.778   6.256  0.1247  0.0202 -0.2222
 1052YOPC   C2B14444  12.155   9.380   6.405 -0.1619  0.2183 -0.0105
 1052YOPC   D3B14445  12.035   9.471   6.870  0.3183 -0.0830 -0.0912
 1052YOPC   C4B14446  11.894   9.396   7.309 -0.2792 -0.2158 -0.0721
 1053YOPC   NC314447  11.251  18.569   5.719  0.0839  0.2436  0.3363
 1053YOPC   PO414448  11.414  18.046   5.827 -0.0606  0.1899  0.3944
 1053YOPC   GL114449  11.533  17.755   6.042 -0.5065 -0.0500  0.0168
 1053YOPC   GL214450  11.550  17.484   5.951  0.1985 -0.4917  0.0585
 1053YOPC   C1A14451  11.675  17.566   6.558  0.2708  0.0797 -0.2919
 1053YOPC   D2A14452  11.555  17.530   6.958  0.0451  0.5261  0.0408
 1053YOPC   C3A14453  11.601  17.256   7.283 -0.0410 -0.0821 -0.1811
 1053YOPC   C4A14454  11.897  16.999   7.530 -0.0655  0.1968  0.1101
 1053YOPC   C1B14455  12.033  17.428   6.131  0.1859 -0.0974 -0.1889
 1053YOPC   C2B14456  12.581  17.562   6.140  0.0161 -0.0481 -0.0459
 1053YOPC   D3B14457  12.556  17.961   6.452 -0.0617  0.1989 -0.2999
 1053YOPC   C4B14458  12.525  17.937   6.930  0.0839  0.0601 -0.0034
 1054YOPC   NC314459  17.678  16.177   5.417 -0.0278  0.1415  0.1161
 1054YOPC   PO414460  17.774  16.103   5.823 -0.3667  0.2303  0.0194
 1054YOPC   GL114461  17.826  16.031   6.232 -0.0497 -0.1449 -0.2193
 1054YOPC   GL214462  18.179  16.035   6.447  0.0080 -0.3189 -0.1709
 1054YOPC   C1A14463  17.495  16.206   6.524  0.2198 -0.0922 -0.1550
 1054YOPC   D2A14464  17.203  16.474   6.919 -0.0765 -0.2572  0.0736
 1054YOPC   C3A14465  16.886  16.194   7.081  0.4962  0.3561  0.0816
 1054YOPC   C4A14466  16.542  15.951   6.932 -0.1821 -0.2076 -0.1713
 1054YOPC   C1B14467  17.896  15.887   6.825 -0.0731 -0.0322  0.2580
 1054YOPC   C2B14468  18.050  15.977   7.225 -0.0757  0.1913 -0.1815
 1054YOPC   D3B14469  17.752  15.890   7.695 -0.0898  0.0374 -0.0042
 1054YOPC   C4B14470  17.908  15.573   7.923  0.0239 -0.2003 -0.1669
 1055YOPC   NC314471   9.516   0.389   5.456  0.1555  0.0131 -0.3509
 1055YOPC   PO414472   9.704   0.832   5.546 -0.2250  0.2573 -0.1096
 1055YOPC   GL114473   9.309   0.664   5.856  0.0305  0.0844 -0.1613
 1055YOPC   GL214474   9.351   0.305   5.950  0.1742  0.1369 -0.0321
 1055YOPC   C1A14475   9.247   0.871   6.301  0.3266  0.0129 -0.2514
 1055YOPC   D2A14476   9.233   0.967   6.649  0.3526  0.1432  0.0226
 1055YOPC   C3A14477   9.384   1.278   6.967 -0.0502 -0.4355 -0.2433
 1055YOPC   C4A14478   9.595   1.643   6.856  0.3523  0.0771 -0.1101
 1055YOPC   C1B14479   9.167   0.386   6.287  0.0996 -0.0092  0.0631
 1055YOPC   C2B14480   9.191   0.494   6.628 -0.1210  0.5363  0.0389
 1055YOPC   D3B14481   9.019   0.169   6.842 -0.2745  0.1102  0.3070
 1055YOPC   C4B14482   8.775  -0.035   7.101  0.0037 -0.5339  0.2900
 1056YOPC   NC314483   4.240  11.357   5.291 -0.0032 -0.2490 -0.2154
 1056YOPC   PO414484   4.500  11.699   5.170  0.3189 -0.0479  0.1039
 1056YOPC   GL114485   4.381  11.782   5.513  0.3237 -0.3119 -0.0349
 1056YOPC   GL214486   4.559  12.076   5.633 -0.1895 -0.2682 -0.0503
 1056YOPC   C1A14487   4.347  11.885   5.988  0.0528 -0.3752  0.2198
 1056YOPC   D2A14488   4.319  11.748   6.383 -0.0105  0.0845 -0.0443
 1056YOPC   C3A14489   4.321  11.555   6.816 -0.1164  0.0495 -0.3595
 1056YOPC   C4A14490   4.148  11.380   7.182  0.0101 -0.1409  0.1591
 1056YOPC   C1B14491   4.778  12.141   6.025 -0.3742 -0.0759  0.0266
 1056YOPC   C2B14492   4.788  11.885   6.385 -0.0053  0.0627 -0.1703
 1056YOPC   D3B14493   4.732  11.881   6.770 -0.0303  0.1387 -0.2524
 1056YOPC   C4B14494   4.895  11.955   7.181  0.0062 -0.0228 -0.1703
 1057YOPC   NC314495   6.467  17.924   5.286 -0.0726  0.2861  0.2728
 1057YOPC   PO414496   6.873  18.069   5.108  0.1566 -0.2179 -0.0165
 1057YOPC   GL114497   7.149  18.255   5.485 -0.0321 -0.0225  0.2435
 1057YOPC   GL214498   7.426  18.432   5.470  0.0351 -0.1107  0.0499
 1057YOPC   C1A14499   6.892  18.442   5.844 -0.2617  0.2163 -0.1045
 1057YOPC   D2A14500   6.863  18.478   6.311 -0.2524  0.0576 -0.0747
 1057YOPC   C3A14501   6.819  18.648   6.781  0.0839 -0.1971  0.1167
 1057YOPC   C4A14502   6.808  18.620   7.214 -0.1616 -0.0559  0.1164
 1057YOPC   C1B14503   7.377  18.434   5.859 -0.2380 -0.0728  0.2350
 1057YOPC   C2B14504   7.380  18.460   6.344 -0.1733  0.1662 -0.0632
 1057YOPC   D3B14505   7.289  18.743   6.624  0.0824  0.5462 -0.0933
 1057YOPC   C4B14506   7.224  19.120   6.924  0.3348  0.1528  0.1193
 1058YOPC   NC314507  17.370   7.313   5.607 -0.0527 -0.3047 -0.4840
 1058YOPC   PO414508  16.979   7.118   5.650 -0.0045 -0.0093 -0.1979
 1058YOPC   GL114509  16.998   7.472   5.999  0.1287 -0.2705  0.1841
 1058YOPC   GL214510  16.995   7.311   6.359  0.1116 -0.2776  0.0373
 1058YOPC   C1A14511  16.937   7.767   6.334  0.0813  0.3146 -0.1800
 1058YOPC   D2A14512  17.288   7.904   6.566  0.1881 -0.0618  0.2137
 1058YOPC   C3A14513  17.016   7.953   6.966 -0.0095  0.3439  0.1286
 1058YOPC   C4A14514  16.795   7.892   7.341  0.0856  0.1135 -0.0950
 1058YOPC   C1B14515  17.012   7.486   6.793 -0.2810  0.0693  0.0309
 1058YOPC   C2B14516  17.316   7.542   7.126  0.1205 -0.1509 -0.0988
 1058YOPC   D3B14517  17.291   7.776   7.393 -0.0568  0.0331  0.0382
 1058YOPC   C4B14518  17.236   7.925   7.835  0.0220  0.0111 -0.0613
 1059YOPC   NC314519  18.756   0.645   5.357 -0.2778 -0.1499  0.1658
 1059YOPC   PO414520  18.420   0.868   5.539  0.2492 -0.2066  0.2375
 1059YOPC   GL114521  18.310   1.071   5.906  0.2380  0.0074 -0.1705
 1059YOPC   GL214522  18.029   1.071   5.982 -0.2221 -0.1007 -0.0355
 1059YOPC   C1A14523  18.531   1.418   6.180  0.1056 -0.1346 -0.0483
 1059YOPC   D2A14524  18.595   1.465   6.649  0.2088  0.3149 -0.1293
 1059YOPC   C3A14525  18.259   1.487   6.978 -0.0398 -0.0615 -0.2841
 1059YOPC   C4A14526  18.349   1.771   7.416 -0.0599 -0.5256  0.2895
 1059YOPC   C1B14527  17.906   0.861   6.333  0.0088 -0.4556  0.0185
 1059YOPC   C2B14528  17.553   0.724   6.440 -0.0346  0.2081  0.1124
 1059YOPC   D3B14529  17.603   0.713   6.874 -0.0157 -0.0816 -0.2368
 1059YOPC   C4B14530  17.437   0.564   7.135  0.1681 -0.0060  0.0547
 1060YOPC   NC314531   3.899   7.696   4.922 -0.0156 -0.0991  0.0291
 1060YOPC   PO414532   4.211   7.707   5.250 -0.0154 -0.2471 -0.2254
 1060YOPC   GL114533   4.165   7.887   5.732  0.0840 -0.0276  0.1946
 1060YOPC   GL214534   4.170   8.192   5.775  0.1774 -0.3041 -0.4607
 1060YOPC   C1A14535   4.329   7.875   6.248  0.0771 -0.0811  0.0925
 1060YOPC   D2A14536   4.557   8.012   6.586 -0.0146 -0.0769 -0.1741
 1060YOPC   C3A14537   4.378   8.180   7.011  0.2196  0.3984 -0.0237
 1060YOPC   C4A14538   4.417   8.561   7.304 -0.0869 -0.0359  0.0819
 1060YOPC   C1B14539   4.174   8.355   6.228  0.2507  0.2850 -0.0666
 1060YOPC   C2B14540   4.199   8.511   6.640  0.2461 -0.2673 -0.1565
 1060YOPC   D3B14541   3.983   8.446   7.074 -0.2775 -0.0015  0.2218
 1060YOPC   C4B14542   3.908   8.581   7.504 -0.0300 -0.1845 -0.0537
 1061YOPC   NC314543   8.049   6.756   4.865 -0.0260 -0.1970 -0.2970
 1061YOPC   PO414544   8.437   6.440   5.066 -0.3563  0.0326 -0.1458
 1061YOPC   GL114545   8.556   6.261   5.500 -0.1093 -0.1236  0.0028
 1061YOPC   GL214546   8.701   5.947   5.563 -0.0242 -0.0684  0.0978
 1061YOPC   C1A14547   8.342   6.246   5.897 -0.2748 -0.1289 -0.0206
 1061YOPC   D2A14548   8.397   6.192   6.440  0.0986  0.0501 -0.1569
 1061YOPC   C3A14549   8.437   5.918   6.688 -0.0672 -0.0289  0.2090
 1061YOPC   C4A14550   8.507   5.547   6.965 -0.1254 -0.1921  0.5100
 1061YOPC   C1B14551   8.951   6.255   5.809 -0.0555  0.0545 -0.0536
 1061YOPC   C2B14552   9.189   6.687   5.885  0.2830  0.0476  0.1981
 1061YOPC   D3B14553   8.920   7.009   6.053  0.2945  0.0251 -0.4997
 1061YOPC   C4B14554   8.803   6.938   6.504  0.4307 -0.0358 -0.0802
 1062YOPC   NC314555   3.963  10.601   4.628 -0.4167  0.0051  0.1175
 1062YOPC   PO414556   4.315  10.571   5.017  0.1216  0.1218  0.1710
 1062YOPC   GL114557   4.325  10.882   5.314 -0.2692 -0.0009 -0.2586
 1062YOPC   GL214558   3.996  10.929   5.469 -0.2533 -0.2558 -0.0178
 1062YOPC   C1A14559   4.583  10.905   5.699  0.0427  0.0400  0.0004
 1062YOPC   D2A14560   4.792  10.830   6.084  0.0501 -0.0668 -0.2089
 1062YOPC   C3A14561   4.700  10.520   6.316 -0.1319 -0.1117 -0.3792
 1062YOPC   C4A14562   4.894  10.250   6.602 -0.1591  0.0000  0.1400
 1062YOPC   C1B14563   4.238  10.558   5.721 -0.2018  0.1391 -0.1372
 1062YOPC   C2B14564   4.165  10.291   6.150 -0.2443 -0.0680  0.0669
 1062YOPC   D3B14565   3.822  10.181   6.339  0.1906 -0.0496 -0.2082
 1062YOPC   C4B14566   3.880  10.113   6.750 -0.0356 -0.2391 -0.0856
 1063YOPC   NC314567   1.040   8.221   5.123  0.3155  0.1686 -0.0030
 1063YOPC   PO414568   1.092   8.539   5.480 -0.4970 -0.0075  0.0435
 1063YOPC   GL114569   0.900   8.723   5.891  0.1875  0.0971 -0.0706
 1063YOPC   GL214570   0.557   8.614   5.991  0.1828 -0.0993  0.0290
 1063YOPC   C1A14571   1.013   8.786   6.369  0.2521 -0.1787  0.2075
 1063YOPC   D2A14572   1.121   8.969   6.809  0.2373 -0.2622  0.1013
 1063YOPC   C3A14573   0.850   9.088   7.094  0.1261 -0.3254  0.0178
 1063YOPC   C4A14574   0.502   9.345   7.109  0.1212 -0.1795  0.2070
 1063YOPC   C1B14575   0.514   8.858   6.374 -0.0422  0.0212 -0.0262
 1063YOPC   C2B14576   0.649   9.146   6.626  0.3404 -0.3732 -0.2753
 1063YOPC   D3B14577   0.907   9.415   6.552  0.1324  0.2701  0.0663
 1063YOPC   C4B14578   0.950   9.660   6.212  0.3383 -0.0935  0.0831
 1064YOPC   NC314579  17.639   9.504   5.396  0.0018  0.0949 -0.0961
 1064YOPC   PO414580  17.563   9.101   5.476 -0.1632  0.0995  0.0894
 1064YOPC   GL114581  17.578   8.896   5.869 -0.1297  0.1145  0.0839
 1064YOPC   GL214582  17.848   8.847   6.061  0.0771  0.2007  0.0030
 1064YOPC   C1A14583  17.402   8.741   6.307 -0.2769  0.1613 -0.0621
 1064YOPC   D2A14584  16.970   8.657   6.432 -0.0940  0.1468  0.0182
 1064YOPC   C3A14585  16.812   8.290   6.489 -0.1052  0.0911 -0.1380
 1064YOPC   C4A14586  16.625   7.853   6.663  0.1429  0.0149  0.1741
 1064YOPC   C1B14587  18.147   8.760   6.453  0.1752 -0.2428 -0.3002
 1064YOPC   C2B14588  18.576   8.595   6.323  0.3068  0.5758  0.0491
 1064YOPC   D3B14589  18.787   8.710   6.641 -0.4331 -0.2127  0.2193
 1064YOPC   C4B14590  18.768   8.971   6.973 -0.3131  0.0968  0.0141
 1065YOPC   NC314591  14.167  11.462   5.722 -0.0213  0.0170  0.0065
 1065YOPC   PO414592  13.707  11.372   5.664 -0.2343 -0.3051 -0.0612
 1065YOPC   GL114593  13.773  11.521   6.058  0.0882  0.0717 -0.1326
 1065YOPC   GL214594  13.930  11.418   6.294  0.1374  0.1458 -0.0059
 1065YOPC   C1A14595  13.862  11.937   6.447 -0.1629  0.0483  0.1136
 1065YOPC   D2A14596  14.143  12.195   6.709 -0.0826  0.3644  0.1454
 1065YOPC   C3A14597  14.101  11.953   7.095  0.3254 -0.0961  0.0464
 1065YOPC   C4A14598  14.213  11.760   7.472  0.2006 -0.1777  0.2740
 1065YOPC   C1B14599  13.866  11.510   6.710  0.2902 -0.1181 -0.3311
 1065YOPC   C2B14600  13.646  11.459   7.124  0.1148  0.1287  0.0235
 1065YOPC   D3B14601  13.807  11.464   7.517 -0.1917 -0.1266 -0.0128
 1065YOPC   C4B14602  13.815  11.327   7.872 -0.1349 -0.2137 -0.1046
 1066YOPC   NC314603  17.030   4.600   5.682 -0.3308 -0.2567  0.1264
 1066YOPC   PO414604  17.469   4.582   5.885 -0.0457 -0.0803  0.1277
 1066YOPC   GL114605  17.484   4.790   6.320  0.0419 -0.2422  0.0333
 1066YOPC   GL214606  17.538   4.518   6.402 -0.3658  0.2027 -0.0741
 1066YOPC   C1A14607  17.616   4.929   6.726  0.4584  0.1735  0.1419
 1066YOPC   D2A14608  17.901   5.162   6.842  0.2198  0.0497  0.1838
 1066YOPC   C3A14609  17.909   5.237   7.273 -0.1092  0.2422 -0.1290
 1066YOPC   C4A14610  18.121   5.131   7.635 -0.2917 -0.0617 -0.2554
 1066YOPC   C1B14611  17.738   4.087   6.610  0.2027  0.0215  0.4177
 1066YOPC   C2B14612  17.619   3.826   6.953  0.1817 -0.0291 -0.2188
 1066YOPC   D3B14613  17.698   3.536   7.049 -0.2504  0.2649 -0.2597
 1066YOPC   C4B14614  17.856   3.157   6.943  0.1388  0.0718 -0.0548
 1067YOPC   NC314615  16.174  10.758   5.924 -0.0952  0.0942 -0.2219
 1067YOPC   PO414616  16.173  10.353   5.901  0.1731  0.0486  0.0304
 1067YOPC   GL114617  16.279  10.492   6.345 -0.1714  0.2601  0.4271
 1067YOPC   GL214618  16.496  10.604   6.229  0.1281  0.1043  0.1385
 1067YOPC   C1A14619  16.155  10.637   6.746  0.0815  0.0933 -0.0710
 1067YOPC   D2A14620  15.965  10.606   7.155  0.2177 -0.1278  0.1425
 1067YOPC   C3A14621  16.083  10.864   7.475  0.0923 -0.0095  0.2848
 1067YOPC   C4A14622  15.882  11.163   7.748 -0.0966 -0.1292 -0.3889
 1067YOPC   C1B14623  16.819  10.476   6.336  0.0536  0.0727  0.1195
 1067YOPC   C2B14624  16.937  10.485   6.726 -0.0695  0.1230 -0.1241
 1067YOPC   D3B14625  16.837  10.208   6.970  0.0225 -0.0594  0.1464
 1067YOPC   C4B14626  16.980  10.135   7.282  0.1335 -0.2876 -0.0967
 1068YOPC   NC314627  11.903  14.854   5.306 -0.2220  0.0807 -0.0662
 1068YOPC   PO414628  11.878  15.081   5.659  0.2925  0.0488  0.0836
 1068YOPC   GL114629  11.667  14.954   6.024  0.1983 -0.0977 -0.0590
 1068YOPC   GL214630  11.747  14.738   6.111  0.1400  0.2683  0.3480
 1068YOPC   C1A14631  11.625  15.109   6.488 -0.2215  0.2335 -0.0452
 1068YOPC   D2A14632  11.369  15.285   6.789  0.0558  0.4025 -0.1750
 1068YOPC   C3A14633  11.437  15.400   7.098 -0.2418  0.3815  0.0489
 1068YOPC   C4A14634  11.299  15.572   7.418  0.3325 -0.0036  0.1523
 1068YOPC   C1B14635  12.035  14.701   6.457 -0.0462  0.2614  0.2896
 1068YOPC   C2B14636  12.177  14.797   6.763 -0.0355  0.1090 -0.0820
 1068YOPC   D3B14637  12.213  14.467   7.116  0.4184 -0.1237 -0.0104
 1068YOPC   C4B14638  12.075  14.192   7.532 -0.0070 -0.0332  0.1746
 1069YOPC   NC314639   9.714  13.246   5.220 -0.4812 -0.0450  0.1912
 1069YOPC   PO414640   9.467  12.953   5.322 -0.1537 -0.0501 -0.0737
 1069YOPC   GL114641   9.696  12.782   5.718  0.0115  0.0279  0.2627
 1069YOPC   GL214642   9.863  12.487   5.642  0.0726  0.1409 -0.2078
 1069YOPC   C1A14643   9.874  13.116   6.126  0.1928 -0.0003 -0.1015
 1069YOPC   D2A14644   9.867  13.046   6.581 -0.0201 -0.1243 -0.1591
 1069YOPC   C3A14645   9.700  12.692   6.877  0.1531 -0.0323  0.2558
 1069YOPC   C4A14646   9.351  12.461   7.092  0.2398  0.1134 -0.0022
 1069YOPC   C1B14647   9.651  12.449   6.123 -0.1310 -0.1355  0.1693
 1069YOPC   C2B14648   9.464  12.282   6.557 -0.0452  0.0140 -0.1600
 1069YOPC   D3B14649   9.065  12.379   6.702  0.1275 -0.0502  0.0612
 1069YOPC   C4B14650   8.655  12.551   6.635  0.1059 -0.1702  0.1816
 1070YOPC   NC314651  13.456   2.767   5.855 -0.0694  0.0311 -0.3897
 1070YOPC   PO414652  13.685   3.168   5.865  0.0304  0.0855  0.2866
 1070YOPC   GL114653  13.818   3.170   6.294 -0.1994  0.2636  0.1400
 1070YOPC   GL214654  13.578   2.996   6.382  0.1028 -0.2866 -0.2668
 1070YOPC   C1A14655  13.856   3.266   6.677  0.0208 -0.1691  0.0233
 1070YOPC   D2A14656  14.010   3.350   7.007  0.1941 -0.1894  0.0497
 1070YOPC   C3A14657  14.396   3.391   7.104 -0.2007 -0.0435  0.0374
 1070YOPC   C4A14658  14.783   3.546   6.954 -0.0742  0.0077  0.2066
 1070YOPC   C1B14659  13.431   2.788   6.668 -0.0927  0.0646  0.2024
 1070YOPC   C2B14660  13.137   2.825   7.010 -0.2862 -0.2912  0.0579
 1070YOPC   D3B14661  13.384   3.093   7.340 -0.2435  0.1299 -0.0114
 1070YOPC   C4B14662  13.855   3.075   7.395  0.0390 -0.1179  0.0522
 1071YOPC   NC314663   9.501   4.809   4.554 -0.2483  0.0181  0.2521
 1071YOPC   PO414664   9.615   4.827   4.966 -0.2179  0.2485  0.2372
 1071YOPC   GL114665   9.557   4.746   5.404  0.0435 -0.2055  0.1376
 1071YOPC   GL214666   9.668   4.989   5.638 -0.0746  0.1747  0.1752
 1071YOPC   C1A14667   9.503   4.493   5.736 -0.1748  0.1760  0.1479
 1071YOPC   D2A14668   9.218   4.614   6.076  0.2463 -0.0426 -0.1994
 1071YOPC   C3A14669   9.197   4.465   6.573 -0.1017  0.0115  0.0608
 1071YOPC   C4A14670   9.146   4.118   6.865  0.1248  0.0349 -0.3439
 1071YOPC   C1B14671   9.302   5.105   5.895  0.5550 -0.0208 -0.3545
 1071YOPC   C2B14672   9.240   5.400   6.266 -0.5742  0.0506 -0.1804
 1071YOPC   D3B14673   9.629   5.492   6.542 -0.3805 -0.1212  0.0745
 1071YOPC   C4B14674   9.607   5.272   7.052  0.0552 -0.2510  0.1279
 1072YOPC   NC314675   4.658  13.592   5.207 -0.0618  0.1268  0.1131
 1072YOPC   PO414676   4.194  13.708   5.094  0.0160  0.3422 -0.1057
 1072YOPC   GL114677   4.211  13.479   5.498 -0.1474  0.0488  0.0016
 1072YOPC   GL214678   3.903  13.621   5.559 -0.1038 -0.1312  0.1411
 1072YOPC   C1A14679   4.466  13.516   5.928  0.2604 -0.1581  0.2025
 1072YOPC   D2A14680   4.652  13.553   6.296  0.1945 -0.3537 -0.3909
 1072YOPC   C3A14681   4.436  13.773   6.575 -0.2942  0.0735 -0.0434
 1072YOPC   C4A14682   4.204  14.123   6.690  0.1264  0.3152 -0.2026
 1072YOPC   C1B14683   3.968  13.587   5.992  0.0492  0.1978  0.3053
 1072YOPC   C2B14684   4.102  13.371   6.413  0.0171  0.0394  0.3226
 1072YOPC   D3B14685   3.882  13.213   6.729  0.1262 -0.0177  0.0245
 1072YOPC   C4B14686   3.530  12.822   6.874  0.1658 -0.2487  0.1985
 1073YOPC   NC314687   5.863  12.470   5.374  0.2559 -0.0451  0.0758
 1073YOPC   PO414688   5.948  12.968   5.225 -0.1610 -0.0121  0.2497
 1073YOPC   GL114689   6.136  12.887   5.631  0.0521 -0.2810 -0.1744
 1073YOPC   GL214690   6.225  12.537   5.774 -0.0154 -0.0025 -0.0438
 1073YOPC   C1A14691   5.985  12.923   6.067 -0.1427  0.1652  0.1977
 1073YOPC   D2A14692   6.090  12.939   6.420 -0.0055  0.0165 -0.1414
 1073YOPC   C3A14693   6.185  12.992   6.834  0.2240 -0.2474 -0.0044
 1073YOPC   C4A14694   6.082  13.241   7.090  0.0459  0.1106  0.2756
 1073YOPC   C1B14695   6.394  12.634   6.117 -0.0743 -0.1161 -0.1149
 1073YOPC   C2B14696   6.523  12.986   6.433 -0.0664  0.3700  0.0702
 1073YOPC   D3B14697   6.330  13.394   6.539 -0.1331 -0.1987 -0.3066
 1073YOPC   C4B14698   6.225  13.887   6.321 -0.0188  0.0985  0.0804
 1074YOPC   NC314699   1.479  18.198   5.173 -0.1280  0.1776 -0.1552
 1074YOPC   PO414700   1.635  17.795   5.512  0.1191  0.0353  0.0967
 1074YOPC   GL114701   1.760  17.968   5.930 -0.0808 -0.0140  0.2095
 1074YOPC   GL214702   2.025  17.932   6.104  0.0221 -0.0935 -0.2855
 1074YOPC   C1A14703   1.670  18.287   6.195  0.0458 -0.1739  0.0432
 1074YOPC   D2A14704   1.566  18.369   6.567 -0.2125 -0.3038 -0.1015
 1074YOPC   C3A14705   1.617  18.216   6.990 -0.0922  0.1692  0.0957
 1074YOPC   C4A14706   1.544  18.085   7.421  0.0437 -0.2541 -0.3439
 1074YOPC   C1B14707   2.067  17.907   6.544 -0.1333  0.2537 -0.0908
 1074YOPC   C2B14708   2.134  18.155   6.886  0.1133  0.2108 -0.3554
 1074YOPC   D3B14709   2.073  18.011   7.308 -0.1747  0.0394 -0.0905
 1074YOPC   C4B14710   2.288  17.635   7.322 -0.0358 -0.0333 -0.0577
 1075YOPC   NC314711   8.878  11.359   4.901 -0.1143 -0.1342  0.1614
 1075YOPC   PO414712   8.729  11.731   4.931  0.0117 -0.2266 -0.0881
 1075YOPC   GL114713   8.815  11.460   5.394  0.2123  0.0051 -0.1413
 1075YOPC   GL214714   8.749  11.727   5.606 -0.3099  0.1422 -0.0405
 1075YOPC   C1A14715   8.828  11.164   5.722  0.2682 -0.0592 -0.0680
 1075YOPC   D2A14716   8.524  11.122   6.182 -0.0511  0.0595 -0.0110
 1075YOPC   C3A14717   8.560  10.593   6.300 -0.0659  0.0972  0.3896
 1075YOPC   C4A14718   8.876  10.326   6.362  0.1324  0.1131  0.2087
 1075YOPC   C1B14719   8.901  11.959   5.883 -0.0992  0.1173  0.2818
 1075YOPC   C2B14720   9.119  12.068   6.259 -0.1073 -0.0428  0.1854
 1075YOPC   D3B14721   9.094  11.677   6.598  0.4019  0.3389  0.1360
 1075YOPC   C4B14722   8.869  11.581   6.970  0.1735 -0.0829 -0.0585
 1076YOPC   NC314723  11.752  13.367   5.443  0.0137 -0.0831 -0.1151
 1076YOPC   PO414724  11.571  12.937   5.351 -0.2860  0.2223  0.1430
 1076YOPC   GL114725  11.580  12.729   5.820 -0.3085 -0.1040  0.0637
 1076YOPC   GL214726  11.775  12.882   5.826 -0.1949 -0.0420  0.0083
 1076YOPC   C1A14727  11.811  12.742   6.301  0.3531 -0.1332  0.2097
 1076YOPC   D2A14728  12.122  12.656   6.615 -0.1340  0.1795  0.0186
 1076YOPC   C3A14729  12.052  12.286   6.976  0.0598 -0.1675 -0.4827
 1076YOPC   C4A14730  12.221  12.098   7.388  0.1631  0.1157 -0.0130
 1076YOPC   C1B14731  11.667  13.173   6.062  0.2413 -0.0460  0.0013
 1076YOPC   C2B14732  11.465  13.292   6.383  0.0264 -0.2304 -0.0208
 1076YOPC   D3B14733  11.484  12.956   6.663  0.0779 -0.3167  0.0073
 1076YOPC   C4B14734  11.800  12.890   7.029 -0.3230  0.2573 -0.0937
 1077YOPC   NC314735   4.232   2.470   4.966  0.0875 -0.3242 -0.0150
 1077YOPC   PO414736   3.994   2.414   5.436 -0.4585 -0.2173  0.1635
 1077YOPC   GL114737   4.200   2.309   5.861 -0.3365  0.0919 -0.1577
 1077YOPC   GL214738   4.400   2.530   5.834 -0.2983 -0.1041 -0.2670
 1077YOPC   C1A14739   4.227   2.232   6.381  0.1747 -0.0072  0.5449
 1077YOPC   D2A14740   4.294   2.247   6.814  0.3858  0.3129  0.2802
 1077YOPC   C3A14741   4.050   2.443   7.172 -0.2054  0.0702 -0.0651
 1077YOPC   C4A14742   4.152   2.752   7.467  0.1206  0.0760 -0.1698
 1077YOPC   C1B14743   4.524   2.594   6.197 -0.1716  0.0576  0.1496
 1077YOPC   C2B14744   4.542   2.701   6.635  0.0694 -0.0821 -0.1780
 1077YOPC   D3B14745   4.612   2.550   7.098  0.1098 -0.1267 -0.2346
 1077YOPC   C4B14746   4.925   2.505   7.303 -0.2259 -0.0673 -0.0725
 1078YOPC   NC314747   4.521   9.107   5.100 -0.0276 -0.0804 -0.5747
 1078YOPC   PO414748   4.487   8.828   5.384  0.2606 -0.0442  0.1809
 1078YOPC   GL114749   4.811   9.077   5.539  0.3441 -0.1213  0.0761
 1078YOPC   GL214750   4.652   9.473   5.407 -0.2268  0.4802  0.0752
 1078YOPC   C1A14751   4.906   9.165   5.889 -0.2504 -0.0495 -0.1016
 1078YOPC   D2A14752   4.815   9.256   6.233 -0.2088 -0.1938  0.1671
 1078YOPC   C3A14753   4.867   9.359   6.616  0.0455 -0.0915  0.0678
 1078YOPC   C4A14754   4.948   9.412   7.048 -0.0671 -0.1178  0.1908
 1078YOPC   C1B14755   4.502   9.448   5.851  0.1367  0.3065  0.1465
 1078YOPC   C2B14756   4.449   9.537   6.248  0.1857  0.0043 -0.2389
 1078YOPC   D3B14757   4.211   9.848   6.393  0.0284 -0.1363 -0.1637
 1078YOPC   C4B14758   4.376  10.263   6.629 -0.0064 -0.0945 -0.1608
 1079YOPC   NC314759   5.685   7.173   5.262 -0.0830 -0.3786  0.0554
 1079YOPC   PO414760   6.169   7.237   5.540  0.2031 -0.1935 -0.4022
 1079YOPC   GL114761   6.316   7.435   5.948 -0.0827  0.0769 -0.1178
 1079YOPC   GL214762   6.655   7.320   5.838 -0.1513  0.0427 -0.0595
 1079YOPC   C1A14763   6.434   7.530   6.323  0.1064 -0.1182 -0.2779
 1079YOPC   D2A14764   6.482   7.600   6.779 -0.0097 -0.1901 -0.2139
 1079YOPC   C3A14765   6.823   7.643   6.965  0.0684 -0.4348  0.0400
 1079YOPC   C4A14766   7.064   7.964   6.811 -0.0245  0.2586  0.3686
 1079YOPC   C1B14767   6.715   6.987   6.178  0.1170  0.1882 -0.2339
 1079YOPC   C2B14768   6.821   6.684   6.442  0.4383 -0.1709  0.3198
 1079YOPC   D3B14769   6.842   6.752   6.888 -0.3719  0.1068  0.1117
 1079YOPC   C4B14770   7.020   6.825   7.329 -0.1474 -0.2155 -0.1156
 1080YOPC   NC314771  17.699  17.723   5.764  0.0667  0.0479 -0.2421
 1080YOPC   PO414772  17.799  18.092   5.881  0.3429  0.0165  0.1390
 1080YOPC   GL114773  17.977  18.026   6.277 -0.0431 -0.3314 -0.2574
 1080YOPC   GL214774  18.353  17.902   6.273  0.1591  0.1604 -0.1080
 1080YOPC   C1A14775  18.148  18.384   6.485 -0.3294 -0.1649 -0.1748
 1080YOPC   D2A14776  18.294  18.740   6.793 -0.2770 -0.2671 -0.0993
 1080YOPC   C3A14777  18.314  18.769   7.226 -0.1935  0.2494 -0.1681
 1080YOPC   C4A14778  18.384  18.871   7.591  0.0293 -0.2575 -0.1913
 1080YOPC   C1B14779  18.290  17.979   6.739 -0.3508 -0.0994 -0.1192
 1080YOPC   C2B14780  18.202  17.789   7.111  0.1386 -0.0698  0.2782
 1080YOPC   D3B14781  17.916  17.854   7.367  0.0343 -0.2231 -0.0123
 1080YOPC   C4B14782  17.643  17.793   7.646  0.2329 -0.0105  0.1163
 1081YOPC   NC314783   4.466   5.529   5.367  0.3185  0.1792 -0.1927
 1081YOPC   PO414784   4.777   5.270   5.487  0.1337 -0.0855 -0.0013
 1081YOPC   GL114785   4.630   5.286   5.840  0.5670  0.1970 -0.1703
 1081YOPC   GL214786   4.375   5.510   5.973 -0.2754 -0.0837 -0.1837
 1081YOPC   C1A14787   4.432   5.018   6.106 -0.0175  0.2294  0.1063
 1081YOPC   D2A14788   4.439   4.750   6.532  0.1090 -0.2688  0.0610
 1081YOPC   C3A14789   4.249   4.921   6.751 -0.2546  0.0672 -0.0268
 1081YOPC   C4A14790   4.390   5.271   7.043 -0.2410  0.1653 -0.1649
 1081YOPC   C1B14791   4.734   5.600   6.226 -0.1643 -0.4753 -0.1386
 1081YOPC   C2B14792   5.143   5.830   6.384 -0.1813 -0.0141  0.0753
 1081YOPC   D3B14793   5.124   5.816   6.868 -0.2435 -0.2493  0.0904
 1081YOPC   C4B14794   5.063   5.762   7.393  0.1986  0.0919 -0.3591
 1082YOPC   NC314795  12.530  12.722   5.674  0.1132 -0.2264  0.1226
 1082YOPC   PO414796  12.315  12.385   5.440  0.1804  0.0085 -0.1532
 1082YOPC   GL114797  12.053  12.428   5.773 -0.2887 -0.0820  0.3609
 1082YOPC   GL214798  12.224  12.619   6.013  0.4080  0.2704 -0.1315
 1082YOPC   C1A14799  11.718  12.319   6.017  0.0970 -0.1533  0.1644
 1082YOPC   D2A14800  11.293  12.405   6.313 -0.3473  0.1659 -0.0425
 1082YOPC   C3A14801  10.941  12.071   6.332 -0.3526  0.0194  0.1386
 1082YOPC   C4A14802  10.707  11.732   6.470  0.0611  0.0625  0.1955
 1082YOPC   C1B14803  12.161  12.332   6.283 -0.0732 -0.0288  0.0209
 1082YOPC   C2B14804  11.854  12.268   6.547 -0.0280  0.1449 -0.2823
 1082YOPC   D3B14805  11.749  11.932   6.843  0.0799 -0.0828 -0.1747
 1082YOPC   C4B14806  11.733  11.991   7.207 -0.4824 -0.0064 -0.2853
 1083YOPC   NC314807   2.462  12.904   5.202 -0.3253  0.2428  0.0745
 1083YOPC   PO414808   2.167  12.621   5.390  0.2756 -0.1331 -0.1739
 1083YOPC   GL114809   2.042  12.297   5.829  0.4269 -0.0377  0.1498
 1083YOPC   GL214810   2.272  12.112   5.891 -0.2709 -0.2367  0.4550
 1083YOPC   C1A14811   1.944  12.353   6.240  0.1823  0.0210  0.0038
 1083YOPC   D2A14812   2.129  12.634   6.572 -0.1674  0.2836  0.2238
 1083YOPC   C3A14813   2.485  12.534   6.750 -0.1041  0.2683  0.1623
 1083YOPC   C4A14814   2.793  12.364   6.501  0.2033 -0.0525 -0.1536
 1083YOPC   C1B14815   2.659  11.968   6.080  0.3111 -0.0275 -0.1680
 1083YOPC   C2B14816   2.705  11.819   6.507 -0.0820 -0.1865  0.0298
 1083YOPC   D3B14817   2.914  12.092   6.896  0.0062 -0.0962 -0.1165
 1083YOPC   C4B14818   3.003  12.034   7.366 -0.4758  0.0833 -0.0767
 1084YOPC   NC314819  12.929   6.757   5.755  0.0007  0.1799 -0.2039
 1084YOPC   PO414820  12.716   6.502   6.020  0.1029  0.3180 -0.0740
 1084YOPC   GL114821  12.749   6.609   6.475  0.3362  0.0445  0.0657
 1084YOPC   GL214822  12.842   6.259   6.615  0.2802  0.1261  0.0801
 1084YOPC   C1A14823  12.621   6.734   6.877  0.4537  0.0009  0.2572
 1084YOPC   D2A14824  12.270   6.908   7.086 -0.2650 -0.2683  0.0852
 1084YOPC   C3A14825  11.986   6.771   7.444 -0.0605 -0.0376 -0.0750
 1084YOPC   C4A14826  11.511   6.641   7.376 -0.2246 -0.1106  0.0461
 1084YOPC   C1B14827  12.657   5.973   6.887 -0.0639 -0.1032 -0.1139
 1084YOPC   C2B14828  12.454   5.820   7.160 -0.2121  0.0714 -0.2317
 1084YOPC   D3B14829  12.789   5.681   7.404  0.0413  0.0337 -0.0598
 1084YOPC   C4B14830  12.970   5.289   7.585  0.1995  0.0712 -0.0986
 1085YOPC   NC314831   2.495   4.634   5.641 -0.1316  0.0718 -0.1827
 1085YOPC   PO414832   2.084   4.781   5.431  0.0529  0.1369  0.1905
 1085YOPC   GL114833   1.786   4.563   5.668  0.1458 -0.2605 -0.0351
 1085YOPC   GL214834   1.958   4.388   5.933  0.2134  0.2095 -0.3759
 1085YOPC   C1A14835   1.592   4.806   6.072  0.1177  0.1501 -0.0322
 1085YOPC   D2A14836   1.663   4.919   6.511 -0.1091 -0.0069  0.1362
 1085YOPC   C3A14837   1.985   4.671   6.696  0.1093 -0.1920  0.2716
 1085YOPC   C4A14838   2.126   4.306   6.838  0.1428 -0.0116  0.0049
 1085YOPC   C1B14839   2.233   4.522   6.275  0.0990 -0.1377  0.1348
 1085YOPC   C2B14840   2.511   4.792   6.645  0.1403  0.5054  0.3565
 1085YOPC   D3B14841   2.849   4.627   6.899  0.0755  0.0886  0.1637
 1085YOPC   C4B14842   2.929   4.344   7.244  0.0456  0.0876 -0.3457
 1086YOPC   NC314843   0.905  15.808   5.828  0.0977 -0.4675 -0.3327
 1086YOPC   PO414844   1.185  15.420   5.788  0.1241 -0.0678 -0.2125
 1086YOPC   GL114845   1.104  15.588   6.206 -0.2402  0.0065  0.1240
 1086YOPC   GL214846   1.200  15.779   6.204  0.0256  0.2944  0.0685
 1086YOPC   C1A14847   0.944  15.572   6.551 -0.0261 -0.1722  0.3206
 1086YOPC   D2A14848   1.069  15.276   6.827 -0.1334 -0.2805 -0.2204
 1086YOPC   C3A14849   1.239  15.303   7.187 -0.0240 -0.2060 -0.3588
 1086YOPC   C4A14850   1.432  15.715   7.274  0.2564  0.1494 -0.0465
 1086YOPC   C1B14851   1.115  16.130   6.396 -0.3234  0.4987 -0.0389
 1086YOPC   C2B14852   0.984  16.508   6.277  0.0020 -0.0770  0.0026
 1086YOPC   D3B14853   1.070  16.916   6.414  0.3483 -0.0684  0.0796
 1086YOPC   C4B14854   1.114  16.939   6.739 -0.4296  0.1936 -0.0433
 1087YOPC   NC314855  18.748  17.842   5.747  0.1744  0.0102 -0.4672
 1087YOPC   PO414856  18.747  17.471   5.880 -0.0983 -0.1220  0.0456
 1087YOPC   GL114857  18.845  17.330   6.206  0.0424 -0.2294  0.1236
 1087YOPC   GL214858  19.165  17.191   6.302  0.4034 -0.0051  0.0560
 1087YOPC   C1A14859  18.726  17.204   6.589 -0.0871  0.0361 -0.2547
 1087YOPC   D2A14860  18.928  17.090   7.022 -0.2626 -0.0924 -0.1366
 1087YOPC   C3A14861  18.710  17.090   7.404  0.1279  0.3268 -0.1298
 1087YOPC   C4A14862  18.652  16.901   7.762  0.0202  0.0927  0.0358
 1087YOPC   C1B14863  19.181  17.381   6.682 -0.2460 -0.1169 -0.4754
 1087YOPC   C2B14864  19.317  17.557   7.061  0.1495  0.0232  0.2167
 1087YOPC   D3B14865  19.411  17.463   7.421 -0.2510 -0.0961 -0.2140
 1087YOPC   C4B14866  19.533  17.222   7.819  0.0668  0.4654  0.0902
 1088YOPC   NC314867  11.366  11.433   5.142  0.1256  0.0424  0.0794
 1088YOPC   PO414868  11.344  11.107   5.413 -0.0478  0.2387  0.0750
 1088YOPC   GL114869  11.407  11.418   5.732 -0.2481 -0.1455  0.0199
 1088YOPC   GL214870  11.514  11.184   5.975 -0.0322 -0.0647 -0.1898
 1088YOPC   C1A14871  11.671  11.725   5.843 -0.2266  0.1107  0.1084
 1088YOPC   D2A14872  12.055  11.938   6.012  0.3743 -0.2486  0.2112
 1088YOPC   C3A14873  12.171  11.900   6.473  0.0536  0.0966 -0.1227
 1088YOPC   C4A14874  12.249  11.854   6.935 -0.2340  0.1779 -0.2445
 1088YOPC   C1B14875  11.144  11.385   6.243 -0.0159  0.3543  0.0592
 1088YOPC   C2B14876  11.185  11.627   6.584  0.2276 -0.2599 -0.0939
 1088YOPC   D3B14877  11.003  11.550   6.985  0.1191  0.2097 -0.2194
 1088YOPC   C4B14878  11.264  11.802   7.219  0.1617  0.0035 -0.0495
 1089YOPC   NC314879   4.109  16.395   5.348  0.2072  0.2240  0.2210
 1089YOPC   PO414880   4.411  16.607   5.155 -0.0568 -0.0639  0.1810
 1089YOPC   GL114881   4.473  16.578   5.626  0.1085 -0.0693  0.3303
 1089YOPC   GL214882   4.459  16.816   5.869  0.0323  0.2868  0.4167
 1089YOPC   C1A14883   4.385  16.275   6.027 -0.0736 -0.0079 -0.1072
 1089YOPC   D2A14884   4.355  16.139   6.479  0.3853  0.2827 -0.1739
 1089YOPC   C3A14885   4.612  16.105   6.880  0.1976 -0.1351  0.1903
 1089YOPC   C4A14886   4.725  16.195   7.333 -0.1963  0.1938  0.0718
 1089YOPC   C1B14887   4.127  16.952   6.011 -0.0974 -0.3392  0.2628
 1089YOPC   C2B14888   4.015  16.981   6.465 -0.4414  0.1469 -0.0204
 1089YOPC   D3B14889   4.253  16.989   6.768 -0.0412 -0.4674  0.1187
 1089YOPC   C4B14890   4.071  16.978   7.107  0.1375 -0.0581  0.1137
 1090YOPC   NC314891  10.176   7.230   5.738  0.2025 -0.1419 -0.0630
 1090YOPC   PO414892   9.974   6.930   5.625  0.0246  0.3378 -0.1846
 1090YOPC   GL114893   9.977   6.991   6.099  0.1629  0.1556 -0.0321
 1090YOPC   GL214894   9.654   6.929   6.151  0.1015  0.0837  0.0607
 1090YOPC   C1A14895  10.351   7.110   6.508  0.0274 -0.2054  0.0139
 1090YOPC   D2A14896  10.813   7.180   6.803 -0.0032 -0.0925  0.0046
 1090YOPC   C3A14897  10.799   7.291   7.219 -0.0775  0.1545 -0.0777
 1090YOPC   C4A14898  10.919   7.335   7.632 -0.5590 -0.0226  0.0895
 1090YOPC   C1B14899   9.274   6.743   6.406 -0.0515 -0.1028  0.1814
 1090YOPC   C2B14900   9.171   6.548   6.762  0.0562 -0.0230  0.0080
 1090YOPC   D3B14901   9.255   6.688   7.209 -0.4239 -0.0979 -0.1025
 1090YOPC   C4B14902   9.110   6.561   7.665 -0.1627 -0.1291 -0.0761
 1091YOPC   NC314903   5.607   1.066   4.909  0.3470  0.0595  0.1814
 1091YOPC   PO414904   5.849   1.182   5.204 -0.0717  0.1778  0.2436
 1091YOPC   GL114905   5.416   1.312   5.400 -0.1270  0.1844  0.2259
 1091YOPC   GL214906   5.182   1.098   5.185  0.3451 -0.1330  0.0011
 1091YOPC   C1A14907   4.953   1.458   5.490 -0.4320  0.0983  0.1178
 1091YOPC   D2A14908   4.786   1.358   5.882  0.0272 -0.3087 -0.3250
 1091YOPC   C3A14909   4.818   1.598   6.315 -0.0556  0.2108 -0.0066
 1091YOPC   C4A14910   4.991   1.603   6.778  0.1893 -0.1557  0.2018
 1091YOPC   C1B14911   5.174   0.919   5.628  0.1177  0.0531  0.0183
 1091YOPC   C2B14912   5.466   0.566   5.866 -0.1220  0.0592  0.1186
 1091YOPC   D3B14913   5.894   0.564   6.033 -0.1500 -0.3769 -0.2144
 1091YOPC   C4B14914   6.078   0.430   6.386  0.0131 -0.0508 -0.0548
 1092YOPC   NC314915  18.982   7.108   5.324 -0.0818 -0.1305 -0.0321
 1092YOPC   PO414916  19.062   7.109   5.872  0.0044  0.0527 -0.1611
 1092YOPC   GL114917  19.408   6.902   6.185  0.0723  0.0588  0.0233
 1092YOPC   GL214918  19.751   6.682   6.165  0.0392 -0.0625 -0.0469
 1092YOPC   C1A14919  19.546   7.137   6.530  0.3128  0.1759  0.1652
 1092YOPC   D2A14920  19.646   7.506   6.475  0.0611 -0.1330 -0.1080
 1092YOPC   C3A14921  19.943   7.782   6.437 -0.0532  0.0322 -0.0271
 1092YOPC   C4A14922  20.274   8.045   6.676 -0.2013  0.1448 -0.0639
 1092YOPC   C1B14923  19.780   6.714   6.550  0.5533 -0.2300  0.0620
 1092YOPC   C2B14924  19.821   6.855   7.000  0.2683  0.2280 -0.1473
 1092YOPC   D3B14925  20.176   7.078   7.035  0.2086  0.2391 -0.1246
 1092YOPC   C4B14926  20.539   6.850   7.136 -0.3400 -0.1496  0.1740
 1093YOPC   NC314927   3.613  18.032   5.337 -0.2153 -0.4255 -0.1296
 1093YOPC   PO414928   3.807  18.419   5.336 -0.1398  0.2856 -0.0756
 1093YOPC   GL114929   3.931  18.389   5.766 -0.3033 -0.0632  0.0794
 1093YOPC   GL214930   4.091  18.710   5.893  0.1638  0.0501  0.1775
 1093YOPC   C1A14931   3.864  18.393   6.272  0.1876  0.1420 -0.3074
 1093YOPC   D2A14932   3.936  18.537   6.655 -0.0159 -0.2043  0.2138
 1093YOPC   C3A14933   4.075  18.365   7.049  0.2372  0.3145 -0.2570
 1093YOPC   C4A14934   4.121  18.540   7.380 -0.0901  0.0040 -0.2033
 1093YOPC   C1B14935   4.203  18.849   6.375 -0.1375  0.1131 -0.4754
 1093YOPC   C2B14936   3.966  19.066   6.726 -0.1540  0.0461  0.0505
 1093YOPC   D3B14937   3.966  18.921   7.103 -0.0588  0.0914  0.2271
 1093YOPC   C4B14938   3.647  19.023   7.338 -0.0166 -0.1565 -0.0808
 1094YOPC   NC314939  14.909  10.831   5.708  0.0784 -0.1190 -0.1324
 1094YOPC   PO414940  14.846  10.548   5.994 -0.2700  0.1219 -0.2358
 1094YOPC   GL114941  14.573  10.577   6.382 -0.0470 -0.0985 -0.0952
 1094YOPC   GL214942  14.283  10.683   6.323  0.3004  0.2066  0.3330
 1094YOPC   C1A14943  14.446  10.545   6.781  0.0125 -0.1912  0.2280
 1094YOPC   D2A14944  14.131  10.553   7.100  0.3956 -0.2111 -0.1987
 1094YOPC   C3A14945  14.111  10.893   7.328  0.0856  0.0723 -0.4713
 1094YOPC   C4A14946  14.302  11.338   7.190 -0.4411  0.2308 -0.0036
 1094YOPC   C1B14947  14.015  10.807   6.586 -0.1825 -0.0366  0.0211
 1094YOPC   C2B14948  13.906  11.088   6.909  0.0979 -0.2608  0.2029
 1094YOPC   D3B14949  13.500  11.033   7.335  0.2227  0.0321 -0.2118
 1094YOPC   C4B14950  13.287  10.749   7.412  0.2971 -0.1692 -0.3346
 1095YOPC   NC314951   9.580  17.207   5.603  0.3598  0.1430  0.3575
 1095YOPC   PO414952   9.384  16.730   5.518  0.2683 -0.1553  0.0066
 1095YOPC   GL114953   9.594  16.500   5.921  0.0126 -0.1022 -0.1020
 1095YOPC   GL214954   9.522  16.157   5.848 -0.0394 -0.2201 -0.2624
 1095YOPC   C1A14955   9.692  16.466   6.323  0.0276 -0.2850 -0.0265
 1095YOPC   D2A14956   9.538  16.276   6.729  0.0073  0.3851  0.0055
 1095YOPC   C3A14957   9.391  16.411   7.144 -0.0878 -0.0412  0.2216
 1095YOPC   C4A14958   9.051  16.361   7.259  0.0576  0.0878  0.0326
 1095YOPC   C1B14959   9.406  15.962   6.325  0.4582  0.1818 -0.2299
 1095YOPC   C2B14960   9.355  15.837   6.763 -0.0443  0.3160 -0.3826
 1095YOPC   D3B14961   9.421  15.914   7.148  0.3712 -0.0548 -0.2520
 1095YOPC   C4B14962   9.645  16.106   7.566  0.3085  0.2262  0.3878
 1096YOPC   NC314963   9.664  15.534   5.243  0.0465 -0.2930 -0.0650
 1096YOPC   PO414964   9.751  15.903   5.439 -0.2759 -0.3534  0.2175
 1096YOPC   GL114965   9.628  15.650   5.847  0.0787 -0.1771  0.1091
 1096YOPC   GL214966   9.655  15.339   5.758 -0.2103 -0.0407  0.1778
 1096YOPC   C1A14967   9.327  15.472   6.098  0.0123  0.1164 -0.0160
 1096YOPC   D2A14968   9.294  15.417   6.534 -0.1136 -0.2102  0.0384
 1096YOPC   C3A14969   9.449  15.015   6.512  0.1026 -0.0457  0.1597
 1096YOPC   C4A14970   9.498  14.637   6.415  0.3742  0.0813 -0.2646
 1096YOPC   C1B14971   9.795  15.139   6.173  0.0843 -0.2112 -0.1027
 1096YOPC   C2B14972   9.913  15.094   6.632 -0.0504  0.0329 -0.1091
 1096YOPC   D3B14973   9.705  14.963   6.953  0.1376  0.0042  0.2822
 1096YOPC   C4B14974   9.930  14.597   7.045 -0.1117 -0.1391 -0.0851
 1097YOPC   NC314975   0.491  14.803   5.579 -0.0169  0.0469  0.1000
 1097YOPC   PO414976   0.528  14.670   5.965  0.0837  0.0072  0.0601
 1097YOPC   GL114977   0.551  14.709   6.428 -0.3254  0.0798  0.2353
 1097YOPC   GL214978   0.228  14.810   6.442 -0.0578 -0.3183  0.0265
 1097YOPC   C1A14979   0.532  14.604   6.860  0.3592 -0.2249 -0.0587
 1097YOPC   D2A14980   0.416  14.633   7.192  0.1086 -0.4029  0.1513
 1097YOPC   C3A14981   0.469  14.758   7.573  0.1743  0.0542 -0.1296
 1097YOPC   C4A14982   0.483  15.081   7.883 -0.0074 -0.2427 -0.0011
 1097YOPC   C1B14983   0.037  14.876   6.852  0.0185 -0.2931 -0.1909
 1097YOPC   C2B14984   0.079  14.993   7.254 -0.3093  0.0022 -0.1171
 1097YOPC   D3B14985  -0.092  14.873   7.612 -0.3598  0.2464 -0.1837
 1097YOPC   C4B14986  -0.154  15.021   7.999 -0.2114 -0.0102 -0.1877
 1098YOPC   NC314987  11.883   5.886   5.188 -0.0850 -0.0625 -0.0236
 1098YOPC   PO414988  12.035   5.836   5.614  0.1001 -0.3536 -0.0066
 1098YOPC   GL114989  12.189   5.814   6.053  0.0773 -0.0969  0.3505
 1098YOPC   GL214990  12.066   5.595   6.180  0.0893  0.2310 -0.1293
 1098YOPC   C1A14991  12.136   6.063   6.311  0.0547 -0.1660  0.0393
 1098YOPC   D2A14992  11.726   6.049   6.419  0.0777 -0.3586  0.0874
 1098YOPC   C3A14993  11.625   6.424   6.536  0.2991  0.0333 -0.1953
 1098YOPC   C4A14994  11.869   6.646   6.920 -0.0423  0.0611 -0.0017
 1098YOPC   C1B14995  12.128   5.600   6.558  0.2084 -0.0948 -0.0309
 1098YOPC   C2B14996  12.052   5.589   6.987 -0.0417 -0.0804  0.0934
 1098YOPC   D3B14997  11.839   5.415   7.465 -0.1536  0.3334  0.0457
 1098YOPC   C4B14998  11.856   5.135   7.846 -0.1457  0.0552  0.2177
 1099YOPC   NC314999  10.737   6.456   5.313  0.0849 -0.0741  0.1144
 1099YOPC   PO415000  10.866   6.533   5.624 -0.0878  0.2259  0.5073
 1099YOPC   GL115001  10.685   6.695   6.038  0.1236  0.2197  0.0719
 1099YOPC   GL215002  10.434   6.794   6.179  0.0922 -0.1022  0.2194
 1099YOPC   C1A15003  10.673   6.610   6.528  0.0178  0.3555 -0.4360
 1099YOPC   D2A15004  10.795   6.273   6.818  0.1060  0.2652 -0.0315
 1099YOPC   C3A15005  10.741   5.820   6.655  0.0209 -0.1752 -0.1634
 1099YOPC   C4A15006  10.561   5.552   6.391 -0.0407 -0.0454  0.0364
 1099YOPC   C1B15007  10.175   6.616   6.340  0.3280 -0.0212  0.3312
 1099YOPC   C2B15008   9.758   6.539   6.530  0.0332 -0.0538  0.2410
 1099YOPC   D3B15009   9.616   6.351   6.930 -0.0196  0.2503 -0.4330
 1099YOPC   C4B15010   9.659   6.280   7.491  0.0418  0.0837  0.0984
 1100YOPC   NC315011  12.022   6.985   5.464 -0.1114  0.0838 -0.0218
 1100YOPC   PO415012  12.339   6.827   5.669 -0.0356 -0.1302  0.1624
 1100YOPC   GL115013  12.350   6.962   6.069 -0.2174  0.0226 -0.0932
 1100YOPC   GL215014  12.563   7.105   6.120  0.0138 -0.0961  0.4038
 1100YOPC   C1A15015  12.246   6.814   6.484  0.0241  0.2623  0.2179
 1100YOPC   D2A15016  12.291   6.418   6.734  0.0906 -0.2645  0.1964
 1100YOPC   C3A15017  12.342   6.344   7.197  0.0416 -0.2185 -0.0408
 1100YOPC   C4A15018  12.186   5.904   7.586 -0.2514  0.2177  0.1208
 1100YOPC   C1B15019  12.635   7.169   6.489  0.1125 -0.0803 -0.0611
 1100YOPC   C2B15020  12.694   7.246   6.922 -0.2144  0.2626 -0.1978
 1100YOPC   D3B15021  13.072   7.371   7.124  0.1696 -0.1004 -0.1900
 1100YOPC   C4B15022  13.162   7.093   7.490  0.0009  0.1444  0.1103
 1101YOPC   NC315023   0.682   2.365   5.430  0.1292 -0.2440 -0.1134
 1101YOPC   PO415024   0.359   2.592   5.484 -0.0151  0.1867 -0.0014
 1101YOPC   GL115025   0.505   2.682   5.953  0.0742  0.1176  0.2282
 1101YOPC   GL215026   0.787   2.898   6.031 -0.0548  0.0987 -0.2201
 1101YOPC   C1A15027   0.680   2.595   6.466  0.3640 -0.0536  0.0808
 1101YOPC   D2A15028   0.800   2.886   6.843  0.0457  0.0682  0.1224
 1101YOPC   C3A15029   0.685   3.152   7.179  0.1370 -0.0273  0.1317
 1101YOPC   C4A15030   0.665   3.441   7.554  0.2299 -0.2897 -0.1022
 1101YOPC   C1B15031   1.147   2.718   6.301 -0.0257  0.1001  0.1925
 1101YOPC   C2B15032   1.255   2.675   6.686 -0.2464 -0.1815  0.0614
 1101YOPC   D3B15033   1.010   2.425   6.922  0.2415 -0.0018 -0.0286
 1101YOPC   C4B15034   1.138   2.255   7.356 -0.2614 -0.4661  0.2350
 1102YOPC   NC315035  14.660  17.748   5.739 -0.3885  0.2075 -0.1590
 1102YOPC   PO415036  15.292  17.760   5.833  0.0025 -0.0420 -0.0268
 1102YOPC   GL115037  15.723  17.549   6.003 -0.1532 -0.1051 -0.1770
 1102YOPC   GL215038  15.778  17.338   5.965  0.1826 -0.1182 -0.1293
 1102YOPC   C1A15039  15.966  17.826   6.386  0.0045  0.0880  0.1991
 1102YOPC   D2A15040  16.034  17.870   6.812  0.4136  0.1316  0.1918
 1102YOPC   C3A15041  15.989  17.686   7.252  0.2061 -0.1958  0.1118
 1102YOPC   C4A15042  15.812  17.333   7.453 -0.0503 -0.0589  0.3971
 1102YOPC   C1B15043  15.729  17.352   6.445 -0.3455  0.1500 -0.1098
 1102YOPC   C2B15044  15.737  17.356   6.983 -0.0549 -0.0396  0.3099
 1102YOPC   D3B15045  15.648  16.927   7.237  0.3278 -0.0035  0.1482
 1102YOPC   C4B15046  15.913  16.534   7.345 -0.4927  0.0967  0.0077
 1103YOPC   NC315047   2.128   5.978   5.304  0.1046  0.0965 -0.2560
 1103YOPC   PO415048   2.185   5.543   5.398  0.0651 -0.0044 -0.0650
 1103YOPC   GL115049   2.157   5.455   5.888  0.1917  0.0172  0.4113
 1103YOPC   GL215050   2.147   5.085   5.836  0.0992 -0.0268  0.0486
 1103YOPC   C1A15051   2.313   5.530   6.279 -0.3370  0.1088 -0.3830
 1103YOPC   D2A15052   2.118   5.666   6.716 -0.0688 -0.0990 -0.0384
 1103YOPC   C3A15053   2.036   5.635   7.097  0.1284  0.2638 -0.0001
 1103YOPC   C4A15054   1.955   5.750   7.532  0.1286 -0.3343 -0.1934
 1103YOPC   C1B15055   2.126   5.036   6.318  0.1655 -0.2746  0.2370
 1103YOPC   C2B15056   2.105   5.200   6.721 -0.2703  0.0429 -0.1621
 1103YOPC   D3B15057   2.267   5.019   7.118 -0.2362  0.1549  0.0280
 1103YOPC   C4B15058   2.452   4.613   7.174  0.3376 -0.1583 -0.4362
 1104YOPC   NC315059  11.381  15.868   5.469  0.1312  0.0904 -0.1977
 1104YOPC   PO415060  11.208  16.156   5.738  0.0081 -0.1149 -0.0473
 1104YOPC   GL115061  11.032  16.035   6.102 -0.0512  0.0393  0.0075
 1104YOPC   GL215062  11.176  15.690   6.240 -0.0889  0.2083 -0.2198
 1104YOPC   C1A15063  10.831  16.270   6.430  0.0522  0.0440 -0.2024
 1104YOPC   D2A15064  10.858  16.309   6.793  0.2128 -0.2043  0.0742
 1104YOPC   C3A15065  10.848  16.567   7.093 -0.1664 -0.1096 -0.1269
 1104YOPC   C4A15066  10.985  16.588   7.526 -0.1095  0.3011  0.1622
 1104YOPC   C1B15067  11.077  15.836   6.590  0.1611 -0.0620 -0.4035
 1104YOPC   C2B15068  11.139  15.726   6.965  0.1664 -0.0200  0.0198
 1104YOPC   D3B15069  10.976  16.036   7.174 -0.1277 -0.0281  0.1058
 1104YOPC   C4B15070  10.747  16.070   7.476  0.0808  0.0208 -0.2537
 1105YOPC   NC315071  18.541  13.335   5.563  0.3804 -0.5152 -0.0688
 1105YOPC   PO415072  18.914  13.195   5.789 -0.3553  0.0835 -0.2464
 1105YOPC   GL115073  19.171  13.460   6.129 -0.3875 -0.0099 -0.0692
 1105YOPC   GL215074  19.524  13.508   6.195 -0.0407  0.1902  0.2476
 1105YOPC   C1A15075  19.214  13.415   6.586  0.0313 -0.1858  0.3200
 1105YOPC   D2A15076  18.961  13.594   6.829 -0.1575  0.1033 -0.1948
 1105YOPC   C3A15077  18.930  13.445   7.199 -0.1574 -0.2671  0.1006
 1105YOPC   C4A15078  19.153  13.229   7.464  0.0537 -0.0417 -0.2170
 1105YOPC   C1B15079  19.573  13.058   6.430 -0.0219  0.0346 -0.1772
 1105YOPC   C2B15080  19.553  12.948   6.922 -0.0985 -0.0671 -0.1668
 1105YOPC   D3B15081  19.865  12.761   7.078 -0.5191 -0.1387 -0.3017
 1105YOPC   C4B15082  20.134  12.527   7.309  0.1259 -0.0376  0.1559
 1106YOPC   NC315083   3.008  12.061   5.249 -0.1753  0.2577 -0.1567
 1106YOPC   PO415084   2.588  12.353   5.313 -0.0475  0.2002 -0.3578
 1106YOPC   GL115085   2.655  12.562   5.729  0.1582 -0.1483 -0.0156
 1106YOPC   GL215086   2.908  12.398   5.846 -0.1455 -0.1991  0.0996
 1106YOPC   C1A15087   2.434  12.464   6.200  0.1426  0.0037  0.0523
 1106YOPC   D2A15088   2.311  12.139   6.459 -0.0211 -0.2161  0.0414
 1106YOPC   C3A15089   2.380  12.045   6.843  0.1130  0.2484 -0.0531
 1106YOPC   C4A15090   2.429  12.254   7.235  0.3326  0.1928 -0.0174
 1106YOPC   C1B15091   3.095  12.641   6.195  0.1386  0.1493  0.2987
 1106YOPC   C2B15092   3.483  12.731   6.291  0.2894  0.2664 -0.0511
 1106YOPC   D3B15093   3.676  12.419   6.181  0.2911 -0.3239 -0.0759
 1106YOPC   C4B15094   4.034  12.198   6.288 -0.0672  0.3893  0.0387
 1107YOPC   NC315095  17.037  10.601   5.524 -0.0607  0.2520 -0.2828
 1107YOPC   PO415096  17.361  10.845   5.465  0.0466  0.2229  0.2907
 1107YOPC   GL115097  17.551  10.866   5.920 -0.0067  0.2283 -0.1020
 1107YOPC   GL215098  17.685  10.572   6.013 -0.0027  0.0288 -0.0060
 1107YOPC   C1A15099  17.725  10.995   6.347  0.3895  0.0041  0.0228
 1107YOPC   D2A15100  17.609  10.869   6.853 -0.1434 -0.1189 -0.0056
 1107YOPC   C3A15101  17.913  11.090   7.073 -0.3983  0.0953  0.2361
 1107YOPC   C4A15102  18.273  11.419   7.202  0.0142  0.3277 -0.0107
 1107YOPC   C1B15103  17.658  10.167   6.295  0.0054  0.1951  0.2038
 1107YOPC   C2B15104  17.460   9.961   6.573  0.1584  0.0014 -0.4075
 1107YOPC   D3B15105  17.307   9.625   6.353 -0.2175  0.2455  0.3064
 1107YOPC   C4B15106  17.551   9.251   6.248 -0.2060 -0.1243  0.2604
 1108YOPC   NC315107  12.386   6.315   5.729  0.0699  0.3313  0.2166
 1108YOPC   PO415108  12.746   6.031   6.141 -0.2453 -0.1340  0.1812
 1108YOPC   GL115109  12.710   5.715   6.394 -0.0941 -0.1049 -0.0616
 1108YOPC   GL215110  13.027   5.626   6.436  0.1790  0.1513  0.4547
 1108YOPC   C1A15111  12.526   5.309   6.717 -0.4266 -0.0173 -0.2513
 1108YOPC   D2A15112  12.550   4.857   6.722  0.0478  0.1186  0.0641
 1108YOPC   C3A15113  12.668   4.648   7.035  0.1095 -0.2558  0.0984
 1108YOPC   C4A15114  12.751   4.350   7.431 -0.1135  0.2454  0.2227
 1108YOPC   C1B15115  13.000   5.579   6.887  0.3705  0.0630  0.2294
 1108YOPC   C2B15116  13.211   5.482   7.187  0.0920  0.1929 -0.0852
 1108YOPC   D3B15117  13.421   5.123   7.468 -0.0064 -0.1018 -0.0704
 1108YOPC   C4B15118  13.342   5.059   7.924  0.0339  0.1599 -0.2007
 1109YOPC   NC315119  13.908   6.564   5.885 -0.0393 -0.1710  0.0105
 1109YOPC   PO415120  13.637   6.207   6.007 -0.1330 -0.2511  0.1235
 1109YOPC   GL115121  13.711   6.076   6.411 -0.3868 -0.2699 -0.2345
 1109YOPC   GL215122  13.907   5.824   6.413 -0.1769 -0.2322  0.0514
 1109YOPC   C1A15123  13.929   6.008   6.918 -0.1002  0.3221  0.0250
 1109YOPC   D2A15124  14.070   6.235   7.259  0.1997  0.0724 -0.1282
 1109YOPC   C3A15125  13.920   6.106   7.678 -0.2448  0.2053  0.2635
 1109YOPC   C4A15126  13.992   5.739   8.007  0.5508  0.0316 -0.1043
 1109YOPC   C1B15127  14.339   5.639   6.515 -0.0430 -0.4839  0.0271
 1109YOPC   C2B15128  14.781   5.690   6.610  0.3014  0.4665 -0.0944
 1109YOPC   D3B15129  14.887   5.578   6.930 -0.2314  0.1297  0.1067
 1109YOPC   C4B15130  14.862   5.264   7.270  0.1337 -0.2288  0.0074
 1110YOPC   NC315131  18.766   6.381   5.993 -0.1859  0.2860  0.0473
 1110YOPC   PO415132  18.409   5.994   6.144 -0.2569  0.0111  0.0891
 1110YOPC   GL115133  18.272   6.008   6.495 -0.0183 -0.2155 -0.1445
 1110YOPC   GL215134  18.096   5.647   6.426 -0.2349 -0.3656  0.0880
 1110YOPC   C1A15135  18.470   6.303   6.879 -0.1260  0.1607  0.1507
 1110YOPC   D2A15136  18.874   6.444   6.901 -0.2667 -0.0368  0.0111
 1110YOPC   C3A15137  19.110   6.326   7.279 -0.3977 -0.0554 -0.1698
 1110YOPC   C4A15138  19.339   6.145   7.535  0.2780 -0.0551  0.1193
 1110YOPC   C1B15139  17.720   5.619   6.689  0.1467 -0.1333  0.3309
 1110YOPC   C2B15140  17.536   5.838   7.014  0.2142  0.0361 -0.2998
 1110YOPC   D3B15141  17.196   5.781   7.335 -0.1037  0.2127 -0.3238
 1110YOPC   C4B15142  17.000   5.765   7.683 -0.1632  0.1104  0.6340
 1111YOPC   NC315143   7.448   4.816   4.617 -0.1740 -0.0685 -0.0970
 1111YOPC   PO415144   7.708   4.954   4.985  0.0869  0.2198 -0.1532
 1111YOPC   GL115145   7.618   4.905   5.464  0.0299 -0.1680 -0.0547
 1111YOPC   GL215146   7.636   4.567   5.614  0.0370  0.1638 -0.0817
 1111YOPC   C1A15147   7.767   5.016   5.882 -0.0314 -0.1307  0.3629
 1111YOPC   D2A15148   7.583   4.946   6.269  0.2394 -0.2123 -0.0471
 1111YOPC   C3A15149   7.664   4.943   6.644 -0.3151  0.0171  0.0779
 1111YOPC   C4A15150   7.905   4.750   6.985  0.0740 -0.2812  0.1536
 1111YOPC   C1B15151   7.665   4.530   6.030  0.1982 -0.0172  0.2972
 1111YOPC   C2B15152   7.794   4.512   6.518  0.4379 -0.0579  0.0082
 1111YOPC   D3B15153   8.128   4.227   6.773  0.0122 -0.1369  0.1712
 1111YOPC   C4B15154   8.428   4.512   6.952  0.0848 -0.2396  0.0047
 1112YOPC   NC315155   5.860   9.001   4.966 -0.0763 -0.3580  0.3360
 1112YOPC   PO415156   5.450   9.138   5.035  0.0013 -0.0466  0.0054
 1112YOPC   GL115157   5.246   9.195   5.332  0.0886  0.0030  0.5110
 1112YOPC   GL215158   5.219   9.452   5.434  0.3710  0.1380  0.1877
 1112YOPC   C1A15159   5.305   8.937   5.780 -0.2287 -0.1109 -0.3865
 1112YOPC   D2A15160   5.048   8.705   6.040 -0.1910  0.1163 -0.2183
 1112YOPC   C3A15161   5.086   8.813   6.406  0.2593  0.1791  0.0586
 1112YOPC   C4A15162   5.028   8.993   6.856 -0.2102 -0.0968  0.1607
 1112YOPC   C1B15163   5.323   9.446   5.832 -0.0345  0.2518  0.1495
 1112YOPC   C2B15164   5.348   9.174   6.204 -0.1212  0.0221 -0.0948
 1112YOPC   D3B15165   5.478   9.428   6.538  0.2664 -0.1952  0.1435
 1112YOPC   C4B15166   5.754   9.766   6.716 -0.2273  0.0459  0.0653
 1113YOPC   NC315167   2.576   9.322   5.076 -0.0012 -0.3366 -0.0689
 1113YOPC   PO415168   2.561   9.645   5.409  0.0418 -0.2974  0.2711
 1113YOPC   GL115169   2.484   9.470   5.795  0.0828  0.0068  0.0067
 1113YOPC   GL215170   2.608   9.692   5.989 -0.2335 -0.0934  0.1121
 1113YOPC   C1A15171   2.419   9.182   5.962 -0.0994 -0.1193 -0.1833
 1113YOPC   D2A15172   2.012   9.052   6.148  0.0966 -0.0345 -0.2637
 1113YOPC   C3A15173   2.006   9.056   6.530  0.1322  0.0487  0.0173
 1113YOPC   C4A15174   2.194   9.309   6.850 -0.3240  0.0561 -0.2214
 1113YOPC   C1B15175   2.995   9.932   5.912  0.0190 -0.1428 -0.1998
 1113YOPC   C2B15176   3.082  10.320   6.210  0.1225  0.2180  0.1360
 1113YOPC   D3B15177   3.464  10.508   6.227 -0.0010  0.1886 -0.0166
 1113YOPC   C4B15178   3.770  10.641   5.845 -0.0102 -0.0257 -0.1204
 1114YOPC   NC315179  13.727  13.887   5.596 -0.2411  0.0375  0.1276
 1114YOPC   PO415180  14.004  14.167   5.685 -0.1267  0.0268 -0.1272
 1114YOPC   GL115181  13.834  13.984   6.096  0.0558  0.1923  0.1991
 1114YOPC   GL215182  13.990  13.584   6.133 -0.0682  0.1577 -0.0411
 1114YOPC   C1A15183  13.634  13.800   6.464  0.1239  0.1880 -0.3048
 1114YOPC   D2A15184  13.438  13.749   6.809 -0.0139  0.0294  0.1936
 1114YOPC   C3A15185  13.560  13.732   7.187  0.2907 -0.1264 -0.4281
 1114YOPC   C4A15186  13.721  13.670   7.549 -0.3750 -0.0952 -0.0987
 1114YOPC   C1B15187  14.143  13.472   6.515 -0.0885  0.0198  0.2741
 1114YOPC   C2B15188  13.949  13.630   6.974 -0.0925 -0.0512 -0.0280
 1114YOPC   D3B15189  14.179  13.561   7.378 -0.1289  0.1719 -0.0907
 1114YOPC   C4B15190  14.113  13.467   7.874  0.3651 -0.4771 -0.0635
 1115YOPC   NC315191  14.193   2.721   5.458  0.1657 -0.0470 -0.0029
 1115YOPC   PO415192  13.986   2.437   5.780 -0.1539  0.3679  0.0624
 1115YOPC   GL115193  13.884   2.692   6.117 -0.2739 -0.0472  0.1128
 1115YOPC   GL215194  13.665   2.509   6.230  0.0712  0.3950 -0.0969
 1115YOPC   C1A15195  14.094   2.791   6.410  0.4804 -0.2898 -0.1428
 1115YOPC   D2A15196  13.983   2.831   6.934  0.1054 -0.0524  0.1450
 1115YOPC   C3A15197  14.135   2.641   7.322  0.1099  0.1814 -0.0826
 1115YOPC   C4A15198  14.370   2.309   7.445 -0.1029 -0.0316  0.1104
 1115YOPC   C1B15199  13.819   2.418   6.687  0.0123  0.0199 -0.1549
 1115YOPC   C2B15200  14.083   2.311   6.950  0.1601 -0.1290  0.1521
 1115YOPC   D3B15201  13.915   2.110   7.339  0.0782 -0.1681  0.1662
 1115YOPC   C4B15202  13.718   2.070   7.742 -0.0525 -0.0977  0.3223
 1116YOPC   NC315203   7.284   6.741   4.880  0.1495 -0.4424  0.0321
 1116YOPC   PO415204   7.553   6.742   5.182 -0.0195 -0.1573  0.2608
 1116YOPC   GL115205   7.943   6.580   5.406  0.0405  0.3497 -0.0968
 1116YOPC   GL215206   8.213   6.651   5.536 -0.0838 -0.1676 -0.1665
 1116YOPC   C1A15207   7.873   6.426   5.854  0.2469 -0.0943 -0.1997
 1116YOPC   D2A15208   7.957   6.299   6.265  0.2501  0.0726 -0.0898
 1116YOPC   C3A15209   7.982   6.221   6.730  0.0809  0.3678  0.0928
 1116YOPC   C4A15210   7.971   6.282   7.027  0.3527 -0.1731  0.4768
 1116YOPC   C1B15211   8.134   6.832   5.952 -0.1649 -0.0646  0.0210
 1116YOPC   C2B15212   7.821   6.860   6.229 -0.0676 -0.2453 -0.1071
 1116YOPC   D3B15213   7.796   6.970   6.684 -0.0324  0.0281  0.2035
 1116YOPC   C4B15214   7.764   6.804   7.054  0.0108 -0.0848 -0.1653
 1117YOPC   NC315215  10.323   5.162   4.978  0.1635  0.0823 -0.3730
 1117YOPC   PO415216  10.370   4.930   5.365  0.1563 -0.3092 -0.2690
 1117YOPC   GL115217  10.558   5.019   5.824  0.0232 -0.0748  0.1230
 1117YOPC   GL215218  10.372   4.761   5.915  0.2941 -0.0780 -0.1432
 1117YOPC   C1A15219  10.329   5.170   6.202  0.2216  0.1593 -0.1001
 1117YOPC   D2A15220  10.182   5.196   6.560  0.0033  0.3369  0.1155
 1117YOPC   C3A15221   9.788   5.010   6.552  0.0845  0.2339 -0.1820
 1117YOPC   C4A15222   9.592   4.909   6.222  0.1242 -0.2208 -0.0030
 1117YOPC   C1B15223  10.241   4.692   6.363  0.2923 -0.0278 -0.1871
 1117YOPC   C2B15224  10.146   4.753   6.818 -0.0197  0.3894  0.3367
 1117YOPC   D3B15225  10.420   4.792   7.174 -0.0744 -0.1845 -0.0639
 1117YOPC   C4B15226  10.430   4.692   7.704 -0.1992  0.0556  0.3339
 1118YOPC   NC315227   2.528  11.154   5.512  0.1726 -0.0441 -0.1327
 1118YOPC   PO415228   2.534  10.692   5.368  0.0527  0.1930 -0.0463
 1118YOPC   GL115229   2.407  10.692   5.780  0.0302 -0.2076  0.0042
 1118YOPC   GL215230   2.743  10.740   5.952  0.3701 -0.0482 -0.0741
 1118YOPC   C1A15231   2.258  10.563   6.172 -0.0113 -0.2615  0.2327
 1118YOPC   D2A15232   1.863  10.535   6.372 -0.1493 -0.1724 -0.2760
 1118YOPC   C3A15233   1.733  10.489   6.815  0.1248 -0.3822  0.0250
 1118YOPC   C4A15234   1.619  10.442   7.206 -0.1136  0.2399 -0.1102
 1118YOPC   C1B15235   2.764  10.767   6.352  0.1421  0.0101  0.0528
 1118YOPC   C2B15236   2.662  10.564   6.718  0.2716 -0.0054 -0.0042
 1118YOPC   D3B15237   2.995  10.396   7.032  0.2127  0.0248 -0.0886
 1118YOPC   C4B15238   3.306  10.174   7.191 -0.0614  0.3896 -0.1180
 1119YOPC   NC315239  17.434  13.523   5.562 -0.0665  0.1334  0.1032
 1119YOPC   PO415240  17.495  13.590   5.896 -0.0111 -0.1784 -0.2439
 1119YOPC   GL115241  17.497  13.526   6.382 -0.2988 -0.1769  0.1299
 1119YOPC   GL215242  17.502  13.275   6.456  0.2073  0.2348 -0.0109
 1119YOPC   C1A15243  17.447  13.618   6.865 -0.0195 -0.1704  0.0626
 1119YOPC   D2A15244  17.060  13.897   7.016 -0.0704 -0.1889 -0.0065
 1119YOPC   C3A15245  16.995  14.095   7.495 -0.4124 -0.2407  0.0295
 1119YOPC   C4A15246  16.938  14.113   7.879  0.0659 -0.2505  0.0477
 1119YOPC   C1B15247  17.439  13.104   6.864 -0.1013 -0.0682 -0.0369
 1119YOPC   C2B15248  17.477  13.074   7.207  0.1208 -0.1536  0.1926
 1119YOPC   D3B15249  17.616  13.389   7.406  0.0654  0.1179 -0.0020
 1119YOPC   C4B15250  17.704  13.593   7.799 -0.3001 -0.2301 -0.1524
 1120YOPC   NC315251   3.140   4.213   5.366 -0.2753  0.0483  0.3123
 1120YOPC   PO415252   3.384   4.129   5.730 -0.0324 -0.0916  0.1009
 1120YOPC   GL115253   3.565   4.271   6.100 -0.2334 -0.1069  0.0834
 1120YOPC   GL215254   3.793   4.171   6.095  0.1948 -0.2249  0.2690
 1120YOPC   C1A15255   3.612   4.174   6.606 -0.1376  0.0814  0.2179
 1120YOPC   D2A15256   3.595   4.366   6.981  0.0650 -0.1393 -0.0721
 1120YOPC   C3A15257   3.461   3.985   7.143  0.0128 -0.1081  0.2896
 1120YOPC   C4A15258   3.473   3.546   7.204 -0.0686  0.3065 -0.1026
 1120YOPC   C1B15259   3.880   3.829   6.449 -0.0330  0.0151  0.0510
 1120YOPC   C2B15260   3.671   3.714   6.743 -0.1564  0.0201 -0.1898
 1120YOPC   D3B15261   3.909   3.837   7.228 -0.1951  0.2309  0.2819
 1120YOPC   C4B15262   3.953   4.217   7.360 -0.1524  0.1478 -0.0460
 1121YOPC   NC315263   1.935  18.931   4.668 -0.1184  0.1773 -0.4394
 1121YOPC   PO415264   2.058  19.192   5.140  0.3462 -0.0384  0.2459
 1121YOPC   GL115265   1.881  19.161   5.552  0.2255 -0.0247  0.1436
 1121YOPC   GL215266   1.620  18.943   5.683 -0.1504  0.1370  0.0571
 1121YOPC   C1A15267   2.055  19.086   6.039 -0.3936 -0.0760 -0.0567
 1121YOPC   D2A15268   2.383  19.157   6.448  0.0998  0.1354  0.0301
 1121YOPC   C3A15269   2.398  19.391   6.937 -0.2350 -0.1961  0.3296
 1121YOPC   C4A15270   2.357  19.448   7.356  0.1947 -0.1963  0.0071
 1121YOPC   C1B15271   1.630  18.829   6.156 -0.1571 -0.1731  0.3132
 1121YOPC   C2B15272   1.593  18.878   6.595  0.0804  0.2090  0.0018
 1121YOPC   D3B15273   1.517  18.988   7.056  0.3259  0.2736  0.1235
 1121YOPC   C4B15274   1.555  19.235   7.368 -0.1573  0.0440  0.1888
 1122YOPC   NC315275   2.036  11.624   4.826 -0.2982  0.0071 -0.0162
 1122YOPC   PO415276   1.925  11.654   5.306  0.2397 -0.2142  0.0597
 1122YOPC   GL115277   1.911  11.807   5.694 -0.0537 -0.0270  0.1405
 1122YOPC   GL215278   2.248  11.586   5.773 -0.1966  0.1634  0.2379
 1122YOPC   C1A15279   1.585  11.973   5.960  0.0612 -0.0153  0.1022
 1122YOPC   D2A15280   1.097  11.984   6.143 -0.0394 -0.0706 -0.1722
 1122YOPC   C3A15281   0.955  12.155   6.587 -0.0102  0.1972 -0.1136
 1122YOPC   C4A15282   0.976  12.229   6.942 -0.1970  0.0479 -0.0030
 1122YOPC   C1B15283   2.278  11.601   6.211 -0.0637 -0.2337 -0.1793
 1122YOPC   C2B15284   2.179  11.631   6.641 -0.2018 -0.1138 -0.1963
 1122YOPC   D3B15285   2.421  11.538   6.774  0.0052 -0.1453 -0.1637
 1122YOPC   C4B15286   2.929  11.564   6.931 -0.1625  0.1590  0.1378
 1123YOPC   NC315287  12.714  18.395   5.461 -0.0175  0.0254  0.0854
 1123YOPC   PO415288  12.444  18.211   5.760  0.2840 -0.1195  0.0401
 1123YOPC   GL115289  12.236  17.986   6.045  0.0582 -0.0542 -0.3381
 1123YOPC   GL215290  11.895  18.084   6.086  0.1916 -0.1322  0.2360
 1123YOPC   C1A15291  12.169  17.750   6.504  0.0559  0.0688 -0.0587
 1123YOPC   D2A15292  12.056  17.521   6.882  0.0919  0.2838  0.0345
 1123YOPC   C3A15293  11.886  17.621   7.376 -0.0890  0.0067 -0.0067
 1123YOPC   C4A15294  12.242  17.424   7.789 -0.1623  0.0140 -0.3928
 1123YOPC   C1B15295  11.883  18.528   6.336 -0.0844  0.2842  0.1549
 1123YOPC   C2B15296  11.788  18.650   6.732  0.1262 -0.0331 -0.1963
 1123YOPC   D3B15297  11.562  18.607   7.095  0.0802  0.3525 -0.1816
 1123YOPC   C4B15298  11.761  18.518   7.491 -0.1445 -0.1876  0.1880
 1124YOPC   NC315299  12.691   9.465   5.089 -0.1549  0.1399  0.0253
 1124YOPC   PO415300  12.553   9.630   5.479 -0.1293 -0.1538 -0.1120
 1124YOPC   GL115301  12.827   9.811   5.798 -0.0476  0.0027  0.0819
 1124YOPC   GL215302  13.045   9.427   5.779  0.0015  0.0877 -0.0011
 1124YOPC   C1A15303  12.792   9.781   6.186 -0.4827 -0.2014  0.0112
 1124YOPC   D2A15304  12.683   9.798   6.668  0.2275  0.4198 -0.2480
 1124YOPC   C3A15305  12.903  10.067   7.008  0.1410 -0.0466 -0.0871
 1124YOPC   C4A15306  13.098  10.224   7.423  0.3201 -0.1195  0.1460
 1124YOPC   C1B15307  13.264   9.293   6.100  0.2430  0.2762 -0.0686
 1124YOPC   C2B15308  13.310   9.522   6.475  0.2442  0.1062 -0.0355
 1124YOPC   D3B15309  13.269   9.331   6.934  0.1501 -0.0489  0.2082
 1124YOPC   C4B15310  13.361   8.820   6.938 -0.3237 -0.0780 -0.0908
 1125YOPC   NC315311   8.777  15.853   5.495 -0.2435 -0.1185 -0.1303
 1125YOPC   PO415312   9.147  15.733   5.387 -0.3697  0.1134  0.1652
 1125YOPC   GL115313   9.113  15.430   5.618 -0.0549  0.1506 -0.2994
 1125YOPC   GL215314   9.260  15.167   5.433 -0.3283 -0.1402  0.1405
 1125YOPC   C1A15315   8.859  15.329   5.975 -0.1328  0.0444  0.1708
 1125YOPC   D2A15316   8.702  15.203   6.414  0.0418  0.1070  0.0267
 1125YOPC   C3A15317   8.985  15.098   6.693  0.0670  0.0558 -0.1434
 1125YOPC   C4A15318   9.144  14.767   6.914  0.2004  0.0168  0.2944
 1125YOPC   C1B15319   9.270  15.005   5.844  0.2235 -0.1670 -0.0641
 1125YOPC   C2B15320   9.083  14.823   6.199 -0.3661 -0.0479  0.3023
 1125YOPC   D3B15321   8.874  14.455   6.334  0.1011 -0.2491 -0.2635
 1125YOPC   C4B15322   8.518  14.380   6.376  0.1031  0.1905  0.1817
 1126YOPC   NC315323   2.552  13.751   5.559 -0.4408  0.1247  0.3691
 1126YOPC   PO415324   2.625  13.369   5.421 -0.0592 -0.0593 -0.2131
 1126YOPC   GL115325   2.670  13.371   5.889 -0.0935  0.2628  0.0486
 1126YOPC   GL215326   2.854  13.636   5.985 -0.0014  0.2158  0.0690
 1126YOPC   C1A15327   2.664  13.419   6.393  0.0174 -0.0758 -0.0758
 1126YOPC   D2A15328   2.836  13.339   6.821 -0.0579  0.1538  0.0182
 1126YOPC   C3A15329   2.744  13.022   7.083 -0.1854 -0.0094 -0.1046
 1126YOPC   C4A15330   2.740  12.732   7.540  0.0996  0.1647  0.0465
 1126YOPC   C1B15331   3.271  13.679   6.079 -0.2424  0.0058 -0.1603
 1126YOPC   C2B15332   3.599  13.889   5.926 -0.3727  0.1057 -0.2458
 1126YOPC   D3B15333   3.388  14.283   5.632 -0.0606  0.1219  0.2006
 1126YOPC   C4B15334   3.075  14.607   5.761 -0.0459  0.1046  0.1805
 1127YOPC   NC315335  18.763   4.194   5.649 -0.0420 -0.0062  0.1233
 1127YOPC   PO415336  18.315   4.253   5.606 -0.1466 -0.0492  0.0742
 1127YOPC   GL115337  18.380   4.478   6.004 -0.2470  0.0997 -0.0322
 1127YOPC   GL215338  18.467   4.724   6.109  0.0036  0.2043  0.0360
 1127YOPC   C1A15339  18.154   4.348   6.375  0.0142  0.1580  0.1408
 1127YOPC   D2A15340  18.203   3.913   6.623 -0.1532 -0.0121 -0.0727
 1127YOPC   C3A15341  17.830   3.610   6.607  0.1866 -0.0107  0.0530
 1127YOPC   C4A15342  17.480   3.369   6.597  0.0784 -0.1489  0.1696
 1127YOPC   C1B15343  18.721   4.669   6.624 -0.2020  0.3108  0.1602
 1127YOPC   C2B15344  18.568   4.754   7.050 -0.2645  0.0108 -0.1464
 1127YOPC   D3B15345  18.154   4.771   7.060 -0.2131  0.0604  0.2209
 1127YOPC   C4B15346  17.712   4.695   7.196  0.1374 -0.1983  0.0011
 1128YOPC   NC315347   2.998   8.369   5.424 -0.0854 -0.1247 -0.0127
 1128YOPC   PO415348   2.724   7.995   5.409  0.0641 -0.0085  0.3148
 1128YOPC   GL115349   2.906   7.952   5.780  0.0804  0.0526  0.1991
 1128YOPC   GL215350   2.897   8.296   5.999 -0.1256 -0.1565 -0.2512
 1128YOPC   C1A15351   2.756   7.785   6.222  0.0649 -0.3153  0.0760
 1128YOPC   D2A15352   2.721   7.897   6.670 -0.1753  0.0769 -0.3145
 1128YOPC   C3A15353   2.929   7.704   6.967  0.2058  0.1529  0.0424
 1128YOPC   C4A15354   3.160   7.337   6.874  0.0938  0.0969 -0.0240
 1128YOPC   C1B15355   3.101   8.165   6.347  0.0943  0.1780 -0.1831
 1128YOPC   C2B15356   3.167   8.133   6.775  0.1444  0.3677 -0.1983
 1128YOPC   D3B15357   3.252   8.484   6.968 -0.0440  0.2140 -0.1760
 1128YOPC   C4B15358   3.115   8.750   7.337 -0.0044  0.0413 -0.3247
 1129YOPC   NC315359   1.331   4.833   5.354 -0.1188  0.3104 -0.1075
 1129YOPC   PO415360   1.148   5.219   5.153  0.2066 -0.0851 -0.1826
 1129YOPC   GL115361   1.327   5.304   5.610 -0.1119  0.0179  0.1236
 1129YOPC   GL215362   1.626   5.203   5.674 -0.0187 -0.0428 -0.1657
 1129YOPC   C1A15363   1.095   5.376   5.982 -0.1576 -0.1120  0.0360
 1129YOPC   D2A15364   0.763   5.308   6.318  0.2610  0.0010 -0.0251
 1129YOPC   C3A15365   0.725   5.052   6.647 -0.2882 -0.1536  0.1342
 1129YOPC   C4A15366   0.812   4.824   6.887  0.1149  0.1353  0.2104
 1129YOPC   C1B15367   1.595   5.343   6.149  0.1447 -0.1759 -0.0182
 1129YOPC   C2B15368   1.703   5.456   6.567 -0.2637  0.0976 -0.3334
 1129YOPC   D3B15369   1.669   5.228   6.888 -0.1308 -0.0836  0.1141
 1129YOPC   C4B15370   1.685   4.973   7.341 -0.1073 -0.2960  0.0777
 1130YOPC   NC315371   3.066  15.993   5.294 -0.3858  0.4085  0.2013
 1130YOPC   PO415372   3.191  15.629   5.141  0.1379  0.1363  0.2853
 1130YOPC   GL115373   3.445  15.510   5.452  0.2075 -0.0487 -0.4071
 1130YOPC   GL215374   3.659  15.205   5.462 -0.0079  0.0876 -0.0607
 1130YOPC   C1A15375   3.589  15.676   5.840  0.5227 -0.2962  0.0544
 1130YOPC   D2A15376   3.810  15.499   6.108  0.1597  0.3634 -0.0988
 1130YOPC   C3A15377   3.692  15.096   5.963 -0.2508 -0.1127  0.2816
 1130YOPC   C4A15378   3.340  14.887   6.028 -0.1247  0.1368  0.0914
 1130YOPC   C1B15379   4.092  15.001   5.572  0.3002  0.0032 -0.0490
 1130YOPC   C2B15380   4.415  14.917   5.842  0.0125 -0.0101 -0.3600
 1130YOPC   D3B15381   4.715  14.763   5.729  0.2005 -0.0103 -0.0061
 1130YOPC   C4B15382   5.073  14.973   5.565  0.3306  0.0328  0.0946
 1131YOPC   NC315383  11.901   9.294   5.082  0.0978  0.0755  0.0829
 1131YOPC   PO415384  11.530   9.380   5.163  0.1302  0.0272 -0.1223
 1131YOPC   GL115385  11.578   9.387   5.653  0.1016  0.0303 -0.2465
 1131YOPC   GL215386  11.339   9.170   5.888 -0.3201  0.0756 -0.0561
 1131YOPC   C1A15387  11.750   9.396   6.099  0.1230 -0.0268  0.1868
 1131YOPC   D2A15388  11.851   9.043   6.378 -0.1052  0.2278 -0.2482
 1131YOPC   C3A15389  12.162   8.980   6.704  0.2898  0.2627 -0.1314
 1131YOPC   C4A15390  12.157   9.022   7.153  0.0738  0.0167  0.0396
 1131YOPC   C1B15391  11.252   9.254   6.235  0.2330  0.3687 -0.0995
 1131YOPC   C2B15392  11.503   9.380   6.545 -0.0309 -0.0125  0.1232
 1131YOPC   D3B15393  11.485   9.515   6.976 -0.1376  0.1035 -0.0003
 1131YOPC   C4B15394  11.489   9.557   7.466 -0.1350  0.3773  0.1247
 1132YOPC   NC315395  16.149  10.027   5.527  0.1599  0.2363 -0.1323
 1132YOPC   PO415396  15.765  10.062   5.617 -0.0301  0.1204 -0.0903
 1132YOPC   GL115397  15.958   9.890   6.078  0.0199  0.2977 -0.0051
 1132YOPC   GL215398  15.915  10.127   6.338  0.2271 -0.2663  0.0918
 1132YOPC   C1A15399  15.947   9.670   6.447 -0.2196 -0.2491  0.0058
 1132YOPC   D2A15400  15.922   9.740   6.857 -0.1081  0.0109 -0.0443
 1132YOPC   C3A15401  15.761  10.073   7.177  0.1895 -0.1327 -0.0110
 1132YOPC   C4A15402  15.938  10.100   7.620  0.4321 -0.4347  0.3643
 1132YOPC   C1B15403  15.791  10.226   6.705 -0.0330  0.1505 -0.1460
 1132YOPC   C2B15404  15.385  10.386   6.947 -0.1334 -0.0221  0.1639
 1132YOPC   D3B15405  15.506  10.540   7.357 -0.0287 -0.2252 -0.0823
 1132YOPC   C4B15406  15.680  10.586   7.746 -0.0145 -0.1110  0.1856
 1133YOPC   NC315407  13.637  18.577   5.535  0.3744  0.0381 -0.0282
 1133YOPC   PO415408  13.268  18.587   5.618 -0.1086 -0.2795  0.1727
 1133YOPC   GL115409  13.318  18.821   6.004  0.0818 -0.4062  0.2796
 1133YOPC   GL215410  13.176  18.996   6.137  0.1409  0.0508  0.1379
 1133YOPC   C1A15411  13.399  18.596   6.409  0.2027  0.0174  0.4106
 1133YOPC   D2A15412  13.432  18.471   6.824 -0.4343 -0.3910 -0.2959
 1133YOPC   C3A15413  13.320  18.152   7.152  0.0196 -0.3025  0.0856
 1133YOPC   C4A15414  13.367  18.299   7.597  0.0837  0.4152 -0.1471
 1133YOPC   C1B15415  13.057  18.932   6.595 -0.0494  0.0273 -0.0466
 1133YOPC   C2B15416  13.177  18.917   6.990  0.2321  0.1017 -0.0966
 1133YOPC   D3B15417  12.892  18.978   7.285 -0.4853  0.0499 -0.2519
 1133YOPC   C4B15418  12.494  18.833   7.374 -0.0855  0.3626  0.0178
 1134YOPC   NC315419   6.169   7.391   5.084 -0.1952  0.1397 -0.1591
 1134YOPC   PO415420   5.834   7.598   5.283  0.1232 -0.1386  0.0604
 1134YOPC   GL115421   5.426   7.533   5.626  0.1265  0.1678  0.1657
 1134YOPC   GL215422   5.155   7.743   5.641 -0.0531  0.0326  0.0098
 1134YOPC   C1A15423   5.342   7.416   6.059  0.1155 -0.1272  0.4206
 1134YOPC   D2A15424   5.550   7.015   6.292  0.3456  0.1811  0.3689
 1134YOPC   C3A15425   5.823   7.045   6.676  0.0158 -0.0273  0.0263
 1134YOPC   C4A15426   5.957   6.915   7.026  0.2604 -0.2082 -0.0527
 1134YOPC   C1B15427   5.432   7.944   5.938  0.4347  0.0942 -0.0782
 1134YOPC   C2B15428   5.323   8.267   6.150 -0.0719  0.0671  0.0928
 1134YOPC   D3B15429   5.231   8.281   6.566  0.0480  0.0221  0.0675
 1134YOPC   C4B15430   5.295   8.354   7.015 -0.1671  0.0105  0.2464
 1135YOPC   NC315431  14.513   5.930   5.854 -0.1965  0.2290 -0.1625
 1135YOPC   PO415432  14.117   6.119   6.026 -0.0102  0.0373  0.1050
 1135YOPC   GL115433  14.066   6.448   6.349  0.0719 -0.1805  0.1474
 1135YOPC   GL215434  14.176   6.651   6.317 -0.1150  0.1108  0.0965
 1135YOPC   C1A15435  14.212   6.386   6.794  0.1995 -0.0140  0.1646
 1135YOPC   D2A15436  14.436   6.034   6.960 -0.0946 -0.0071 -0.0457
 1135YOPC   C3A15437  14.465   5.730   7.268  0.2725  0.0773 -0.0448
 1135YOPC   C4A15438  14.410   5.716   7.661  0.0742  0.0146 -0.0356
 1135YOPC   C1B15439  14.329   6.909   6.628  0.0699 -0.1439  0.0929
 1135YOPC   C2B15440  14.488   6.936   6.986 -0.0380 -0.0515  0.1052
 1135YOPC   D3B15441  14.326   6.828   7.320 -0.1135 -0.1242  0.2952
 1135YOPC   C4B15442  14.303   6.636   7.718  0.1802 -0.0695 -0.1108
 1136YOPC   NC315443  18.513   3.150   5.730 -0.0564 -0.0346 -0.2154
 1136YOPC   PO415444  18.064   3.388   5.841 -0.1704 -0.0799  0.1512
 1136YOPC   GL115445  18.399   3.429   6.169  0.1750 -0.0623  0.4433
 1136YOPC   GL215446  18.311   3.097   6.309  0.0110 -0.1731 -0.1062
 1136YOPC   C1A15447  18.592   3.619   6.488  0.1744  0.2796 -0.0836
 1136YOPC   D2A15448  18.690   3.897   6.822 -0.1979  0.4069  0.3737
 1136YOPC   C3A15449  18.795   3.894   7.324  0.2548  0.3335  0.1425
 1136YOPC   C4A15450  18.606   4.114   7.714  0.2397  0.0323  0.0256
 1136YOPC   C1B15451  18.285   3.297   6.648 -0.0453 -0.0044 -0.1589
 1136YOPC   C2B15452  18.363   3.525   7.013 -0.3833  0.1505 -0.1943
 1136YOPC   D3B15453  18.071   3.428   7.368 -0.0817  0.1799  0.0745
 1136YOPC   C4B15454  17.757   3.444   7.584 -0.3619  0.2039  0.0512
 1137YOPC   NC315455   6.893   2.568   4.454  0.0654  0.0699 -0.1361
 1137YOPC   PO415456   7.056   2.553   4.872  0.1978  0.0691  0.0103
 1137YOPC   GL115457   7.103   2.521   5.299 -0.0658  0.0322 -0.1792
 1137YOPC   GL215458   7.076   2.668   5.611  0.2428 -0.2754 -0.0190
 1137YOPC   C1A15459   7.411   2.372   5.776  0.1992 -0.2146  0.0150
 1137YOPC   D2A15460   7.636   2.420   6.057 -0.1470  0.2412  0.0992
 1137YOPC   C3A15461   7.586   2.464   6.525  0.2717 -0.0818 -0.0694
 1137YOPC   C4A15462   7.582   2.298   6.952 -0.2868  0.1379 -0.1927
 1137YOPC   C1B15463   7.151   2.667   6.088 -0.0324 -0.0026  0.0096
 1137YOPC   C2B15464   7.086   2.686   6.468  0.2525  0.0726 -0.4947
 1137YOPC   D3B15465   7.261   2.789   6.799  0.3642  0.3134  0.0738
 1137YOPC   C4B15466   7.656   2.789   6.854  0.2163  0.2888 -0.0573
 1138YOPC   NC315467   9.353   9.662   5.382 -0.2923  0.2065 -0.2865
 1138YOPC   PO415468   9.981   9.574   5.403  0.2037 -0.1195  0.0237
 1138YOPC   GL115469   9.879   9.404   5.773 -0.0899  0.0755 -0.1619
 1138YOPC   GL215470   9.611   9.269   5.782  0.0312 -0.1474 -0.0326
 1138YOPC   C1A15471   9.798   9.511   6.244  0.2655  0.1086 -0.0369
 1138YOPC   D2A15472   9.480   9.526   6.571  0.1270 -0.0524 -0.2347
 1138YOPC   C3A15473   9.358   9.637   6.993  0.1545  0.2348  0.2038
 1138YOPC   C4A15474   9.333   9.419   7.378 -0.0016  0.0516  0.1419
 1138YOPC   C1B15475   9.350   9.149   6.150 -0.0772 -0.2005 -0.0567
 1138YOPC   C2B15476   9.044   9.400   6.353 -0.0688 -0.1453  0.1185
 1138YOPC   D3B15477   8.810   9.280   6.680  0.0854 -0.1566  0.3458
 1138YOPC   C4B15478   8.686   9.179   7.036 -0.2755 -0.0200 -0.3469
 1139YOPC   NC315479   3.228  11.319   5.224  0.3814 -0.3327 -0.1632
 1139YOPC   PO415480   2.919  11.491   5.402  0.0931  0.3313  0.2364
 1139YOPC   GL115481   2.945  11.271   5.874 -0.1328 -0.0520 -0.0004
 1139YOPC   GL215482   2.728  11.350   6.073 -0.0189  0.0157 -0.3015
 1139YOPC   C1A15483   3.161  10.945   6.218 -0.0432 -0.1877  0.0181
 1139YOPC   D2A15484   3.228  10.673   6.601  0.0690 -0.0391 -0.4607
 1139YOPC   C3A15485   3.537  10.523   6.973  0.0742  0.2221  0.0943
 1139YOPC   C4A15486   3.719  10.595   7.442 -0.1328 -0.0393  0.0342
 1139YOPC   C1B15487   2.780  11.249   6.512  0.0647  0.1241 -0.0062
 1139YOPC   C2B15488   2.782  11.060   6.859 -0.3700  0.1368  0.2106
 1139YOPC   D3B15489   2.559  11.250   7.197  0.0861 -0.0930 -0.1661
 1139YOPC   C4B15490   2.296  11.367   7.523 -0.0644  0.0294 -0.1853
 1140YOPC   NC315491  18.636   5.234   5.845 -0.2865 -0.0018 -0.5949
 1140YOPC   PO415492  18.175   5.106   5.923 -0.2065 -0.2825  0.2002
 1140YOPC   GL115493  18.404   5.218   6.333 -0.1796 -0.0319 -0.1848
 1140YOPC   GL215494  18.542   5.554   6.307 -0.0633 -0.3108 -0.0763
 1140YOPC   C1A15495  18.370   5.252   6.793  0.1114  0.1278  0.1418
 1140YOPC   D2A15496  18.529   5.226   7.095 -0.2564 -0.1336 -0.3804
 1140YOPC   C3A15497  18.765   5.435   7.326 -0.4112 -0.2896 -0.0763
 1140YOPC   C4A15498  19.022   5.811   7.229  0.1040 -0.2859  0.0036
 1140YOPC   C1B15499  18.972   5.488   6.357 -0.2094  0.0831  0.4235
 1140YOPC   C2B15500  19.340   5.195   6.426 -0.2911  0.1778 -0.2397
 1140YOPC   D3B15501  19.183   4.897   6.764  0.1062 -0.0650  0.1265
 1140YOPC   C4B15502  19.012   4.920   7.106 -0.1059 -0.1615 -0.1552
 1141YOPC   NC315503  18.648  12.839   5.654 -0.1852  0.2178 -0.0475
 1141YOPC   PO415504  18.841  12.612   5.953 -0.2325 -0.1899  0.2051
 1141YOPC   GL115505  18.816  12.536   6.321  0.0635 -0.0193  0.0314
 1141YOPC   GL215506  18.662  12.295   6.352 -0.2299  0.2352  0.1874
 1141YOPC   C1A15507  19.068  12.372   6.733  0.2501  0.0742 -0.1203
 1141YOPC   D2A15508  19.134  12.387   7.238 -0.0392 -0.1537  0.1984
 1141YOPC   C3A15509  18.854  12.264   7.553 -0.0173 -0.0508  0.0032
 1141YOPC   C4A15510  18.560  11.997   7.890 -0.1136  0.2655 -0.1205
 1141YOPC   C1B15511  18.338  12.040   6.593  0.1447  0.1224 -0.0716
 1141YOPC   C2B15512  17.769  12.093   6.609 -0.1414 -0.0244 -0.0714
 1141YOPC   D3B15513  17.637  12.150   7.021  0.0288 -0.0584 -0.1141
 1141YOPC   C4B15514  17.482  11.934   7.299 -0.3318  0.1259  0.1033
 1142YOPC   NC315515  10.886   0.277   5.655 -0.1858 -0.2501 -0.2029
 1142YOPC   PO415516  10.469   0.395   5.528 -0.2190  0.2966  0.1058
 1142YOPC   GL115517  10.452   0.174   5.850 -0.0014 -0.4133 -0.1306
 1142YOPC   GL215518  10.292  -0.069   5.893 -0.1202 -0.3093  0.2559
 1142YOPC   C1A15519  10.586   0.266   6.241 -0.1049 -0.0783 -0.1617
 1142YOPC   D2A15520  10.564   0.447   6.691 -0.1980 -0.1836 -0.3561
 1142YOPC   C3A15521  10.415   0.212   7.060 -0.1696  0.0377 -0.0932
 1142YOPC   C4A15522   9.906   0.033   7.193 -0.1093  0.0100 -0.1233
 1142YOPC   C1B15523  10.348  -0.199   6.265 -0.0586 -0.3348  0.1937
 1142YOPC   C2B15524  10.621  -0.062   6.604  0.1373  0.0452  0.0262
 1142YOPC   D3B15525  10.796  -0.061   6.902  0.4264 -0.1218 -0.0628
 1142YOPC   C4B15526  11.077  -0.274   7.143  0.1141 -0.1679 -0.0998
 1143YOPC   NC315527  17.153   3.431   6.027 -0.2718  0.1621  0.0510
 1143YOPC   PO415528  17.155   3.142   5.757 -0.0030  0.0088 -0.2335
 1143YOPC   GL115529  17.321   2.946   6.243  0.0994  0.2001  0.3231
 1143YOPC   GL215530  17.070   2.769   6.429 -0.0224  0.3151  0.5579
 1143YOPC   C1A15531  17.548   2.788   6.644 -0.1725  0.0385  0.0956
 1143YOPC   D2A15532  17.384   2.430   6.863 -0.0063 -0.0964  0.3482
 1143YOPC   C3A15533  17.281   2.614   7.242  0.0742 -0.1896  0.1291
 1143YOPC   C4A15534  17.176   2.530   7.676 -0.0782  0.0451 -0.2016
 1143YOPC   C1B15535  16.881   2.576   6.784  0.0162  0.3821  0.0363
 1143YOPC   C2B15536  16.729   2.717   7.289  0.1914 -0.0402  0.0157
 1143YOPC   D3B15537  16.673   2.482   7.647  0.2185 -0.1394 -0.2525
 1143YOPC   C4B15538  16.484   2.645   7.936 -0.0305  0.3248 -0.0583
 1144ERGO   ROH15539  18.874   6.817   6.259  0.1589  0.3392 -0.0676
 1144ERGO    R115540  18.931   6.800   6.536  0.0920  0.0818 -0.0662
 1144ERGO    R215541  19.188   6.815   6.636  0.0616  0.0916  0.0173
 1144ERGO    R315542  19.083   7.015   6.788 -0.0666 -0.1057  0.1930
 1144ERGO    R415543  19.296   6.899   6.954  0.1529  0.0276  0.0034
 1144ERGO    R515544  19.087   6.928   7.011  0.1543 -0.2282  0.1420
 1144ERGO    C115545  19.260   7.135   7.281  0.0857 -0.1949  0.1601
 1144ERGO    C215546  19.331   7.210   7.585  0.3496 -0.1109  0.2538
 1145ERGO   ROH15547  18.895  17.862   6.210  0.0539 -0.1682  0.1597
 1145ERGO    R115548  18.789  17.892   6.471  0.1195  0.0040  0.1674
 1145ERGO    R215549  18.693  17.679   6.618 -0.0235  0.1306  0.2550
 1145ERGO    R315550  18.869  17.770   6.805  0.0766  0.0559  0.1979
 1145ERGO    R415551  18.708  17.570   6.946  0.0071  0.1431  0.2578
 1145ERGO    R515552  18.742  17.776   7.008  0.1309  0.1347  0.2333
 1145ERGO    C115553  18.882  17.591   7.311  0.1189  0.0802  0.2057
 1145ERGO    C215554  18.886  17.461   7.702 -0.1136  0.1106  0.0936
 1146ERGO   ROH15555  14.532   7.603   6.101  0.1619 -0.1351  0.2946
 1146ERGO    R115556  14.353   7.767   6.247  0.0576 -0.0562  0.0830
 1146ERGO    R215557  14.355   7.780   6.523 -0.1707  0.0520  0.0830
 1146ERGO    R315558  14.379   8.047   6.477 -0.1014  0.0308 -0.0034
 1146ERGO    R415559  14.254   8.028   6.741 -0.1709  0.1493 -0.0273
 1146ERGO    R515560  14.180   8.142   6.571 -0.1037  0.1066 -0.0848
 1146ERGO    C115561  14.218   8.423   6.826 -0.1061  0.1862 -0.1726
 1146ERGO    C215562  13.950   8.735   6.865 -0.0578 -0.1286  0.1468
 1147ERGO   ROH15563  15.759   0.716   6.234 -0.0535  0.1932  0.0079
 1147ERGO    R115564  15.849   0.590   6.471 -0.0126  0.2394  0.0169
 1147ERGO    R215565  15.949   0.733   6.686 -0.1599  0.2949  0.0490
 1147ERGO    R315566  15.759   0.595   6.824 -0.0903  0.1469 -0.0014
 1147ERGO    R415567  15.887   0.765   7.025 -0.3495  0.3343  0.0120
 1147ERGO    R515568  15.860   0.549   7.035 -0.1420  0.3082  0.0603
 1147ERGO    C115569  15.673   0.654   7.351 -0.3946  0.2184 -0.0569
 1147ERGO    C215570  15.459   0.485   7.533 -0.2398 -0.2773  0.1157
 1148ERGO   ROH15571  12.271   3.443   6.315 -0.1350 -0.0044  0.1571
 1148ERGO    R115572  12.402   3.276   6.501 -0.0683  0.0096  0.1235
 1148ERGO    R215573  12.664   3.317   6.581 -0.0718  0.0761  0.1047
 1148ERGO    R315574  12.555   3.314   6.830 -0.0492  0.0131  0.1139
 1148ERGO    R415575  12.843   3.284   6.874 -0.0407  0.0741  0.0855
 1148ERGO    R515576  12.686   3.154   6.950 -0.0025  0.0266  0.0792
 1148ERGO    C115577  12.845   3.262   7.279 -0.0014  0.0138  0.0828
 1148ERGO    C215578  13.070   3.438   7.528  0.4205 -0.0879  0.2334
 1149ERGO   ROH15579  17.261   6.361   6.347  0.1767 -0.0457  0.1454
 1149ERGO    R115580  17.230   6.234   6.598  0.2085  0.0274  0.1871
 1149ERGO    R215581  17.382   6.301   6.819  0.0389  0.2989  0.2306
 1149ERGO    R315582  17.139   6.335   6.935 -0.0569  0.0778  0.1022
 1149ERGO    R415583  17.317   6.261   7.156 -0.1573  0.0526  0.1663
 1149ERGO    R515584  17.129   6.165   7.103 -0.0640 -0.0296 -0.0101
 1149ERGO    C115585  17.051   6.270   7.461 -0.3616 -0.2985  0.0083
 1149ERGO    C215586  17.158   6.403   7.778  0.3304 -0.0529  0.0622
 1150ERGO   ROH15587  13.549   7.220   5.928 -0.1200  0.2950 -0.0733
 1150ERGO    R115588  13.448   7.282   6.185 -0.1945  0.1712 -0.0716
 1150ERGO    R215589  13.363   7.536   6.254 -0.1308  0.1600  0.0523
 1150ERGO    R315590  13.135   7.404   6.325 -0.2043  0.1952 -0.1146
 1150ERGO    R415591  13.097   7.678   6.423 -0.2080  0.1843 -0.0882
 1150ERGO    R515592  13.079   7.494   6.540 -0.3207  0.1668 -0.1330
 1150ERGO    C115593  12.728   7.638   6.588 -0.3221  0.2315 -0.3268
 1150ERGO    C215594  12.526   7.702   6.820 -0.2359 -0.1404 -0.2402
 1151ERGO   ROH15595  10.924   5.277   6.045 -0.0455  0.0637  0.1064
 1151ERGO    R115596  10.987   5.220   6.315  0.0666 -0.0504  0.0574
 1151ERGO    R215597  11.178   5.360   6.457  0.0627 -0.0506  0.0649
 1151ERGO    R315598  10.975   5.397   6.633  0.1069 -0.2151  0.1517
 1151ERGO    R415599  11.186   5.577   6.725 -0.0394  0.0391 -0.0040
 1151ERGO    R515600  11.083   5.426   6.844  0.1779 -0.0363  0.0911
 1151ERGO    C115601  11.000   5.738   7.047 -0.0573 -0.0631  0.0374
 1151ERGO    C215602  11.114   5.987   7.107 -0.0813 -0.2062  0.1909
 1152ERGO   ROH15603   2.460  10.159   5.858  0.0258 -0.0914 -0.1498
 1152ERGO    R115604   2.570  10.202   6.115  0.1814  0.0177 -0.2312
 1152ERGO    R215605   2.460  10.091   6.344  0.1538  0.3315 -0.0814
 1152ERGO    R315606   2.712   9.996   6.379  0.0692  0.0892 -0.1152
 1152ERGO    R415607   2.617  10.056   6.650  0.2732  0.4675 -0.1268
 1152ERGO    R515608   2.801  10.129   6.558  0.3074  0.1727 -0.2933
 1152ERGO    C115609   2.945   9.947   6.862  0.2634  0.3193 -0.1851
 1152ERGO    C215610   3.180   9.728   6.940 -0.1914  0.2691  0.1760
 1153ERGO   ROH15611   1.861   3.232   5.964 -0.1036 -0.2776  0.0964
 1153ERGO    R115612   1.792   3.287   6.233 -0.0131 -0.1926  0.1016
 1153ERGO    R215613   1.541   3.236   6.336  0.0228 -0.1613  0.2002
 1153ERGO    R315614   1.681   3.095   6.522  0.0852 -0.1018  0.2008
 1153ERGO    R415615   1.429   3.164   6.655  0.0434 -0.2500  0.1893
 1153ERGO    R515616   1.630   3.203   6.729  0.0153 -0.1479  0.2068
 1153ERGO    C115617   1.496   2.989   7.015  0.1140 -0.2458  0.1835
 1153ERGO    C215618   1.335   2.738   7.194  0.0713 -0.3035  0.1308
 1154ERGO   ROH15619   1.820   0.803   5.736  0.0901  0.0425 -0.1182
 1154ERGO    R115620   1.824   0.958   5.973  0.1017 -0.0206 -0.0774
 1154ERGO    R215621   1.631   0.935   6.169 -0.0240  0.0999 -0.1870
 1154ERGO    R315622   1.846   0.893   6.330 -0.1447 -0.1304 -0.0797
 1154ERGO    R415623   1.665   1.060   6.490 -0.0771  0.0145 -0.1476
 1154ERGO    R515624   1.874   1.101   6.446 -0.0116 -0.1737 -0.0305
 1154ERGO    C115625   1.886   1.093   6.828 -0.2213 -0.2515 -0.0238
 1154ERGO    C215626   2.008   1.249   7.085  0.5031 -0.2583  0.1680
 1155ERGO   ROH15627  18.653   5.699   6.787  0.0442  0.0598  0.0727
 1155ERGO    R115628  18.453   5.781   6.970 -0.0326  0.0607 -0.0104
 1155ERGO    R215629  18.191   5.693   6.954 -0.0011 -0.0282 -0.0528
 1155ERGO    R315630  18.235   5.619   7.212 -0.0478  0.0751 -0.0146
 1155ERGO    R415631  17.952   5.696   7.204 -0.0774 -0.0432 -0.1252
 1155ERGO    R515632  18.104   5.772   7.341 -0.1495  0.0645 -0.1042
 1155ERGO    C115633  17.854   5.628   7.591 -0.1657  0.0451 -0.1315
 1155ERGO    C215634  17.843   5.433   7.884  0.2515 -0.1076  0.0185
 1156ERGO   ROH15635  13.159   0.373   6.455  0.2262 -0.0527 -0.0946
 1156ERGO    R115636  13.332   0.277   6.657 -0.0169 -0.1821  0.0553
 1156ERGO    R215637  13.543   0.426   6.755  0.1307 -0.4172  0.0865
 1156ERGO    R315638  13.425   0.375   6.995 -0.0696 -0.1259  0.0553
 1156ERGO    R415639  13.690   0.478   7.064 -0.0236 -0.2720  0.1380
 1156ERGO    R515640  13.602   0.291   7.132 -0.2170 -0.1530  0.2402
 1156ERGO    C115641  13.665   0.461   7.468 -0.3014  0.0860  0.1389
 1156ERGO    C215642  13.914   0.555   7.678 -0.0014 -0.1816 -0.0192
 1157ERGO   ROH15643   2.328  15.206   6.043  0.2673 -0.0592  0.0582
 1157ERGO    R115644   2.473  15.086   6.254  0.1616 -0.0191  0.1555
 1157ERGO    R215645   2.415  15.133   6.520  0.0179  0.0209  0.1206
 1157ERGO    R315646   2.400  14.861   6.532  0.0233  0.0225  0.1526
 1157ERGO    R415647   2.556  14.938   6.768  0.0093  0.0498  0.1477
 1157ERGO    R515648   2.615  14.794   6.615  0.0181  0.0345  0.1694
 1157ERGO    C115649   2.624  14.570   6.923  0.0093  0.0681  0.1934
 1157ERGO    C215650   2.735  14.402   7.264  0.1250 -0.2073 -0.1071
 1158ERGO   ROH15651   3.687  17.016   5.678  0.1109  0.1250 -0.0328
 1158ERGO    R115652   3.546  17.082   5.915  0.0610  0.2394 -0.0946
 1158ERGO    R215653   3.531  16.912   6.131 -0.1984  0.2367 -0.1136
 1158ERGO    R315654   3.627  17.127   6.267 -0.0606  0.1402 -0.0540
 1158ERGO    R415655   3.517  16.950   6.474 -0.4169  0.2798 -0.1248
 1158ERGO    R515656   3.468  17.161   6.443 -0.1581  0.3327 -0.1773
 1158ERGO    C115657   3.599  17.174   6.802 -0.4147  0.2146 -0.0754
 1158ERGO    C215658   3.550  17.119   7.285 -0.2173  0.1981 -0.1258
 1159ERGO   ROH15659  10.556   2.039   6.107 -0.1001  0.0705  0.0878
 1159ERGO    R115660  10.666   2.169   6.334 -0.0597  0.1009  0.0520
 1159ERGO    R215661  10.510   2.257   6.544 -0.0152  0.0552  0.1086
 1159ERGO    R315662  10.681   2.106   6.692  0.0792  0.1009  0.0456
 1159ERGO    R415663  10.509   2.240   6.889  0.1141  0.0433  0.1082
 1159ERGO    R515664  10.728   2.241   6.885  0.1092  0.1057  0.0320
 1159ERGO    C115665  10.670   2.088   7.229  0.2781  0.0794  0.0488
 1159ERGO    C215666  10.600   1.838   7.435  0.1028 -0.2884  0.2943
 1160ERGO   ROH15667  14.184   3.510   6.146 -0.0998  0.1616  0.2491
 1160ERGO    R115668  14.307   3.309   6.303 -0.1241  0.0147  0.0839
 1160ERGO    R215669  14.493   3.367   6.499  0.0296 -0.1859  0.0042
 1160ERGO    R315670  14.324   3.223   6.656  0.0342 -0.1563  0.0353
 1160ERGO    R415671  14.590   3.118   6.718  0.0297 -0.1636  0.0288
 1160ERGO    R515672  14.417   3.002   6.656  0.0199 -0.1606  0.0576
 1160ERGO    C115673  14.488   2.837   6.992  0.0339 -0.1228  0.0722
 1160ERGO    C215674  14.735   2.688   7.388  0.1211 -0.3535  0.0260
 1161ERGO   ROH15675   2.228   7.133   6.048  0.0794 -0.1295 -0.1395
 1161ERGO    R115676   2.448   7.155   6.224 -0.0334  0.0738 -0.0205
 1161ERGO    R215677   2.485   7.374   6.389 -0.3218  0.1113 -0.0002
 1161ERGO    R315678   2.496   7.184   6.584 -0.2530  0.1223  0.0066
 1161ERGO    R415679   2.567   7.434   6.719 -0.0459  0.1050 -0.0654
 1161ERGO    R515680   2.683   7.249   6.719 -0.1217  0.0567 -0.1389
 1161ERGO    C115681   2.626   7.291   7.094  0.1792  0.1116 -0.0971
 1161ERGO    C215682   2.879   7.300   7.371  0.0684  0.0589 -0.0842
 1162ERGO   ROH15683  13.745   4.768   7.246  0.0207 -0.0069  0.2374
 1162ERGO    R115684  13.553   4.567   7.299  0.1348 -0.1637  0.0690
 1162ERGO    R215685  13.622   4.306   7.354  0.3039 -0.0959  0.1891
 1162ERGO    R315686  13.471   4.346   7.576  0.0317 -0.1824  0.0237
 1162ERGO    R415687  13.536   4.059   7.580  0.3728 -0.1058  0.2048
 1162ERGO    R515688  13.337   4.148   7.593  0.2504 -0.3380 -0.0302
 1162ERGO    C115689  13.343   3.953   7.921  0.1574 -0.1928  0.0587
 1162ERGO    C215690  13.446   3.751   8.106  0.1774  0.3136 -0.1447
 1163ERGO   ROH15691  11.581   0.442   6.111  0.0183 -0.2798 -0.0116
 1163ERGO    R115692  11.594   0.554   6.371 -0.1650 -0.0932 -0.0820
 1163ERGO    R215693  11.380   0.549   6.545 -0.1456 -0.3738 -0.0746
 1163ERGO    R315694  11.560   0.433   6.712  0.0789  0.0560  0.0000
 1163ERGO    R415695  11.379   0.581   6.889 -0.3320 -0.3067 -0.0787
 1163ERGO    R515696  11.596   0.597   6.883 -0.3456  0.1867 -0.0144
 1163ERGO    C115697  11.547   0.490   7.247 -0.2298  0.1359 -0.0109
 1163ERGO    C215698  11.317   0.476   7.505  0.0189  0.1523  0.1122
 1164ERGO   ROH15699   5.887  12.208   7.227  0.0138  0.1524 -0.2160
 1164ERGO    R115700   5.980  12.011   7.409  0.0436  0.3246 -0.0418
 1164ERGO    R215701   6.009  11.746   7.339 -0.2527  0.1971  0.2884
 1164ERGO    R315702   6.262  11.783   7.431 -0.1204  0.1201 -0.0342
 1164ERGO    R415703   6.209  11.497   7.472 -0.2043  0.1617  0.1506
 1164ERGO    R515704   6.278  11.640   7.622  0.0456  0.1950  0.0094
 1164ERGO    C115705   6.564  11.388   7.635 -0.0521  0.0690 -0.2324
 1164ERGO    C215706   6.696  11.143   7.813 -0.0148  0.2756  0.1177
 1165ERGO   ROH15707  17.798  17.598   6.273 -0.2131  0.0071 -0.0800
 1165ERGO    R115708  17.709  17.632   6.540 -0.1748 -0.0515 -0.0603
 1165ERGO    R215709  17.591  17.427   6.684  0.0042 -0.1313 -0.0308
 1165ERGO    R315710  17.786  17.486   6.864  0.0031  0.0090 -0.0731
 1165ERGO    R415711  17.566  17.376   7.025  0.0534 -0.0164 -0.0091
 1165ERGO    R515712  17.667  17.567   7.056 -0.0121  0.0371 -0.0906
 1165ERGO    C115713  17.734  17.402   7.393  0.0812  0.1823 -0.0362
 1165ERGO    C215714  17.936  17.332   7.645 -0.1700  0.2645  0.1801
 1166ERGO   ROH15715  11.664  15.613   6.348 -0.1283  0.1306 -0.0527
 1166ERGO    R115716  11.657  15.807   6.555  0.0348  0.2086 -0.1186
 1166ERGO    R215717  11.587  15.744   6.815 -0.0680  0.3649 -0.1088
 1166ERGO    R315718  11.826  15.860   6.872  0.0421  0.1456 -0.1109
 1166ERGO    R415719  11.688  15.843   7.130  0.0782  0.1520 -0.0863
 1166ERGO    R515720  11.775  16.022   7.041  0.2078  0.1209 -0.0321
 1166ERGO    C115721  11.971  16.011   7.367  0.2666 -0.1779 -0.0752
 1166ERGO    C215722  12.362  15.918   7.503  0.3103 -0.1421  0.0713
 1167ERGO   ROH15723   9.343   8.711   8.069 -0.0982  0.0710  0.0486
 1167ERGO    R115724   9.382   8.750   7.792 -0.0152  0.0803  0.0616
 1167ERGO    R215725   9.182   8.709   7.606  0.0785 -0.0380 -0.0106
 1167ERGO    R315726   9.242   8.963   7.532 -0.0348 -0.0081 -0.0026
 1167ERGO    R415727   9.158   8.830   7.284  0.1837 -0.0962 -0.0408
 1167ERGO    R515728   9.345   8.939   7.317  0.1036  0.0243  0.0549
 1167ERGO    C115729   9.201   9.140   7.026  0.1386 -0.1021 -0.0509
 1167ERGO    C215730   9.251   9.082   6.730 -0.3188 -0.1120 -0.0162
 1168ERGO   ROH15731   1.171  14.806   6.647  0.2341 -0.2375 -0.0128
 1168ERGO    R115732   1.008  14.757   6.874  0.0610 -0.0733 -0.0982
 1168ERGO    R215733   1.073  14.569   7.066 -0.2186 -0.1223 -0.0464
 1168ERGO    R315734   1.046  14.780   7.235 -0.1187 -0.0836 -0.0780
 1168ERGO    R415735   1.021  14.543   7.406  0.1354 -0.0451  0.0172
 1168ERGO    R515736   0.880  14.709   7.392  0.0633 -0.0972  0.1122
 1168ERGO    C115737   0.965  14.726   7.764  0.4353  0.0363  0.0245
 1168ERGO    C215738   0.988  14.951   8.025 -0.3289 -0.0210  0.2502
 1169ERGO   ROH15739   8.585  17.849   5.915 -0.2330 -0.1359  0.0910
 1169ERGO    R115740   8.584  18.036   6.127 -0.2123 -0.2754  0.2141
 1169ERGO    R215741   8.602  17.960   6.393  0.3018 -0.4251  0.1393
 1169ERGO    R315742   8.811  18.134   6.394  0.0377 -0.0923 -0.0561
 1169ERGO    R415743   8.717  18.128   6.672  0.4038 -0.4105  0.0895
 1169ERGO    R515744   8.745  18.305   6.548 -0.0430 -0.2813  0.1375
 1169ERGO    C115745   8.980  18.390   6.836  0.2153 -0.0897 -0.1229
 1169ERGO    C215746   9.134  18.643   7.013 -0.0007  0.0502 -0.1968
 1170ERGO   ROH15747   1.271   0.061   6.035 -0.0085 -0.0155  0.2255
 1170ERGO    R115748   1.118   0.113   6.267  0.0500 -0.0802  0.2787
 1170ERGO    R215749   1.181   0.006   6.514  0.2288  0.0132  0.2721
 1170ERGO    R315750   1.174   0.267   6.592  0.0737  0.0240  0.2269
 1170ERGO    R415751   1.117   0.116   6.836  0.2418  0.0188  0.2728
 1170ERGO    R515752   0.997   0.277   6.752  0.1066 -0.0732  0.2748
 1170ERGO    C115753   1.074   0.424   7.096  0.1038  0.0321  0.2309
 1170ERGO    C215754   1.102   0.466   7.424  0.1889  0.2756 -0.1440
 1171ERGO   ROH15755  18.859   9.482   6.404  0.0963 -0.2044  0.1473
 1171ERGO    R115756  18.871   9.468   6.687  0.3143 -0.2541  0.1371
 1171ERGO    R215757  19.103   9.520   6.829  0.2977  0.2561 -0.0069
 1171ERGO    R315758  18.944   9.698   6.959 -0.0450 -0.1432  0.1471
 1171ERGO    R415759  19.172   9.656   7.139  0.2236  0.3742 -0.0411
 1171ERGO    R515760  18.961   9.635   7.190  0.2970 -0.1516  0.1281
 1171ERGO    C115761  19.063   9.903   7.442 -0.1412  0.0678  0.0835
 1171ERGO    C215762  19.147  10.233   7.608 -0.0598 -0.1254  0.2096
 1172ERGO   ROH15763   9.470   3.172   5.732 -0.0137 -0.1790 -0.1155
 1172ERGO    R115764   9.525   3.152   6.008  0.0370 -0.0717 -0.1169
 1172ERGO    R215765   9.329   3.096   6.195  0.0363  0.1743 -0.0374
 1172ERGO    R315766   9.499   2.895   6.265 -0.0966  0.0829  0.0262
 1172ERGO    R415767   9.399   3.001   6.520  0.1298  0.3687  0.0001
 1172ERGO    R515768   9.608   2.977   6.463  0.0794  0.1456 -0.0950
 1172ERGO    C115769   9.599   2.759   6.776  0.0594  0.3961  0.0817
 1172ERGO    C215770   9.572   2.710   7.164  0.0191  0.4375 -0.0748
 1173ERGO   ROH15771   4.618  15.523   5.573 -0.1005 -0.3321 -0.1408
 1173ERGO    R115772   4.769  15.333   5.719 -0.0405 -0.2450 -0.0901
 1173ERGO    R215773   4.933  15.404   5.930 -0.0273 -0.1310 -0.1410
 1173ERGO    R315774   4.787  15.218   6.064  0.0329 -0.1129 -0.0480
 1173ERGO    R415775   5.042  15.230   6.209  0.0750 -0.0344 -0.1195
 1173ERGO    R515776   4.947  15.051   6.128  0.0760 -0.0729 -0.0440
 1173ERGO    C115777   4.968  14.954   6.496  0.1911  0.0388 -0.0198
 1173ERGO    C215778   4.792  14.944   6.802  0.1894  0.3267 -0.1503
 1174ERGO   ROH15779  17.882   9.685   6.177 -0.0652 -0.0353  0.0025
 1174ERGO    R115780  17.872   9.748   6.453  0.1401  0.1338 -0.0255
 1174ERGO    R215781  17.756   9.580   6.640 -0.1198  0.4426  0.1037
 1174ERGO    R315782  17.998   9.602   6.762 -0.0286  0.0565  0.0081
 1174ERGO    R415783  17.812   9.531   6.977 -0.0611  0.3508  0.0806
 1174ERGO    R515784  17.948   9.701   6.975  0.2130  0.1374  0.0294
 1174ERGO    C115785  18.072   9.524   7.289  0.0586 -0.0651 -0.0226
 1174ERGO    C215786  18.030   9.371   7.630 -0.1881 -0.1397 -0.0086
 1175ERGO   ROH15787   5.798  11.437   5.564  0.1258  0.1874  0.0110
 1175ERGO    R115788   5.667  11.362   5.802  0.1342  0.0473 -0.0279
 1175ERGO    R215789   5.796  11.231   6.009  0.2085  0.1655  0.0016
 1175ERGO    R315790   5.698  11.437   6.157 -0.0361  0.0656 -0.0159
 1175ERGO    R415791   5.805  11.246   6.354  0.3829  0.2990 -0.0072
 1175ERGO    R515792   5.604  11.331   6.350  0.2416 -0.0219  0.0765
 1175ERGO    C115793   5.719  11.448   6.694  0.2548  0.2828 -0.0289
 1175ERGO    C215794   5.612  11.476   7.129  0.0171 -0.0719  0.0848
 1176ERGO   ROH15795  10.859  15.319   6.463 -0.0568 -0.0356  0.0659
 1176ERGO    R115796  10.800  15.375   6.734 -0.0094 -0.0413  0.0771
 1176ERGO    R215797  10.707  15.182   6.909 -0.0553 -0.0256  0.0676
 1176ERGO    R315798  10.918  15.263   7.060 -0.0134 -0.1112  0.0552
 1176ERGO    R415799  10.701  15.215   7.253  0.0271 -0.1857  0.0855
 1176ERGO    R515800  10.820  15.398   7.232  0.0357 -0.1832  0.1422
 1176ERGO    C115801  10.897  15.310   7.595  0.1144 -0.3591  0.0843
 1176ERGO    C215802  10.722  15.351   7.953 -0.0296  0.1981  0.0884
 1177ERGO   ROH15803  13.037  11.970   6.202 -0.0701  0.4222  0.0651
 1177ERGO    R115804  13.152  12.001   6.459 -0.0048  0.3351  0.0481
 1177ERGO    R215805  13.098  12.219   6.621 -0.0608  0.2237  0.1888
 1177ERGO    R315806  13.031  12.027   6.801  0.0859  0.0877  0.1004
 1177ERGO    R415807  13.052  12.273   6.959 -0.0828  0.0217  0.2183
 1177ERGO    R515808  13.154  12.084   6.998  0.0527  0.0775  0.1206
 1177ERGO    C115809  12.963  12.124   7.325  0.0421 -0.2236  0.1525
 1177ERGO    C215810  12.685  11.955   7.582  0.0773 -0.0040 -0.1331
 1178ERGO   ROH15811  16.975  13.389   6.482  0.0107  0.0005  0.0403
 1178ERGO    R115812  17.009  13.496   6.742  0.2135  0.1270 -0.0363
 1178ERGO    R215813  16.847  13.426   6.954  0.1151  0.5370  0.0335
 1178ERGO    R315814  17.084  13.366   7.073  0.0364  0.2290  0.0442
 1178ERGO    R415815  16.892  13.381   7.294  0.0365  0.3849  0.0255
 1178ERGO    R515816  17.080  13.489   7.278  0.1615  0.1721  0.0787
 1178ERGO    C115817  17.140  13.299   7.604 -0.0833  0.0071  0.0310
 1178ERGO    C215818  17.265  13.178   7.846 -0.0752 -0.0157 -0.1061
 1179ERGO   ROH15819   2.959  15.707   5.703 -0.0555  0.0865  0.0267
 1179ERGO    R115820   2.969  15.622   5.973 -0.0659  0.2123  0.0676
 1179ERGO    R215821   3.146  15.429   6.061 -0.2387  0.0693  0.1122
 1179ERGO    R315822   3.216  15.621   6.241  0.0148  0.0927 -0.0067
 1179ERGO    R415823   3.367  15.383   6.323 -0.0741  0.0320 -0.0311
 1179ERGO    R515824   3.235  15.503   6.448  0.0939  0.1600  0.0229
 1179ERGO    C115825   3.561  15.536   6.644  0.2596  0.0322 -0.2262
 1179ERGO    C215826   3.715  15.636   6.901 -0.0301 -0.3490 -0.1368
 1180ERGO   ROH15827  15.404   1.201   6.109 -0.1355 -0.5214  0.0553
 1180ERGO    R115828  15.530   1.114   6.348 -0.0202 -0.2762  0.0865
 1180ERGO    R215829  15.720   1.266   6.479 -0.2476  0.0393  0.0594
 1180ERGO    R315830  15.554   1.231   6.692 -0.2109 -0.1494  0.0590
 1180ERGO    R415831  15.823   1.233   6.807 -0.1980 -0.0252  0.0377
 1180ERGO    R515832  15.672   1.079   6.835 -0.1013 -0.1341 -0.0109
 1180ERGO    C115833  15.728   1.181   7.198 -0.1349 -0.2400  0.0247
 1180ERGO    C215834  15.789   1.194   7.532  0.2285  0.0987 -0.1055
 1181ERGO   ROH15835  12.075   0.449   6.165 -0.2018 -0.1366 -0.0093
 1181ERGO    R115836  12.173   0.381   6.421 -0.2654 -0.1890  0.0033
 1181ERGO    R215837  12.285   0.567   6.592 -0.0115 -0.2736 -0.0530
 1181ERGO    R315838  12.099   0.472   6.766 -0.1273  0.0087 -0.0199
 1181ERGO    R415839  12.325   0.547   6.935 -0.0234 -0.2711 -0.0528
 1181ERGO    R515840  12.225   0.353   6.930 -0.2826 -0.1326 -0.0089
 1181ERGO    C115841  12.174   0.445   7.297 -0.1391 -0.0048 -0.0217
 1181ERGO    C215842  12.174   0.425   7.624  0.3862 -0.0098 -0.1354
 1182ERGO   ROH15843   2.653   5.275   6.023 -0.0414 -0.4127 -0.0299
 1182ERGO    R115844   2.698   5.193   6.291  0.3116 -0.0756  0.0247
 1182ERGO    R215845   2.817   5.358   6.479  0.0474  0.3864 -0.1839
 1182ERGO    R315846   2.592   5.303   6.621  0.2435 -0.0199 -0.0177
 1182ERGO    R415847   2.750   5.475   6.797 -0.0542  0.4805 -0.2402
 1182ERGO    R515848   2.668   5.280   6.847  0.4182  0.3277 -0.0412
 1182ERGO    C115849   2.501   5.492   7.116  0.0707  0.1538 -0.1169
 1182ERGO    C215850   2.445   5.574   7.581  0.1500 -0.3016 -0.3327
 1183ERGO   ROH15851   0.163   6.371   6.282  0.4485 -0.2324 -0.2297
 1183ERGO    R115852   0.369   6.402   6.473  0.4590 -0.3387 -0.2260
 1183ERGO    R215853   0.321   6.401   6.745  0.3978  0.0438 -0.2388
 1183ERGO    R315854   0.509   6.204   6.745  0.1012 -0.2556  0.0291
 1183ERGO    R415855   0.497   6.296   7.024  0.3604  0.2990 -0.1148
 1183ERGO    R515856   0.676   6.281   6.899  0.2938 -0.2069 -0.1883
 1183ERGO    C115857   0.776   6.051   7.186  0.0603  0.1665  0.2089
 1183ERGO    C215858   0.998   5.884   7.329  0.1060  0.3495 -0.2228
 1184ERGO   ROH15859  12.060   8.512   5.847  0.2121  0.0769 -0.0408
 1184ERGO    R115860  12.028   8.416   6.111  0.2262  0.2095  0.0080
 1184ERGO    R215861  12.050   8.579   6.333 -0.1066  0.3905 -0.0981
 1184ERGO    R315862  11.803   8.480   6.390  0.0034  0.0799 -0.1349
 1184ERGO    R415863  11.911   8.562   6.649 -0.2211  0.4733 -0.1414
 1184ERGO    R515864  11.831   8.366   6.599  0.0826  0.2985 -0.0147
 1184ERGO    C115865  11.599   8.459   6.887 -0.1845  0.2300 -0.2011
 1184ERGO    C215866  11.483   8.490   7.136  0.1488  0.2291  0.1306
 1185ERGO   ROH15867   8.341   4.754   5.706 -0.1142 -0.0753 -0.0361
 1185ERGO    R115868   8.187   4.814   5.936 -0.0900 -0.1542  0.0011
 1185ERGO    R215869   8.197   4.661   6.166  0.0606 -0.1372  0.0074
 1185ERGO    R315870   8.253   4.900   6.284 -0.0490 -0.0974 -0.0206
 1185ERGO    R415871   8.237   4.710   6.506 -0.0566 -0.0598  0.0105
 1185ERGO    R515872   8.127   4.896   6.487 -0.1093 -0.0974 -0.0578
 1185ERGO    C115873   8.313   4.962   6.814 -0.2278  0.0226 -0.0139
 1185ERGO    C215874   8.422   4.934   7.174  0.0879  0.1385 -0.2040
 1186ERGO   ROH15875   0.345   7.947   6.426  0.0209 -0.0417 -0.1089
 1186ERGO    R115876   0.428   8.043   6.679 -0.1221 -0.1177 -0.0312
 1186ERGO    R215877   0.530   7.878   6.875 -0.0663 -0.1559 -0.0827
 1186ERGO    R315878   0.737   8.054   6.870 -0.1859 -0.0094  0.0631
 1186ERGO    R415879   0.732   7.952   7.146 -0.1638 -0.1632 -0.0081
 1186ERGO    R515880   0.728   8.161   7.084 -0.2950 -0.1369  0.1168
 1186ERGO    C115881   1.044   8.160   7.299 -0.3328 -0.0299  0.1723
 1186ERGO    C215882   1.197   8.238   7.535 -0.0594  0.2107  0.0923
 1187ERGO   ROH15883   0.319  16.490   5.878  0.1637 -0.0108 -0.1385
 1187ERGO    R115884   0.498  16.541   6.091  0.0227 -0.2758  0.0492
 1187ERGO    R215885   0.518  16.788   6.213  0.4233 -0.2299 -0.0963
 1187ERGO    R315886   0.473  16.645   6.439 -0.1833  0.0085 -0.0466
 1187ERGO    R415887   0.556  16.909   6.534  0.5785 -0.1786 -0.1327
 1187ERGO    R515888   0.643  16.717   6.591 -0.0461 -0.4395  0.0289
 1187ERGO    C115889   0.536  16.845   6.934  0.0993  0.0749 -0.1073
 1187ERGO    C215890   0.405  17.040   7.024  0.1142 -0.0880 -0.1397
 1188ERGO   ROH15891  13.037  17.343   5.992  0.0372 -0.0299  0.1231
 1188ERGO    R115892  12.887  17.162   6.149  0.0001 -0.0482  0.0664
 1188ERGO    R215893  13.002  17.004   6.345 -0.0379 -0.1062  0.0413
 1188ERGO    R315894  12.812  17.118   6.503 -0.0406 -0.1201  0.0488
 1188ERGO    R415895  12.867  16.857   6.627  0.0938 -0.0492  0.1354
 1188ERGO    R515896  12.671  16.934   6.568  0.0479 -0.1496  0.1578
 1188ERGO    C115897  12.610  16.878   6.940  0.1679 -0.0291  0.1971
 1188ERGO    C215898  12.663  16.606   7.097  0.1360 -0.0522 -0.0271
 1189ERGO   ROH15899   3.996  16.539   5.796  0.1890  0.0900  0.0757
 1189ERGO    R115900   3.861  16.449   6.029 -0.0252  0.0308 -0.0689
 1189ERGO    R215901   3.979  16.448   6.278 -0.1591 -0.2896 -0.0033
 1189ERGO    R315902   3.760  16.593   6.347 -0.0558 -0.1295 -0.0048
 1189ERGO    R415903   3.886  16.524   6.603 -0.0681 -0.1656 -0.0055
 1189ERGO    R515904   3.679  16.488   6.547 -0.1016 -0.0392  0.0265
 1189ERGO    C115905   3.626  16.705   6.856  0.0818  0.0571 -0.0081
 1189ERGO    C215906   3.426  16.730   7.047  0.0024  0.2440  0.1435
 1190ERGO   ROH15907  16.078  12.824   6.065 -0.1441  0.1621 -0.0555
 1190ERGO    R115908  16.076  12.670   6.302  0.0710  0.0691 -0.1126
 1190ERGO    R215909  16.271  12.693   6.496 -0.0364  0.3794 -0.0422
 1190ERGO    R315910  16.058  12.736   6.660 -0.1811 -0.0914 -0.0916
 1190ERGO    R415911  16.261  12.615   6.833  0.0779  0.3763 -0.0386
 1190ERGO    R515912  16.056  12.546   6.806  0.2249 -0.0992 -0.0791
 1190ERGO    C115913  16.055  12.609   7.182  0.0086 -0.0674 -0.0827
 1190ERGO    C215914  16.243  12.644   7.436  0.1992  0.1097 -0.0186
 1191ERGO   ROH15915   8.251  16.789   5.849 -0.0357 -0.0952 -0.0646
 1191ERGO    R115916   8.085  16.722   6.067 -0.0367  0.0770 -0.0105
 1191ERGO    R215917   8.061  16.463   6.161 -0.2600  0.1028  0.0086
 1191ERGO    R315918   8.129  16.577   6.398 -0.0758  0.0496 -0.0175
 1191ERGO    R415919   8.059  16.300   6.466  0.2967 -0.0593 -0.0643
 1191ERGO    R515920   7.977  16.481   6.557  0.2218 -0.1900  0.1325
 1191ERGO    C115921   8.123  16.313   6.866  0.7936 -0.2038 -0.1312
 1191ERGO    C215922   8.118  16.327   7.140 -0.0534 -0.2865 -0.1393
 1192ERGO   ROH15923  15.524   9.323   5.973  0.0136 -0.1137 -0.0452
 1192ERGO    R115924  15.550   9.388   6.248  0.1905 -0.0318 -0.0783
 1192ERGO    R215925  15.343   9.357   6.428  0.2165  0.2692  0.0202
 1192ERGO    R315926  15.526   9.210   6.564  0.1107  0.1143 -0.0036
 1192ERGO    R415927  15.354   9.323   6.772  0.1589  0.1307  0.0083
 1192ERGO    R515928  15.571   9.338   6.761  0.1613  0.0079  0.0471
 1192ERGO    C115929  15.533   9.165   7.100  0.0262 -0.0955 -0.0208
 1192ERGO    C215930  15.510   9.111   7.440 -0.0440 -0.0301  0.0481
 1193ERGO   ROH15931   7.868   8.779   5.798 -0.3425  0.0579  0.0009
 1193ERGO    R115932   7.684   8.854   6.000 -0.2594  0.0511  0.0798
 1193ERGO    R215933   7.441   8.725   6.035 -0.2801  0.1041  0.1216
 1193ERGO    R315934   7.532   8.696   6.290 -0.2081  0.0126  0.0864
 1193ERGO    R415935   7.254   8.779   6.320 -0.1241  0.2706  0.1947
 1193ERGO    R515936   7.427   8.873   6.412  0.0004  0.1088  0.1322
 1193ERGO    C115937   7.229   8.784   6.725  0.0344  0.2817  0.2042
 1193ERGO    C215938   7.226   8.683   7.133  0.1758  0.2277 -0.1405
 1194ERGO   ROH15939   7.370   6.465   5.778  0.1895  0.1433 -0.1090
 1194ERGO    R115940   7.449   6.572   6.028  0.1356  0.0580 -0.0550
 1194ERGO    R215941   7.276   6.597   6.241  0.1108 -0.0933 -0.0569
 1194ERGO    R315942   7.467   6.455   6.372  0.1468 -0.0901 -0.1055
 1194ERGO    R415943   7.295   6.561   6.585  0.0994 -0.2385 -0.0703
 1194ERGO    R515944   7.511   6.584   6.570  0.0930 -0.1630 -0.0459
 1194ERGO    C115945   7.486   6.408   6.908  0.1267 -0.3200 -0.1236
 1194ERGO    C215946   7.425   6.551   7.274 -0.0197  0.0207 -0.2355
 1195ERGO   ROH15947  18.988  10.438   6.049 -0.0091 -0.0164 -0.0288
 1195ERGO    R115948  18.971  10.455   6.331  0.0268 -0.0805 -0.0224
 1195ERGO    R215949  19.192  10.431   6.496  0.0688  0.0154 -0.0625
 1195ERGO    R315950  19.106  10.670   6.592 -0.0545 -0.0517 -0.0041
 1195ERGO    R415951  19.285  10.567   6.800 -0.0441 -0.0336 -0.0058
 1195ERGO    R515952  19.079  10.634   6.827 -0.0783 -0.1338 -0.0197
 1195ERGO    C115953  19.258  10.871   7.067 -0.2256 -0.1251  0.0820
 1195ERGO    C215954  19.292  11.194   7.369  0.0349  0.0955 -0.2585
 1196ERGO   ROH15955  16.871   1.201   5.925  0.0698 -0.0802  0.0195
 1196ERGO    R115956  16.861   1.093   6.187  0.1201 -0.0171  0.0479
 1196ERGO    R215957  17.019   1.187   6.393  0.0065  0.1776  0.0498
 1196ERGO    R315958  16.780   1.215   6.520 -0.0405  0.0075 -0.0002
 1196ERGO    R415959  16.978   1.306   6.715 -0.1687  0.3805 -0.0446
 1196ERGO    R515960  16.826   1.154   6.747 -0.0010  0.2331  0.0524
 1196ERGO    C115961  16.730   1.400   7.021 -0.3148  0.3389 -0.1464
 1196ERGO    C215962  16.705   1.639   7.290  0.1503  0.1233 -0.1152
 1197ERGO   ROH15963  10.624  15.638   6.010  0.0845 -0.3515  0.2423
 1197ERGO    R115964  10.624  15.767   6.262 -0.0596 -0.1599  0.1479
 1197ERGO    R215965  10.396  15.793   6.416 -0.1203 -0.1726  0.0645
 1197ERGO    R315966  10.550  15.674   6.606 -0.1038  0.0549  0.1970
 1197ERGO    R415967  10.339  15.810   6.756 -0.3093 -0.0816  0.0291
 1197ERGO    R515968  10.553  15.831   6.787 -0.3450  0.1353  0.1330
 1197ERGO    C115969  10.449  15.708   7.133 -0.4039  0.1850  0.1328
 1197ERGO    C215970  10.323  15.583   7.412 -0.2274 -0.0070 -0.1185
 1198ERGO   ROH15971   9.964   1.125   5.980 -0.0515  0.0023  0.1266
 1198ERGO    R115972   9.813   0.962   6.156 -0.0663  0.0420  0.1518
 1198ERGO    R215973   9.754   0.698   6.099 -0.1429  0.0543  0.1635
 1198ERGO    R315974   9.868   0.654   6.342 -0.1147  0.0300  0.1452
 1198ERGO    R415975   9.633   0.478   6.337 -0.0527 -0.0482  0.1148
 1198ERGO    R515976   9.682   0.625   6.491 -0.0946 -0.0724  0.1489
 1198ERGO    C115977   9.670   0.309   6.704  0.0264 -0.1307  0.0693
 1198ERGO    C215978   9.462   0.028   6.930  0.4058 -0.2386 -0.0957
 1199ERGO   ROH15979  11.885   6.839   5.904  0.1656  0.1536 -0.0323
 1199ERGO    R115980  11.833   6.917   6.171  0.1455  0.0523 -0.0069
 1199ERGO    R215981  11.636   7.099   6.237  0.2455  0.1452  0.0308
 1199ERGO    R315982  11.552   6.899   6.402  0.0727  0.1160 -0.0894
 1199ERGO    R415983  11.453   7.146   6.527  0.1521  0.1153 -0.0220
 1199ERGO    R515984  11.574   6.991   6.622  0.0328  0.0087 -0.0392
 1199ERGO    C115985  11.268   6.986   6.850 -0.0645  0.0704 -0.1656
 1199ERGO    C215986  11.199   6.981   7.149 -0.2507  0.2251  0.3150
 1200ERGO   ROH15987  17.304  14.471   6.248  0.2527  0.1249 -0.1220
 1200ERGO    R115988  17.349  14.553   6.516  0.0870  0.0491 -0.0693
 1200ERGO    R215989  17.538  14.742   6.584  0.1307 -0.0557  0.1150
 1200ERGO    R315990  17.327  14.863   6.705  0.0936  0.0230 -0.0264
 1200ERGO    R415991  17.561  15.011   6.800  0.0745 -0.0098  0.0641
 1200ERGO    R515992  17.407  14.918   6.923 -0.0125  0.0564  0.0033
 1200ERGO    C115993  17.376  15.280   7.040  0.0068  0.0906 -0.0983
 1200ERGO    C215994  17.253  15.541   7.063  0.1041 -0.0544 -0.2343
 1201ERGO   ROH15995   7.209   6.977   5.989  0.3324  0.0626 -0.1183
 1201ERGO    R115996   7.196   7.121   6.233  0.2527  0.0533 -0.1158
 1201ERGO    R215997   7.420   7.177   6.385  0.2064  0.0478 -0.0366
 1201ERGO    R315998   7.330   7.433   6.363  0.2127  0.0467 -0.0620
 1201ERGO    R415999   7.532   7.443   6.575  0.0167  0.0168  0.1204
 1201ERGO    R516000   7.326   7.514   6.588  0.0037  0.0010 -0.0503
 1201ERGO    C116001   7.513   7.838   6.665 -0.0879 -0.0023  0.1880
 1201ERGO    C216002   7.799   7.877   6.872 -0.0731 -0.1262  0.2351
 1202ERGO   ROH16003  13.101   6.974   6.235  0.0184  0.0305  0.0502
 1202ERGO    R116004  13.226   6.991   6.488  0.0119 -0.1272  0.0651
 1202ERGO    R216005  13.083   7.004   6.724  0.0053 -0.1710  0.0611
 1202ERGO    R316006  13.238   6.791   6.791 -0.0832 -0.2610 -0.0175
 1202ERGO    R416007  13.167   6.914   7.047  0.3227 -0.0599  0.0136
 1202ERGO    R516008  13.367   6.867   6.977  0.2073 -0.2593 -0.2108
 1202ERGO    C116009  13.360   6.661   7.298  0.4245 -0.0796 -0.0878
 1202ERGO    C216010  13.221   6.474   7.513 -0.1383 -0.1662 -0.1693
 1203ERGO   ROH16011   3.047  11.785   5.847  0.0612 -0.0864 -0.2431
 1203ERGO    R116012   3.218  11.671   6.043  0.0239  0.0501 -0.1292
 1203ERGO    R216013   3.188  11.721   6.313 -0.1447  0.0932 -0.1510
 1203ERGO    R316014   3.180  11.450   6.329 -0.0046  0.0920 -0.1020
 1203ERGO    R416015   3.251  11.538   6.599 -0.1038  0.1710 -0.1100
 1203ERGO    R516016   3.360  11.394   6.477 -0.0069  0.2085 -0.0598
 1203ERGO    C116017   3.281  11.176   6.780  0.0515  0.2152 -0.0402
 1203ERGO    C216018   3.186  10.883   7.070 -0.1201  0.0311  0.3375
 1204ERGO   ROH16019  15.203  14.711   6.212 -0.0333 -0.0987  0.0597
 1204ERGO    R116020  15.229  14.586   6.464  0.0901 -0.0957  0.0494
 1204ERGO    R216021  15.466  14.586   6.607  0.1045  0.0820  0.0261
 1204ERGO    R316022  15.309  14.690   6.804  0.0410 -0.0543  0.0486
 1204ERGO    R416023  15.465  14.480   6.936  0.1049 -0.0504 -0.0160
 1204ERGO    R516024  15.248  14.501   6.937  0.0957 -0.1321 -0.0341
 1204ERGO    C116025  15.317  14.516   7.312  0.0453 -0.2554 -0.0195
 1204ERGO    C216026  15.354  14.462   7.732 -0.1220 -0.0021 -0.1142
 1205ERGO   ROH16027  16.692  15.217   6.320 -0.0121 -0.0161  0.0032
 1205ERGO    R116028  16.457  15.172   6.471  0.0550 -0.1642  0.0658
 1205ERGO    R216029  16.402  14.928   6.590  0.2870 -0.1744  0.1687
 1205ERGO    R316030  16.377  15.079   6.814  0.2052 -0.1084  0.1150
 1205ERGO    R416031  16.340  14.804   6.906  0.1229 -0.0683  0.1791
 1205ERGO    R516032  16.205  14.971   6.940  0.1341 -0.0422  0.0688
 1205ERGO    C116033  16.281  14.873   7.301 -0.0496  0.0555  0.1348
 1205ERGO    C216034  16.254  14.752   7.679  0.2320 -0.0459 -0.0425
 1206ERGO   ROH16035   5.363   6.602   6.508 -0.1050  0.0018 -0.0242
 1206ERGO    R116036   5.344   6.638   6.788 -0.1956 -0.0833 -0.0190
 1206ERGO    R216037   5.471   6.845   6.920 -0.1186 -0.2081  0.1029
 1206ERGO    R316038   5.221   6.895   7.014 -0.1258 -0.0831  0.0197
 1206ERGO    R416039   5.400   6.987   7.227 -0.1455  0.0003  0.0024
 1206ERGO    R516040   5.234   6.847   7.248 -0.1880  0.0564  0.0538
 1206ERGO    C116041   5.124   7.117   7.493 -0.1679  0.2390 -0.1342
 1206ERGO    C216042   4.987   7.188   7.795 -0.1932  0.0065 -0.1080
 1207ERGO   ROH16043  16.719  18.430   5.782 -0.0022 -0.0357 -0.0787
 1207ERGO    R116044  16.686  18.361   6.055 -0.3655  0.2221 -0.0491
 1207ERGO    R216045  16.889  18.248   6.206 -0.7987 -0.4267  0.0963
 1207ERGO    R316046  16.837  18.457   6.372 -0.1408 -0.1217 -0.0483
 1207ERGO    R416047  16.999  18.274   6.532 -0.6188 -0.4756  0.0401
 1207ERGO    R516048  16.806  18.356   6.587 -0.3736  0.1412  0.0436
 1207ERGO    C116049  17.015  18.484   6.878  0.1032 -0.2179 -0.1284
 1207ERGO    C216050  17.275  18.616   7.180 -0.0825 -0.0163  0.4203
 1208ERGO   ROH16051   0.791  11.500   6.082 -0.3549 -0.0258 -0.1029
 1208ERGO    R116052   0.822  11.643   6.324  0.0142 -0.2510 -0.0075
 1208ERGO    R216053   0.636  11.827   6.414  0.4343  0.1311  0.1456
 1208ERGO    R316054   0.641  11.674   6.638  0.1230 -0.0487  0.0347
 1208ERGO    R416055   0.530  11.930   6.726  0.3612 -0.0048  0.1653
 1208ERGO    R516056   0.700  11.826   6.813  0.1854 -0.2598  0.1915
 1208ERGO    C116057   0.473  11.845   7.119  0.0263 -0.2527  0.0726
 1208ERGO    C216058   0.340  11.710   7.398 -0.0103  0.2754  0.2460
 1209ERGO   ROH16059   9.274   2.325   5.926 -0.1980  0.0911  0.1218
 1209ERGO    R116060   9.159   2.226   6.165 -0.2237 -0.2098 -0.0104
 1209ERGO    R216061   9.077   1.964   6.193  0.3450 -0.4181 -0.1428
 1209ERGO    R316062   9.240   1.970   6.410  0.1194 -0.0704  0.0273
 1209ERGO    R416063   8.997   1.836   6.504  0.1776 -0.2920 -0.1327
 1209ERGO    R516064   9.093   2.010   6.595 -0.1199 -0.1115 -0.1507
 1209ERGO    C116065   9.104   1.767   6.889 -0.1315  0.1079  0.0330
 1209ERGO    C216066   9.131   1.714   7.310  0.2387  0.3251  0.1532
 1210ERGO   ROH16067  16.196   0.411   6.218  0.0650 -0.0680 -0.1136
 1210ERGO    R116068  16.085   0.244   6.418 -0.0444 -0.0250 -0.1385
 1210ERGO    R216069  16.233   0.146   6.628 -0.1184 -0.1233 -0.1355
 1210ERGO    R316070  16.037   0.260   6.778 -0.0707 -0.0317 -0.1408
 1210ERGO    R416071  16.171   0.073   6.961 -0.3151 -0.2867 -0.2058
 1210ERGO    R516072  15.957   0.081   6.917 -0.2959 -0.0541 -0.2883
 1210ERGO    C116073  15.950   0.137   7.294 -0.3850 -0.2959 -0.2517
 1210ERGO    C216074  16.031   0.211   7.554  0.1795 -0.0107  0.3895
 1211ERGO   ROH16075  16.237  18.272   5.813 -0.1491  0.2449  0.0517
 1211ERGO    R116076  16.215  18.221   6.090 -0.0509  0.1172  0.0374
 1211ERGO    R216077  16.411  18.090   6.234  0.0811  0.2120 -0.0557
 1211ERGO    R316078  16.397  18.312   6.392 -0.0570  0.1397  0.0348
 1211ERGO    R416079  16.429  18.088   6.579  0.1478  0.0808 -0.0600
 1211ERGO    R516080  16.272  18.240   6.583  0.0312 -0.0360  0.0304
 1211ERGO    C116081  16.425  18.294   6.928  0.0568 -0.0636  0.0226
 1211ERGO    C216082  16.282  18.134   7.153 -0.0233 -0.1488 -0.0653
 1212ERGO   ROH16083  15.530  16.439   6.144  0.0571  0.0807 -0.0130
 1212ERGO    R116084  15.501  16.209   6.305 -0.0202  0.0558 -0.0637
 1212ERGO    R216085  15.562  16.207   6.575  0.0674 -0.0476 -0.0881
 1212ERGO    R316086  15.308  16.114   6.599  0.0227  0.0866 -0.0239
 1212ERGO    R416087  15.454  15.985   6.817 -0.0576  0.2552  0.1414
 1212ERGO    R516088  15.333  15.886   6.666 -0.0801  0.1412  0.2264
 1212ERGO    C116089  15.153  15.769   6.981 -0.1724  0.5573  0.3352
 1212ERGO    C216090  15.115  15.570   7.244  0.0647 -0.0561 -0.3285
 1213ERGO   ROH16091  16.651   3.030   6.576  0.1358 -0.0667 -0.1132
 1213ERGO    R116092  16.875   3.130   6.715 -0.0871  0.0536  0.1700
 1213ERGO    R216093  16.887   3.140   6.991 -0.2734 -0.3337  0.1992
 1213ERGO    R316094  17.117   3.000   6.955 -0.0490  0.0423  0.1251
 1213ERGO    R416095  17.163   3.158   7.198 -0.3637 -0.1377  0.3052
 1213ERGO    R516096  17.290   3.153   7.021 -0.2934  0.2345  0.3382
 1213ERGO    C116097  17.540   3.037   7.285 -0.2058  0.3295  0.2974
 1213ERGO    C216098  17.893   2.970   7.471 -0.0066  0.5338  0.1490
 1214ERGO   ROH16099   6.997   2.166   5.651  0.1157  0.3313 -0.1032
 1214ERGO    R116100   6.968   2.085   5.920  0.1327  0.0923 -0.1707
 1214ERGO    R216101   7.162   2.129   6.111  0.0684  0.0885 -0.0984
 1214ERGO    R316102   6.958   2.247   6.246 -0.0441 -0.1751 -0.0421
 1214ERGO    R416103   7.160   2.189   6.451  0.1278  0.1872 -0.1155
 1214ERGO    R516104   6.950   2.129   6.455  0.2209 -0.1218 -0.0042
 1214ERGO    C116105   6.966   2.334   6.776  0.0568 -0.0028 -0.0725
 1214ERGO    C216106   6.950   2.501   7.164  0.4004 -0.0042 -0.1957
 1215ERGO   ROH16107   0.760  12.662   5.828 -0.2783 -0.0582  0.0269
 1215ERGO    R116108   0.753  12.680   6.111 -0.1252 -0.1129  0.0356
 1215ERGO    R216109   0.930  12.544   6.273  0.0392 -0.0529 -0.0894
 1215ERGO    R316110   0.978  12.791   6.374 -0.0287 -0.0461 -0.0736
 1215ERGO    R416111   1.137  12.611   6.541 -0.0421 -0.0230 -0.0338
 1215ERGO    R516112   0.992  12.758   6.611 -0.0854 -0.0476 -0.0700
 1215ERGO    C116113   1.303  12.883   6.792 -0.1532  0.0006  0.0133
 1215ERGO    C216114   1.356  13.053   7.098 -0.1483 -0.1245 -0.2412
 1216ERGO   ROH16115   4.990  16.529   5.705 -0.0675  0.0798 -0.0264
 1216ERGO    R116116   4.913  16.519   5.977 -0.0939 -0.0033 -0.0370
 1216ERGO    R216117   4.883  16.281   6.114  0.1560 -0.0361 -0.0391
 1216ERGO    R316118   5.056  16.397   6.288  0.0023  0.1633 -0.0142
 1216ERGO    R416119   4.827  16.320   6.453  0.0453 -0.0720 -0.0527
 1216ERGO    R516120   4.916  16.518   6.441 -0.1607  0.0274 -0.0500
 1216ERGO    C116121   4.957  16.451   6.814 -0.1634  0.0942 -0.0372
 1216ERGO    C216122   5.095  16.488   7.169 -0.1574 -0.1767  0.1804
 1217ERGO   ROH16123  13.593  11.030   6.075  0.1324 -0.2414 -0.0623
 1217ERGO    R116124  13.572  10.929   6.339  0.2893 -0.0304  0.0343
 1217ERGO    R216125  13.582  11.092   6.562  0.1177  0.1905 -0.1112
 1217ERGO    R316126  13.346  10.972   6.621  0.2685 -0.0497  0.0195
 1217ERGO    R416127  13.407  11.136   6.856  0.1473  0.1432 -0.0869
 1217ERGO    R516128  13.361  10.923   6.855  0.3891  0.0898  0.0402
 1217ERGO    C116129  13.082  11.049   7.083  0.3061 -0.1096  0.0499
 1217ERGO    C216130  12.750  11.216   7.221 -0.0192  0.1877 -0.2219
 1218ERGO   ROH16131   9.366  16.925   6.014 -0.1355  0.1668  0.0030
 1218ERGO    R116132   9.332  16.771   6.249  0.1096  0.1163  0.0077
 1218ERGO    R216133   9.409  16.861   6.499 -0.0467  0.2570  0.0069
 1218ERGO    R316134   9.152  16.804   6.564  0.0375 -0.1685 -0.0004
 1218ERGO    R416135   9.278  16.880   6.818 -0.1409  0.2633 -0.0317
 1218ERGO    R516136   9.167  16.697   6.777  0.1997  0.0204  0.0865
 1218ERGO    C116137   8.960  16.838   7.065 -0.1166 -0.1326 -0.0610
 1218ERGO    C216138   8.764  16.906   7.316  0.1326  0.0965  0.3051
 1219ERGO   ROH16139  16.264  17.446   6.068 -0.0306  0.0817  0.0302
 1219ERGO    R116140  16.355  17.547   6.316 -0.2018  0.0050  0.1262
 1219ERGO    R216141  16.243  17.474   6.557 -0.1481 -0.3350  0.0522
 1219ERGO    R316142  16.500  17.411   6.621 -0.0725 -0.0541  0.0393
 1219ERGO    R416143  16.357  17.412   6.877 -0.0912 -0.3378  0.0318
 1219ERGO    R516144  16.538  17.524   6.829 -0.2204 -0.0965  0.0905
 1219ERGO    C116145  16.664  17.317   7.124  0.0132 -0.0757  0.0078
 1219ERGO    C216146  16.763  17.485   7.391  0.2333 -0.0464  0.0696
 1220ERGO   ROH16147   1.270  17.969   5.899  0.1227 -0.1496  0.0739
 1220ERGO    R116148   1.264  18.034   6.175  0.0107 -0.0173  0.0415
 1220ERGO    R216149   1.031  18.099   6.307 -0.0613 -0.0743 -0.0577
 1220ERGO    R316150   1.108  17.900   6.475 -0.0036  0.0477  0.0638
 1220ERGO    R416151   1.087  18.137   6.646 -0.0310  0.1590 -0.0867
 1220ERGO    R516152   1.260  18.005   6.627 -0.0063  0.1785 -0.0207
 1220ERGO    C116153   1.192  17.971   7.001  0.0408  0.4094  0.0105
 1220ERGO    C216154   1.200  17.716   7.247  0.0525 -0.2808 -0.0634
 1221ERGO   ROH16155   8.968   8.076   6.009  0.1111  0.0334  0.1411
 1221ERGO    R116156   8.821   7.936   6.206  0.0630  0.0501  0.1164
 1221ERGO    R216157   8.882   7.950   6.475  0.0353  0.0235  0.1210
 1221ERGO    R316158   8.621   8.022   6.498  0.0454  0.0695  0.0997
 1221ERGO    R416159   8.688   7.901   6.756  0.0709  0.2611  0.1898
 1221ERGO    R516160   8.522   7.846   6.626  0.0453  0.1756  0.2523
 1221ERGO    C116161   8.329   7.940   6.941  0.1011  0.4426  0.2098
 1221ERGO    C216162   8.300   7.853   7.193  0.0823  0.0102 -0.1249
 1222ERGO   ROH16163  15.306  18.444   6.432 -0.0618 -0.1802 -0.0456
 1222ERGO    R116164  15.237  18.487   6.703  0.0798  0.0003 -0.0331
 1222ERGO    R216165  15.110  18.295   6.858 -0.1095  0.1945  0.0895
 1222ERGO    R316166  15.321  18.337   7.024  0.0122  0.0040 -0.0196
 1222ERGO    R416167  15.134  18.178   7.182  0.0111  0.1369  0.0577
 1222ERGO    R516168  15.222  18.367   7.239  0.1808  0.0423  0.0372
 1222ERGO    C116169  15.345  18.149   7.526  0.1956 -0.0754 -0.0632
 1222ERGO    C216170  15.270  17.990   7.777 -0.1217  0.0652 -0.0978
 1223ERGO   ROH16171   6.281   6.387   5.887  0.1119 -0.1754 -0.0326
 1223ERGO    R116172   6.391   6.405   6.148  0.0979  0.0953 -0.0389
 1223ERGO    R216173   6.357   6.628   6.308 -0.3249  0.0863 -0.0742
 1223ERGO    R316174   6.263   6.445   6.486  0.0275 -0.0731 -0.0502
 1223ERGO    R416175   6.370   6.662   6.652 -0.0950 -0.0321 -0.0721
 1223ERGO    R516176   6.421   6.450   6.666  0.1514  0.0358 -0.1776
 1223ERGO    C116177   6.289   6.510   7.019  0.3696 -0.2509 -0.0482
 1223ERGO    C216178   6.181   6.539   7.334 -0.0572 -0.2617 -0.0589
 1224ERGO   ROH16179   6.822  11.913   5.395 -0.0526  0.2565  0.1982
 1224ERGO    R116180   6.815  11.863   5.673 -0.2133  0.2376  0.1930
 1224ERGO    R216181   6.579  11.820   5.811 -0.2810 -0.0501  0.0088
 1224ERGO    R316182   6.704  11.592   5.890 -0.0667  0.0938  0.0880
 1224ERGO    R416183   6.580  11.698   6.134 -0.1685  0.0492  0.0455
 1224ERGO    R516184   6.790  11.644   6.108 -0.1209  0.2403  0.0705
 1224ERGO    C116185   6.698  11.413   6.397  0.0982  0.2421  0.1414
 1224ERGO    C216186   6.759  11.415   6.713  0.1357  0.1880 -0.0961
 1225ERGO   ROH16187   6.660   5.301   5.848 -0.1803 -0.2710 -0.0379
 1225ERGO    R116188   6.641   5.385   6.118 -0.0934 -0.1125 -0.0797
 1225ERGO    R216189   6.400   5.400   6.253 -0.0566  0.0087 -0.0222
 1225ERGO    R316190   6.529   5.241   6.433 -0.0370  0.0872  0.0331
 1225ERGO    R416191   6.308   5.361   6.584 -0.1903 -0.0703 -0.0681
 1225ERGO    R516192   6.519   5.364   6.638 -0.2194  0.0699  0.0348
 1225ERGO    C116193   6.375   5.190   6.945 -0.2497 -0.0426 -0.0431
 1225ERGO    C216194   6.210   5.161   7.121  0.3667  0.0511  0.0555
 1226ERGO   ROH16195  10.595   3.251   6.449  0.2800  0.1523 -0.1907
 1226ERGO    R116196  10.616   3.217   6.729 -0.0677  0.1318 -0.1638
 1226ERGO    R216197  10.851   3.143   6.854 -0.2752 -0.1004  0.1039
 1226ERGO    R316198  10.806   3.367   7.000 -0.2203 -0.0540  0.0505
 1226ERGO    R416199  11.067   3.272   7.091 -0.1377  0.0328 -0.0904
 1226ERGO    R516200  10.895   3.317   7.216 -0.0625  0.0452  0.0104
 1226ERGO    C116201  11.150   3.557   7.367 -0.0061  0.1539 -0.2537
 1226ERGO    C216202  11.286   3.555   7.625 -0.0635  0.1136  0.0070
 1227ERGO   ROH16203   1.383  11.570   6.071 -0.2098 -0.0398  0.1796
 1227ERGO    R116204   1.381  11.574   6.354 -0.1126  0.1412  0.1781
 1227ERGO    R216205   1.392  11.809   6.501 -0.1742  0.2384  0.0206
 1227ERGO    R316206   1.167  11.709   6.616 -0.0860  0.2046  0.1689
 1227ERGO    R416207   1.305  11.849   6.833  0.0241  0.2550  0.0727
 1227ERGO    R516208   1.237  11.643   6.835  0.0649  0.2386  0.1349
 1227ERGO    C116209   1.044  11.779   7.134  0.2223  0.2331  0.2423
 1227ERGO    C216210   0.965  11.926   7.424  0.1758  0.1062  0.0359
 1228ERGO   ROH16211  14.458  17.329   6.351  0.0273  0.1181 -0.0089
 1228ERGO    R116212  14.349  17.356   6.611 -0.2356  0.0360 -0.1062
 1228ERGO    R216213  14.473  17.503   6.810 -0.2361 -0.3331  0.1819
 1228ERGO    R316214  14.233  17.630   6.822 -0.0650  0.0195  0.0086
 1228ERGO    R416215  14.322  17.611   7.101 -0.3483 -0.2151  0.0804
 1228ERGO    R516216  14.131  17.544   7.020 -0.3774  0.0979 -0.1168
 1228ERGO    C116217  14.009  17.793   7.282 -0.2529  0.1846 -0.1414
 1228ERGO    C216218  13.638  17.839   7.536  0.4504 -0.0269 -0.3471
 1229ERGO   ROH16219   4.756   7.397   5.866 -0.1188 -0.1660 -0.0272
 1229ERGO    R116220   4.702   7.397   6.144 -0.2665 -0.0618 -0.0548
 1229ERGO    R216221   4.901   7.392   6.335 -0.3673 -0.3828  0.0531
 1229ERGO    R316222   4.774   7.614   6.428 -0.0545 -0.1605 -0.0332
 1229ERGO    R416223   4.955   7.536   6.645 -0.3032 -0.4425  0.0698
 1229ERGO    R516224   4.741   7.570   6.661 -0.2573 -0.0856 -0.0497
 1229ERGO    C116225   4.867   7.828   6.912  0.0278 -0.2686 -0.0015
 1229ERGO    C216226   4.990   7.961   7.165 -0.3208  0.0964  0.2346
 1230ERGO   ROH16227   4.440  17.381   5.918 -0.1004  0.3067 -0.0898
 1230ERGO    R116228   4.555  17.426   6.172  0.0289  0.0221 -0.0954
 1230ERGO    R216229   4.439  17.589   6.362  0.3440  0.1588 -0.0192
 1230ERGO    R316230   4.461  17.368   6.519 -0.0015  0.0625 -0.0953
 1230ERGO    R416231   4.419  17.589   6.707  0.1004  0.0406 -0.0304
 1230ERGO    R516232   4.582  17.444   6.712 -0.0504 -0.1402  0.0239
 1230ERGO    C116233   4.429  17.382   7.056 -0.3657 -0.1186 -0.1083
 1230ERGO    C216234   4.367  17.509   7.387  0.2572 -0.1071 -0.0867
 1231ERGO   ROH16235   8.002   2.051   5.997  0.2477 -0.0100  0.1472
 1231ERGO    R116236   8.104   2.058   6.261 -0.0024 -0.1400  0.2485
 1231ERGO    R216237   8.185   2.292   6.383  0.2745 -0.2572  0.2852
 1231ERGO    R316238   8.010   2.214   6.576 -0.0528  0.0718  0.1307
 1231ERGO    R416239   8.187   2.405   6.710  0.1302 -0.1747  0.2590
 1231ERGO    R516240   8.142   2.202   6.775 -0.2661 -0.0929  0.2693
 1231ERGO    C116241   8.024   2.398   7.081 -0.2612  0.1821  0.0987
 1231ERGO    C216242   7.927   2.610   7.299  0.0667 -0.0709  0.0097
 1232ERGO   ROH16243  14.947   0.376   6.368 -0.0918  0.0987 -0.0775
 1232ERGO    R116244  14.879   0.369   6.643 -0.1078 -0.0059 -0.0849
 1232ERGO    R216245  14.628   0.296   6.732 -0.0873 -0.1051 -0.1261
 1232ERGO    R316246  14.768   0.118   6.882 -0.0504 -0.1106 -0.1646
 1232ERGO    R416247  14.529   0.178   7.041 -0.0913 -0.2118 -0.1665
 1232ERGO    R516248  14.737   0.192   7.107 -0.0935 -0.1738 -0.1438
 1232ERGO    C116249  14.604  -0.058   7.362 -0.0589 -0.2790 -0.2262
 1232ERGO    C216250  14.678  -0.125   7.681  0.0647  0.5660  0.0766
 1233ERGO   ROH16251   8.504  10.439   5.618 -0.1672 -0.1139  0.0632
 1233ERGO    R116252   8.366  10.547   5.840 -0.0978 -0.0750  0.0889
 1233ERGO    R216253   8.323  10.818   5.872 -0.0488 -0.0614  0.0804
 1233ERGO    R316254   8.064  10.741   5.895 -0.0534 -0.0229  0.1434
 1233ERGO    R416255   8.072  11.010   6.012 -0.0021 -0.0046  0.0846
 1233ERGO    R516256   7.994  10.829   6.107 -0.0068  0.0282  0.1343
 1233ERGO    C116257   7.682  11.048   6.117  0.0207  0.0646  0.1462
 1233ERGO    C216258   7.380  11.197   5.896  0.0106  0.0134 -0.2172
 1234ERGO   ROH16259   4.809  11.597   5.769 -0.0891  0.0489 -0.1174
 1234ERGO    R116260   4.706  11.573   6.031 -0.0387  0.0186 -0.1002
 1234ERGO    R216261   4.622  11.332   6.137 -0.0517  0.0134 -0.1245
 1234ERGO    R316262   4.797  11.395   6.336 -0.0026 -0.0468 -0.1484
 1234ERGO    R416263   4.604  11.213   6.461 -0.1482  0.1441 -0.0811
 1234ERGO    R516264   4.660  11.411   6.532  0.0053  0.1307 -0.1542
 1234ERGO    C116265   4.757  11.203   6.836 -0.1585  0.1640 -0.0782
 1234ERGO    C216266   4.665  11.102   7.116  0.1669 -0.0986 -0.5111
 1235ERGO   ROH16267   6.736   3.569   5.852 -0.1292  0.1776  0.0555
 1235ERGO    R116268   6.549   3.621   6.058 -0.0785  0.1675  0.1057
 1235ERGO    R216269   6.422   3.420   6.198 -0.2225  0.1531 -0.0313
 1235ERGO    R316270   6.521   3.552   6.414 -0.1027 -0.0758  0.0565
 1235ERGO    R416271   6.234   3.523   6.469 -0.1820  0.4238 -0.1034
 1235ERGO    R516272   6.349   3.708   6.472  0.1468  0.2192  0.0062
 1235ERGO    C116273   6.217   3.707   6.830 -0.0460  0.3665 -0.0630
 1235ERGO    C216274   6.180   3.741   7.170  0.0954 -0.0001  0.5146
 1236ERGO   ROH16275  18.011   7.626   6.306  0.0464 -0.0670  0.0323
 1236ERGO    R116276  17.907   7.672   6.565 -0.0520 -0.1125  0.0009
 1236ERGO    R216277  17.978   7.892   6.718 -0.0742 -0.1637  0.0837
 1236ERGO    R316278  17.709   7.930   6.728 -0.0727 -0.1171 -0.0166
 1236ERGO    R416279  17.810   8.048   6.976 -0.1464 -0.1525  0.0309
 1236ERGO    R516280  17.653   7.899   6.959 -0.1670 -0.1242 -0.0396
 1236ERGO    C116281  17.459   8.175   7.136 -0.1870 -0.1023 -0.0940
 1236ERGO    C216282  17.164   8.214   7.435 -0.1128 -0.1210  0.0434
 1237ERGO   ROH16283   7.654   0.633   5.431  0.0594  0.1188 -0.1310
 1237ERGO    R116284   7.649   0.783   5.671  0.3692  0.0389 -0.0710
 1237ERGO    R216285   7.451   0.753   5.861  0.1502  0.5452 -0.2063
 1237ERGO    R316286   7.662   0.712   6.028 -0.0534 -0.1653 -0.0891
 1237ERGO    R416287   7.432   0.747   6.206 -0.0734  0.5370 -0.2168
 1237ERGO    R516288   7.621   0.857   6.213  0.2960 -0.0516 -0.0893
 1237ERGO    C116289   7.620   0.705   6.563 -0.3946 -0.1347 -0.1129
 1237ERGO    C216290   7.510   0.503   6.771 -0.0274 -0.0706 -0.2804
 1238ERGO   ROH16291   2.860  18.592   5.744 -0.3791  0.1584  0.0741
 1238ERGO    R116292   2.967  18.465   5.974 -0.4122  0.0155  0.0105
 1238ERGO    R216293   3.178  18.570   6.117 -0.3345 -0.1536  0.0142
 1238ERGO    R316294   3.006  18.546   6.327 -0.3112 -0.1378  0.0364
 1238ERGO    R416295   3.272  18.564   6.450 -0.3133  0.1657  0.0177
 1238ERGO    R516296   3.123  18.408   6.484 -0.1913  0.0669  0.1354
 1238ERGO    C116297   3.166  18.538   6.840 -0.2792  0.3665  0.0405
 1238ERGO    C216298   3.063  18.688   7.079  0.1381  0.1528 -0.1480
 1239ERGO   ROH16299  11.355  18.249   6.252  0.0763 -0.2293 -0.3054
 1239ERGO    R116300  11.437  18.118   6.489  0.1262 -0.2273 -0.3207
 1239ERGO    R216301  11.702  18.060   6.544  0.1845  0.1158 -0.2007
 1239ERGO    R316302  11.650  18.196   6.774 -0.1379 -0.0568 -0.1660
 1239ERGO    R416303  11.889  18.036   6.833 -0.1157  0.0409 -0.0085
 1239ERGO    R516304  11.704  18.040   6.948 -0.2417 -0.1340 -0.2053
 1239ERGO    C116305  11.950  18.149   7.218 -0.5931 -0.1648  0.1359
 1239ERGO    C216306  12.307  18.142   7.314 -0.0823 -0.0739  0.1627
 1240ERGO   ROH16307   3.657   9.006   5.665 -0.2444 -0.0024 -0.0515
 1240ERGO    R116308   3.689   9.067   5.940 -0.1900  0.1356 -0.0875
 1240ERGO    R216309   3.543   9.264   6.067 -0.3079  0.0647 -0.1109
 1240ERGO    R316310   3.481   9.062   6.238 -0.0729  0.0800 -0.0056
 1240ERGO    R416311   3.391   9.306   6.374 -0.3564  0.0541 -0.1338
 1240ERGO    R516312   3.525   9.154   6.455 -0.1764  0.2479 -0.0530
 1240ERGO    C116313   3.245   9.141   6.715 -0.1640  0.0623 -0.0485
 1240ERGO    C216314   3.122   9.006   6.950  0.2187 -0.0790 -0.2004
 1241ERGO   ROH16315   5.693  13.209   5.802 -0.0106 -0.1219  0.0376
 1241ERGO    R116316   5.671  13.370   6.034 -0.0957  0.0335 -0.0764
 1241ERGO    R216317   5.665  13.264   6.289 -0.2577  0.1979 -0.0080
 1241ERGO    R316318   5.871  13.436   6.330 -0.2371  0.1736 -0.0110
 1241ERGO    R416319   5.759  13.390   6.597 -0.1552  0.0845  0.0076
 1241ERGO    R516320   5.792  13.583   6.502 -0.1762  0.1162  0.0659
 1241ERGO    C116321   6.007  13.625   6.815 -0.0762 -0.0045  0.0138
 1241ERGO    C216322   6.398  13.681   6.987  0.1562 -0.1348 -0.0063
 1242ERGO   ROH16323  15.278  10.813   6.051  0.0044  0.0707  0.0673
 1242ERGO    R116324  15.232  10.886   6.321 -0.0060 -0.0245  0.0917
 1242ERGO    R216325  14.992  10.839   6.449 -0.0214 -0.0400  0.0549
 1242ERGO    R316326  15.151  10.715   6.631 -0.0531 -0.1299  0.0221
 1242ERGO    R416327  14.932  10.826   6.789 -0.0301 -0.1209  0.0507
 1242ERGO    R516328  15.144  10.857   6.824 -0.0221 -0.1814  0.0624
 1242ERGO    C116329  15.046  10.702   7.158 -0.0649 -0.2526  0.0174
 1242ERGO    C216330  15.015  10.467   7.459  0.0861  0.2637 -0.0575
 1243ERGO   ROH16331  16.098   2.762   7.473  0.2648 -0.2650  0.0216
 1243ERGO    R116332  15.974   2.507   7.481  0.1790 -0.2198  0.3089
 1243ERGO    R216333  15.858   2.405   7.709 -0.1599  0.2165  0.3509
 1243ERGO    R316334  15.641   2.377   7.547  0.0460  0.0095  0.1030
 1243ERGO    R416335  15.606   2.173   7.755 -0.1104  0.1286  0.1835
 1243ERGO    R516336  15.603   2.140   7.540  0.1663 -0.0100  0.2018
 1243ERGO    C116337  15.256   2.011   7.631  0.1117 -0.1169 -0.1467
 1243ERGO    C216338  15.095   1.906   7.975 -0.1719 -0.0568  0.1066
 1244ERGO   ROH16339  14.617   8.945   6.247 -0.1508  0.0225 -0.0442
 1244ERGO    R116340  14.656   8.984   6.524  0.0394  0.1009 -0.0823
 1244ERGO    R216341  14.450   8.966   6.708  0.1746  0.1323  0.0598
 1244ERGO    R316342  14.615   8.787   6.827  0.2712  0.1825  0.0080
 1244ERGO    R416343  14.411   8.846   7.029  0.0344 -0.2155 -0.0803
 1244ERGO    R516344  14.627   8.860   7.055  0.0147 -0.0144  0.0977
 1244ERGO    C116345  14.545   8.607   7.329  0.0432 -0.3709 -0.2104
 1244ERGO    C216346  14.630   8.364   7.598 -0.1082 -0.3253  0.2590
 1245ERGO   ROH16347   6.684  15.940   7.382 -0.1972  0.1978  0.2338
 1245ERGO    R116348   6.852  16.012   7.597 -0.0407  0.1218  0.1385
 1245ERGO    R216349   6.754  16.118   7.833  0.1434  0.1849  0.1847
 1245ERGO    R316350   6.894  15.913   7.945  0.0998  0.1196  0.1223
 1245ERGO    R416351   6.829  16.090   8.169  0.0526  0.0220  0.1934
 1245ERGO    R516352   7.027  16.018   8.114  0.0645  0.0330  0.2081
 1245ERGO    C116353   7.004  15.882   8.470 -0.0414 -0.1340  0.1398
 1245ERGO    C216354   7.026  15.848   8.849  0.1278  0.0986 -0.2659
 1246ERGO   ROH16355   5.748  12.458   5.914 -0.1538 -0.1581  0.0910
 1246ERGO    R116356   5.665  12.403   6.179 -0.0515 -0.0608  0.1441
 1246ERGO    R216357   5.843  12.351   6.383  0.0265  0.0001  0.0902
 1246ERGO    R316358   5.710  12.553   6.507  0.0884  0.0506  0.0752
 1246ERGO    R416359   5.681  12.324   6.688 -0.1205  0.0239  0.0152
 1246ERGO    R516360   5.520  12.447   6.607 -0.0173  0.1349 -0.0299
 1246ERGO    C116361   5.463  12.498   6.981 -0.1479  0.0853 -0.0426
 1246ERGO    C216362   5.527  12.499   7.327  0.0598  0.0566 -0.1688
 1247ERGO   ROH16363   4.228  11.332   5.793 -0.1458 -0.0510  0.0062
 1247ERGO    R116364   4.166  11.083   5.912 -0.1314 -0.0844 -0.0579
 1247ERGO    R216365   4.327  10.966   6.105 -0.1559 -0.0951 -0.0514
 1247ERGO    R316366   4.095  10.961   6.248 -0.1845 -0.1676 -0.0975
 1247ERGO    R416367   4.266  10.757   6.373 -0.0008  0.1264  0.1612
 1247ERGO    R516368   4.063  10.729   6.299  0.0366 -0.1544  0.1416
 1247ERGO    C116369   4.014  10.630   6.664  0.0626  0.1875  0.2418
 1247ERGO    C216370   4.177  10.684   7.100 -0.1828  0.0137  0.3485
 1248ERGO   ROH16371  16.474   9.807   5.856  0.1980 -0.2390  0.1831
 1248ERGO    R116372  16.484   9.792   6.139  0.2757  0.1148  0.2039
 1248ERGO    R216373  16.579   9.999   6.295 -0.1741  0.5342 -0.0458
 1248ERGO    R316374  16.338   9.973   6.418 -0.1103  0.1179  0.0071
 1248ERGO    R416375  16.502  10.127   6.607 -0.3237  0.3789 -0.0179
 1248ERGO    R516376  16.392   9.944   6.650 -0.0087  0.1871 -0.0082
 1248ERGO    C116377  16.231  10.178   6.904 -0.3510 -0.1024  0.0481
 1248ERGO    C216378  16.283  10.229   7.249 -0.0278 -0.0366  0.0929
 1249ERGO   ROH16379   3.192   9.222   7.351 -0.0120  0.1501 -0.2740
 1249ERGO    R116380   3.439   9.133   7.457 -0.0941  0.1340 -0.0960
 1249ERGO    R216381   3.680   9.255   7.397 -0.0326  0.0275 -0.0377
 1249ERGO    R316382   3.702   9.270   7.668 -0.1604  0.1677 -0.0320
 1249ERGO    R416383   3.979   9.273   7.570 -0.0854 -0.3645  0.1059
 1249ERGO    R516384   3.895   9.137   7.719 -0.4028 -0.1338  0.1570
 1249ERGO    C116385   4.174   9.296   7.925 -0.2360 -0.4613  0.1949
 1249ERGO    C216386   4.540   9.339   7.863  0.1313  0.1853  0.1267
 1250ERGO   ROH16387  18.270  14.862   6.636 -0.1377 -0.3078  0.1436
 1250ERGO    R116388  18.430  14.947   6.854 -0.1032 -0.4025  0.1561
 1250ERGO    R216389  18.422  15.205   6.952  0.2315 -0.3219 -0.0130
 1250ERGO    R316390  18.373  15.080   7.188 -0.0557 -0.1036  0.0489
 1250ERGO    R416391  18.548  15.305   7.258  0.4872 -0.4695 -0.0672
 1250ERGO    R516392  18.581  15.095   7.307 -0.0031 -0.5350  0.0286
 1250ERGO    C116393  18.576  15.246   7.657  0.3663 -0.3505 -0.0408
 1250ERGO    C216394  18.430  15.431   7.900 -0.1516  0.1464  0.1902
 1251ERGO   ROH16395   7.301  17.460   5.759 -0.0847  0.1725 -0.1253
 1251ERGO    R116396   7.505  17.527   5.943 -0.2048  0.2409 -0.0138
 1251ERGO    R216397   7.453  17.631   6.193 -0.3837  0.0565  0.0318
 1251ERGO    R316398   7.605  17.422   6.277 -0.2400  0.1326 -0.0377
 1251ERGO    R416399   7.649  17.632   6.477 -0.2810  0.1359 -0.0392
 1251ERGO    R516400   7.802  17.524   6.365 -0.2640  0.2291 -0.1001
 1251ERGO    C116401   7.907  17.436   6.722 -0.0863  0.2536 -0.1457
 1251ERGO    C216402   8.076  17.561   7.023  0.1475  0.3005 -0.1315
 1252ERGO   ROH16403  15.477   7.885   6.077  0.1904 -0.0038  0.0393
 1252ERGO    R116404  15.491   7.853   6.358  0.1533  0.0091  0.0435
 1252ERGO    R216405  15.572   8.056   6.526  0.0399  0.0495  0.0562
 1252ERGO    R316406  15.335   8.005   6.649  0.0374 -0.0466  0.0100
 1252ERGO    R416407  15.462   8.209   6.816 -0.0835  0.0051  0.0324
 1252ERGO    R516408  15.385   8.017   6.883 -0.0165 -0.0235  0.0182
 1252ERGO    C116409  15.176   8.250   7.100 -0.1578 -0.1107 -0.0247
 1252ERGO    C216410  15.023   8.551   7.178 -0.1014 -0.0825 -0.1834
 1253ERGO   ROH16411  18.175  15.546   7.475 -0.0880 -0.1099  0.0496
 1253ERGO    R116412  18.044  15.309   7.554 -0.0687 -0.1105  0.0816
 1253ERGO    R216413  18.181  15.084   7.639 -0.0510 -0.0591  0.2050
 1253ERGO    R316414  18.021  15.108   7.857 -0.1320 -0.0128  0.1402
 1253ERGO    R416415  17.988  14.830   7.772 -0.1707  0.0008  0.1468
 1253ERGO    R516416  17.829  14.975   7.806 -0.1442  0.0368  0.0771
 1253ERGO    C116417  17.726  14.704   8.054 -0.3165  0.0791  0.0521
 1253ERGO    C216418  17.606  14.367   8.240 -0.0868  0.1249  0.0667
 1254ERGO   ROH16419   2.224  17.449   8.048  0.0722 -0.2780  0.1799
 1254ERGO    R116420   2.154  17.250   7.859 -0.1020 -0.1438  0.1003
 1254ERGO    R216421   1.906  17.241   7.737 -0.0648  0.2068 -0.0151
 1254ERGO    R316422   2.054  17.241   7.509  0.0415  0.0735  0.0520
 1254ERGO    R416423   1.783  17.169   7.422  0.0648  0.1129 -0.0452
 1254ERGO    R516424   1.967  17.058   7.381  0.0529  0.0464  0.0848
 1254ERGO    C116425   1.851  17.128   7.025  0.2400 -0.0668  0.0004
 1254ERGO    C216426   1.671  17.306   6.744 -0.2621  0.0280  0.2272
 1255ERGO   ROH16427   8.801   0.938   5.873 -0.1035  0.1789 -0.2094
 1255ERGO    R116428   8.780   0.973   6.153 -0.0578  0.1384 -0.2014
 1255ERGO    R216429   8.568   0.872   6.299  0.0618 -0.0411 -0.1559
 1255ERGO    R316430   8.767   0.757   6.446  0.1904  0.1036 -0.2126
 1255ERGO    R416431   8.525   0.724   6.609  0.2221 -0.2098 -0.2116
 1255ERGO    R516432   8.713   0.814   6.672  0.1382 -0.0378 -0.1854
 1255ERGO    C116433   8.686   0.530   6.926  0.4361 -0.1721 -0.2974
 1255ERGO    C216434   8.528   0.458   7.097  0.3721 -0.0500  0.0525
 1256ERGO   ROH16435   2.543   0.196   5.935 -0.1026  0.0686 -0.1699
 1256ERGO    R116436   2.696   0.372   6.096 -0.1660  0.0172 -0.0493
 1256ERGO    R216437   2.588   0.511   6.309 -0.2803  0.0402 -0.1120
 1256ERGO    R316438   2.790   0.393   6.447 -0.4140 -0.0329  0.0207
 1256ERGO    R416439   2.719   0.630   6.605 -0.2523  0.1356 -0.1648
 1256ERGO    R516440   2.918   0.578   6.532 -0.2809 -0.0831 -0.0773
 1256ERGO    C116441   2.986   0.590   6.907 -0.3616  0.1226 -0.0709
 1256ERGO    C216442   2.871   0.598   7.207  0.0288  0.0712  0.0329
 1257ERGO   ROH16443   8.697  13.474   5.573  0.0482  0.1723 -0.0294
 1257ERGO    R116444   8.515  13.520   5.785 -0.0328 -0.0562 -0.0453
 1257ERGO    R216445   8.434  13.320   5.957  0.2694 -0.1469  0.0027
 1257ERGO    R316446   8.520  13.493   6.148  0.0015  0.0376 -0.0396
 1257ERGO    R416447   8.363  13.295   6.295  0.1558 -0.0616 -0.0148
 1257ERGO    R516448   8.337  13.511   6.300 -0.0809 -0.0875 -0.1256
 1257ERGO    C116449   8.403  13.444   6.670 -0.1618  0.1612 -0.0648
 1257ERGO    C216450   8.352  13.604   7.106 -0.0653  0.1577  0.0710
 1258ERGO   ROH16451  18.480  11.102   5.894 -0.0749  0.1522 -0.0768
 1258ERGO    R116452  18.474  11.220   6.151  0.1148  0.0265 -0.0140
 1258ERGO    R216453  18.267  11.176   6.330  0.1480  0.1027  0.0330
 1258ERGO    R316454  18.470  11.102   6.496  0.1474 -0.1434 -0.0687
 1258ERGO    R416455  18.228  11.071   6.657  0.1727  0.1683  0.0585
 1258ERGO    R516456  18.405  11.185   6.710  0.3531 -0.0442 -0.0361
 1258ERGO    C116457  18.395  10.940   7.003  0.1864 -0.0245 -0.0221
 1258ERGO    C216458  18.414  10.955   7.345 -0.5449  0.0150  0.2628
 1259ERGO   ROH16459   4.285  17.827   5.944  0.1397 -0.1259 -0.0771
 1259ERGO    R116460   4.417  17.994   6.131 -0.0884  0.1415 -0.1465
 1259ERGO    R216461   4.280  18.158   6.306 -0.3377 -0.2065  0.0050
 1259ERGO    R316462   4.428  18.028   6.493  0.1221  0.0762 -0.1477
 1259ERGO    R416463   4.380  18.293   6.608 -0.2599 -0.0169 -0.1046
 1259ERGO    R516464   4.574  18.196   6.582 -0.0990  0.3545 -0.3089
 1259ERGO    C116465   4.578  18.249   6.959  0.2171  0.3593 -0.3118
 1259ERGO    C216466   4.596  18.358   7.205  0.0983  0.0515  0.1712
 1260ERGO   ROH16467  16.592  16.323   6.215 -0.1046 -0.0936 -0.0868
 1260ERGO    R116468  16.459  16.454   6.428 -0.0203  0.0530 -0.1229
 1260ERGO    R216469  16.343  16.317   6.638 -0.2613  0.1745 -0.1723
 1260ERGO    R316470  16.499  16.481   6.788 -0.1105 -0.0252 -0.1066
 1260ERGO    R416471  16.269  16.424   6.959 -0.2522  0.2559 -0.1972
 1260ERGO    R516472  16.345  16.621   6.906  0.0162  0.1660 -0.1619
 1260ERGO    C116473  16.373  16.640   7.286 -0.1056  0.1160 -0.1500
 1260ERGO    C216474  16.362  16.637   7.598 -0.1117  0.1178  0.2581
 1261ERGO   ROH16475  12.442   1.800   6.584  0.0054 -0.1207  0.0352
 1261ERGO    R116476  12.400   1.705   6.847  0.0326 -0.1030  0.0467
 1261ERGO    R216477  12.547   1.793   7.063  0.1031 -0.1377  0.0173
 1261ERGO    R316478  12.302   1.846   7.168  0.1379 -0.0662  0.0618
 1261ERGO    R416479  12.483   1.841   7.399  0.1398 -0.3148  0.0500
 1261ERGO    R516480  12.299   1.726   7.375  0.0763 -0.1945 -0.0156
 1261ERGO    C116481  12.215   1.918   7.693  0.1939 -0.3507  0.1108
 1261ERGO    C216482  12.350   2.087   7.953  0.2743  0.0087 -0.4371
 1262ERGO   ROH16483   0.639   5.108   5.847 -0.0457  0.1867  0.0951
 1262ERGO    R116484   0.548   4.864   5.956 -0.0133  0.1409  0.0204
 1262ERGO    R216485   0.690   4.723   6.147  0.0009  0.1064 -0.0152
 1262ERGO    R316486   0.457   4.739   6.286 -0.0070  0.0316 -0.0192
 1262ERGO    R416487   0.636   4.581   6.457  0.0503  0.1219  0.0010
 1262ERGO    R516488   0.436   4.524   6.390  0.0740  0.0363  0.0057
 1262ERGO    C116489   0.386   4.512   6.768  0.0717  0.0606  0.0066
 1262ERGO    C216490   0.389   4.595   7.154 -0.1289 -0.2950  0.4366
 1263ERGO   ROH16491  12.380  16.137   6.230 -0.2458 -0.0566 -0.1422
 1263ERGO    R116492  12.413  15.931   6.421 -0.2422 -0.0933 -0.1813
 1263ERGO    R216493  12.453  15.981   6.690  0.0577 -0.1367 -0.2110
 1263ERGO    R316494  12.239  15.816   6.720 -0.0606  0.0487 -0.0201
 1263ERGO    R416495  12.352  15.841   6.989  0.1282  0.0408 -0.1034
 1263ERGO    R516496  12.310  15.656   6.882 -0.0933  0.0427 -0.0159
 1263ERGO    C116497  12.092  15.605   7.191  0.0581  0.3184  0.1385
 1263ERGO    C216498  11.928  15.523   7.451  0.2110 -0.0787 -0.1520
 1264ERGO   ROH16499  14.205   2.317   6.293 -0.1983 -0.1747 -0.0401
 1264ERGO    R116500  14.296   2.100   6.451 -0.1254 -0.1533 -0.0515
 1264ERGO    R216501  14.511   1.943   6.378 -0.0726 -0.0824 -0.0630
 1264ERGO    R316502  14.603   2.011   6.624 -0.0928 -0.0599 -0.0623
 1264ERGO    R416503  14.722   1.748   6.569 -0.1134 -0.0738 -0.0100
 1264ERGO    R516504  14.606   1.804   6.745 -0.1250 -0.0399 -0.0329
 1264ERGO    C116505  14.932   1.698   6.913 -0.1561 -0.0475  0.0215
 1264ERGO    C216506  15.223   1.544   6.942  0.1647 -0.2324 -0.0137
 1265ERGO   ROH16507   4.356   8.672   5.816  0.1609 -0.0678  0.0932
 1265ERGO    R116508   4.497   8.790   6.031  0.0442  0.0415  0.1111
 1265ERGO    R216509   4.391   8.993   6.185 -0.1177 -0.0135  0.0748
 1265ERGO    R316510   4.450   8.825   6.390 -0.0478  0.0400  0.0992
 1265ERGO    R416511   4.443   9.091   6.513  0.0722  0.0802  0.0186
 1265ERGO    R516512   4.606   8.947   6.525  0.0480  0.0500 -0.0195
 1265ERGO    C116513   4.528   8.990   6.896  0.2484  0.1850  0.0088
 1265ERGO    C216514   4.509   9.226   7.293  0.2855 -0.2463  0.2099
 1266ERGO   ROH16515   1.862   9.639   6.045  0.0856  0.1999 -0.0813
 1266ERGO    R116516   2.127   9.562   6.108  0.0903  0.2912  0.0097
 1266ERGO    R216517   2.277   9.690   6.300 -0.1350  0.1417  0.2862
 1266ERGO    R316518   2.304   9.439   6.402 -0.0417  0.0240 -0.0172
 1266ERGO    R416519   2.543   9.584   6.493  0.0005 -0.0399  0.0066
 1266ERGO    R516520   2.539   9.394   6.385 -0.0393  0.0768 -0.2144
 1266ERGO    C116521   2.724   9.286   6.701  0.1671 -0.2560 -0.4410
 1266ERGO    C216522   2.834   9.383   6.976  0.1054 -0.0422 -0.1822
 1267ERGO   ROH16523   4.898   9.854   5.524  0.0687 -0.0799  0.0696
 1267ERGO    R116524   4.894   9.891   5.804  0.0487  0.1165  0.0445
 1267ERGO    R216525   4.919   9.682   5.983 -0.1983  0.2103  0.1940
 1267ERGO    R316526   5.121   9.835   6.082 -0.0640  0.0756  0.1300
 1267ERGO    R416527   4.999   9.712   6.318 -0.2129  0.3165  0.1878
 1267ERGO    R516528   5.034   9.924   6.286 -0.0076  0.2706  0.0727
 1267ERGO    C116529   5.234   9.872   6.606 -0.0953  0.2519  0.1241
 1267ERGO    C216530   5.248   9.781   6.857 -0.1090  0.0298  0.0231
 1268ERGO   ROH16531   5.024   2.261   5.733 -0.3821  0.1964 -0.0471
 1268ERGO    R116532   4.877   2.299   5.971 -0.0536  0.2518  0.1525
 1268ERGO    R216533   4.773   2.089   6.118 -0.1183  0.2992  0.1724
 1268ERGO    R316534   4.911   2.205   6.321  0.2613  0.0438  0.0699
 1268ERGO    R416535   4.729   2.018   6.453 -0.1197  0.4997  0.2163
 1268ERGO    R516536   4.751   2.230   6.496  0.3989  0.4743  0.1453
 1268ERGO    C116537   4.834   2.086   6.839  0.2358  0.3768  0.1456
 1268ERGO    C216538   4.750   1.983   7.089  0.1944  0.3482  0.2394
 1269ERGO   ROH16539  15.474  17.898   6.341 -0.1620 -0.1677  0.0954
 1269ERGO    R116540  15.392  17.906   6.611 -0.1551 -0.2365  0.0996
 1269ERGO    R216541  15.384  17.680   6.771  0.1912 -0.2207  0.1430
 1269ERGO    R316542  15.541  17.831   6.935 -0.0169  0.0456  0.1058
 1269ERGO    R416543  15.403  17.644   7.114  0.2976 -0.1694  0.1427
 1269ERGO    R516544  15.409  17.861   7.132 -0.0436 -0.1495  0.1236
 1269ERGO    C116545  15.562  17.763   7.468  0.1643  0.1102  0.1077
 1269ERGO    C216546  15.612  17.595   7.763  0.2303 -0.1934 -0.1047
 1270ERGO   ROH16547   1.582  15.431   6.063 -0.1661 -0.2011  0.0424
 1270ERGO    R116548   1.642  15.603   6.280  0.2242 -0.1292 -0.1152
 1270ERGO    R216549   1.510  15.587   6.522  0.1412  0.4274 -0.1183
 1270ERGO    R316550   1.762  15.564   6.621  0.0833 -0.0973 -0.0597
 1270ERGO    R416551   1.587  15.524   6.853 -0.0710  0.2394 -0.1012
 1270ERGO    R516552   1.751  15.668   6.837  0.2369 -0.0839 -0.0523
 1270ERGO    C116553   1.869  15.466   7.139 -0.2489 -0.3627 -0.0363
 1270ERGO    C216554   1.882  15.111   7.289  0.2961 -0.4784 -0.1934
 1271ERGO   ROH16555   0.944   4.207   6.162 -0.1307 -0.1337  0.1676
 1271ERGO    R116556   1.052   4.419   6.315 -0.0156 -0.1033  0.0457
 1271ERGO    R216557   1.026   4.433   6.590 -0.0170  0.0733  0.0352
 1271ERGO    R316558   1.297   4.455   6.582 -0.0031 -0.0818  0.0326
 1271ERGO    R416559   1.226   4.503   6.863  0.0347 -0.1784  0.0647
 1271ERGO    R516560   1.346   4.632   6.735  0.1059 -0.1830  0.1208
 1271ERGO    C116561   1.596   4.564   7.015  0.0778 -0.4706  0.0794
 1271ERGO    C216562   1.881   4.524   7.291 -0.2630 -0.0384  0.2175
 1272ERGO   ROH16563  13.286  14.157   6.009  0.0587  0.0742 -0.1844
 1272ERGO    R116564  13.389  14.244   6.258 -0.0140 -0.0375 -0.1139
 1272ERGO    R216565  13.334  14.493   6.363  0.1751  0.0215 -0.1481
 1272ERGO    R316566  13.254  14.349   6.579 -0.1201  0.0991 -0.2022
 1272ERGO    R416567  13.270  14.626   6.676  0.6036  0.0246 -0.0564
 1272ERGO    R516568  13.367  14.451   6.764  0.2017 -0.2754 -0.1797
 1272ERGO    C116569  13.158  14.568   7.060  0.5760  0.0992 -0.0539
 1272ERGO    C216570  13.041  14.532   7.308  0.0771  0.1420  0.1377
 1273ERGO   ROH16571   7.603  12.728   5.655 -0.1849  0.0473  0.0232
 1273ERGO    R116572   7.510  12.904   5.856 -0.1614 -0.0137  0.0854
 1273ERGO    R216573   7.336  12.824   6.055  0.1396 -0.1633  0.2826
 1273ERGO    R316574   7.528  12.924   6.219  0.2022  0.0828  0.0696
 1273ERGO    R416575   7.277  12.970   6.363  0.2178  0.4118  0.0404
 1273ERGO    R516576   7.429  13.119   6.316  0.2609  0.2982 -0.2640
 1273ERGO    C116577   7.423  13.148   6.696  0.3221  0.9778 -0.3007
 1273ERGO    C216578   7.368  13.286   6.914 -0.0390 -0.3389 -0.1050
 1274ERGO   ROH16579  10.993  14.717   5.879  0.1783 -0.0660 -0.0400
 1274ERGO    R116580  11.048  14.480   6.024  0.1009 -0.0886 -0.0482
 1274ERGO    R216581  11.104  14.481   6.295  0.1005 -0.1161 -0.0494
 1274ERGO    R316582  10.900  14.302   6.305  0.0425 -0.0512 -0.0547
 1274ERGO    R416583  11.008  14.307   6.578  0.0939 -0.1493 -0.0715
 1274ERGO    R516584  10.978  14.130   6.453  0.0134 -0.1119 -0.1076
 1274ERGO    C116585  10.760  14.038   6.752  0.0358 -0.1079 -0.0894
 1274ERGO    C216586  10.601  13.849   7.005 -0.0270  0.1779  0.1478
 1275ERGO   ROH16587  13.033  13.161   6.315  0.1066  0.1328 -0.0509
 1275ERGO    R116588  13.099  13.281   6.562  0.1719  0.0638 -0.0333
 1275ERGO    R216589  12.942  13.254   6.789  0.0985  0.2009 -0.0598
 1275ERGO    R316590  13.175  13.168   6.899  0.0006 -0.0228 -0.0244
 1275ERGO    R416591  13.059  13.345   7.101  0.2752  0.3006 -0.1547
 1275ERGO    R516592  13.260  13.358   7.017  0.2795 -0.0406 -0.1955
 1275ERGO    C116593  13.346  13.318   7.386  0.2862  0.1486 -0.1767
 1275ERGO    C216594  13.437  13.325   7.774 -0.0333  0.0199 -0.2399
 1276ERGO   ROH16595   1.817   8.267   5.714  0.0071  0.0372 -0.1617
 1276ERGO    R116596   1.712   8.226   5.974  0.0188  0.0795 -0.1492
 1276ERGO    R216597   1.790   8.015   6.135 -0.0127  0.0733 -0.1364
 1276ERGO    R316598   1.843   8.214   6.313  0.0447  0.0775 -0.1598
 1276ERGO    R416599   1.790   7.978   6.479 -0.0413  0.1169 -0.1327
 1276ERGO    R516600   1.693   8.172   6.495  0.0234  0.1505 -0.1620
 1276ERGO    C116601   1.839   8.142   6.846 -0.0041  0.1463 -0.1525
 1276ERGO    C216602   1.987   7.969   7.063  0.0793  0.0761  0.0744
 1277ERGO   ROH16603  13.527   5.641   6.769 -0.1037  0.0813  0.1542
 1277ERGO    R116604  13.442   5.840   6.951 -0.1324  0.1742  0.0440
 1277ERGO    R216605  13.383   6.098   6.872 -0.1818  0.1302 -0.1049
 1277ERGO    R316606  13.146   6.047   6.996 -0.1664  0.1471 -0.0741
 1277ERGO    R416607  13.169   6.339   6.996 -0.1328  0.1294 -0.0240
 1277ERGO    R516608  13.133   6.212   7.169 -0.1213  0.1118 -0.0475
 1277ERGO    C116609  12.823   6.432   7.185 -0.0898  0.1449  0.0521
 1277ERGO    C216610  12.742   6.810   7.316 -0.0194  0.2064 -0.0746
 1278ERGO   ROH16611  10.667  18.621   5.846  0.0826 -0.0719 -0.1059
 1278ERGO    R116612  10.756  18.623   6.115  0.0596 -0.0597 -0.0976
 1278ERGO    R216613  11.009  18.540   6.189  0.0696 -0.0174 -0.0758
 1278ERGO    R316614  11.020  18.785   6.305  0.0159 -0.0165 -0.0742
 1278ERGO    R416615  11.193  18.616   6.471 -0.1087 -0.0280  0.0438
 1278ERGO    R516616  11.027  18.739   6.540 -0.1425 -0.0113 -0.0686
 1278ERGO    C116617  11.311  18.890   6.745 -0.2629 -0.0331  0.1149
 1278ERGO    C216618  11.456  19.091   6.999  0.0501 -0.0719  0.0482
 1279ERGO   ROH16619  17.000   4.621   6.210  0.1974 -0.1380  0.0858
 1279ERGO    R116620  16.982   4.734   6.469  0.1236 -0.0252  0.0323
 1279ERGO    R216621  16.980   4.581   6.699 -0.1727  0.0600  0.0907
 1279ERGO    R316622  17.188   4.741   6.769 -0.0723 -0.1025  0.1702
 1279ERGO    R416623  17.046   4.688   7.020 -0.1156 -0.1221  0.1407
 1279ERGO    R516624  17.098   4.884   6.939  0.0124 -0.1188  0.2286
 1279ERGO    C116625  17.281   4.901   7.274  0.0118 -0.3806  0.2444
 1279ERGO    C216626  17.190   4.871   7.715  0.1121  0.0610 -0.1131
 1280ERGO   ROH16627   0.831   3.460   6.008  0.2174  0.1096  0.0608
 1280ERGO    R116628   0.808   3.696   6.162  0.0800  0.1051  0.0485
 1280ERGO    R216629   0.564   3.803   6.237  0.0177 -0.0344  0.0448
 1280ERGO    R316630   0.670   3.788   6.486  0.0289  0.0417  0.0450
 1280ERGO    R416631   0.529   4.044   6.482  0.1719  0.1204 -0.0829
 1280ERGO    R516632   0.737   4.012   6.536  0.1591  0.0332 -0.0826
 1280ERGO    C116633   0.608   4.171   6.859  0.2722  0.2821 -0.1571
 1280ERGO    C216634   0.818   4.332   7.156 -0.0645  0.0994  0.1076
 1281ERGO   ROH16635   5.058   3.623   5.888  0.0854 -0.0868 -0.0793
 1281ERGO    R116636   5.110   3.597   6.165  0.1451  0.0004 -0.0821
 1281ERGO    R216637   5.015   3.386   6.315  0.0510  0.1250  0.0363
 1281ERGO    R316638   5.277   3.357   6.381  0.0517 -0.0128 -0.0245
 1281ERGO    R416639   5.131   3.207   6.587  0.0212  0.0708  0.0135
 1281ERGO    R516640   5.279   3.363   6.621  0.1126 -0.0071 -0.0256
 1281ERGO    C116641   5.445   3.075   6.807  0.0045 -0.0901 -0.0569
 1281ERGO    C216642   5.698   2.827   6.888  0.0073 -0.0865  0.0362
 1282ERGO   ROH16643   9.213  18.857   5.931  0.2500 -0.1070  0.1277
 1282ERGO    R116644   9.058  18.910   6.161  0.0418  0.0160 -0.0376
 1282ERGO    R216645   8.796  18.827   6.187  0.0807 -0.1382 -0.1531
 1282ERGO    R316646   8.887  18.714   6.417 -0.0120  0.1507  0.0317
 1282ERGO    R416647   8.597  18.741   6.456 -0.1656 -0.5102 -0.4425
 1282ERGO    R516648   8.754  18.815   6.589 -0.5358 -0.0910 -0.2063
 1282ERGO    C116649   8.567  18.585   6.829 -0.3961 -0.4557 -0.4376
 1282ERGO    C216650   8.457  18.521   7.125 -0.1442  0.1574 -0.1297
 1283ERGO   ROH16651   3.861   5.927   5.813  0.0952  0.0491 -0.0791
 1283ERGO    R116652   3.979   5.995   6.061  0.1198  0.0494 -0.0908
 1283ERGO    R216653   4.004   6.257   6.147  0.0121  0.0431 -0.0362
 1283ERGO    R316654   3.874   6.163   6.366  0.1081 -0.0721 -0.0277
 1283ERGO    R416655   3.996   6.414   6.454 -0.2086  0.1009 -0.0698
 1283ERGO    R516656   4.017   6.219   6.549  0.0247  0.1451 -0.0267
 1283ERGO    C116657   3.869   6.417   6.839 -0.2471  0.0264 -0.0812
 1283ERGO    C216658   3.824   6.586   7.253 -0.4806 -0.1784 -0.0235
 1284ERGO   ROH16659   6.229  16.108   5.823 -0.0793 -0.0335 -0.0179
 1284ERGO    R116660   6.106  16.108   6.078  0.0273  0.1019  0.0349
 1284ERGO    R216661   6.244  16.164   6.311  0.1244  0.2331 -0.0524
 1284ERGO    R316662   6.048  16.349   6.345  0.1332  0.2467 -0.0726
 1284ERGO    R416663   6.171  16.322   6.609  0.1115  0.2566 -0.0675
 1284ERGO    R516664   5.959  16.303   6.562  0.1159  0.2669 -0.0775
 1284ERGO    C116665   5.944  16.588   6.814  0.1124  0.2833 -0.0952
 1284ERGO    C216666   6.024  16.963   7.004 -0.1394 -0.2147  0.0452
 1285ERGO   ROH16667   7.550   6.043   5.804 -0.0706  0.2402 -0.0588
 1285ERGO    R116668   7.503   6.113   6.075 -0.0535  0.0773 -0.0122
 1285ERGO    R216669   7.336   5.965   6.239 -0.1156  0.0264 -0.1132
 1285ERGO    R316670   7.555   5.958   6.400 -0.1203 -0.1630 -0.1147
 1285ERGO    R416671   7.327   5.960   6.584 -0.1115  0.1399 -0.1117
 1285ERGO    R516672   7.496   6.097   6.586  0.0364 -0.0447 -0.1558
 1285ERGO    C116673   7.527   5.950   6.937 -0.1134  0.0281 -0.1123
 1285ERGO    C216674   7.647   5.893   7.198  0.0700  0.0596 -0.2778
 1286ERGO   ROH16675   3.987  13.143   5.821  0.0371  0.1485  0.0080
 1286ERGO    R116676   3.901  12.981   6.036 -0.0727  0.2617  0.0509
 1286ERGO    R216677   4.060  12.785   6.148 -0.2660  0.0598 -0.0173
 1286ERGO    R316678   4.006  12.918   6.379  0.0056  0.1390  0.0049
 1286ERGO    R416679   4.120  12.662   6.466 -0.2874 -0.0096 -0.0400
 1286ERGO    R516680   3.930  12.747   6.529 -0.1519  0.2402  0.0413
 1286ERGO    C116681   4.103  12.715   6.867 -0.0449  0.0244 -0.0323
 1286ERGO    C216682   4.234  12.856   7.121  0.2320 -0.0761  0.0838
 1287ERGO   ROH16683   2.562  16.568   5.687  0.0928 -0.1332  0.0659
 1287ERGO    R116684   2.697  16.574   5.936  0.1310 -0.3603  0.0506
 1287ERGO    R216685   2.598  16.708   6.156  0.4125 -0.1289  0.0344
 1287ERGO    R316686   2.628  16.466   6.276 -0.0480 -0.1765  0.0758
 1287ERGO    R416687   2.567  16.652   6.495  0.4835  0.0322  0.0699
 1287ERGO    R516688   2.738  16.517   6.483  0.1913 -0.3557  0.0014
 1287ERGO    C116689   2.577  16.393   6.807  0.0926  0.0814  0.1293
 1287ERGO    C216690   2.507  16.314   7.075 -0.1981  0.0868  0.0257
 1288ERGO   ROH16691   2.519  18.097   5.973  0.0883 -0.0551 -0.1204
 1288ERGO    R116692   2.650  18.232   6.185 -0.0054  0.0658 -0.1371
 1288ERGO    R216693   2.515  18.387   6.369 -0.1232 -0.0393 -0.1281
 1288ERGO    R316694   2.640  18.226   6.548  0.0308  0.0690 -0.1370
 1288ERGO    R416695   2.509  18.431   6.712 -0.1805 -0.0818 -0.1240
 1288ERGO    R516696   2.720  18.375   6.718 -0.1267  0.1298 -0.1191
 1288ERGO    C116697   2.623  18.305   7.080 -0.0693 -0.0049 -0.1301
 1288ERGO    C216698   2.727  18.342   7.376  0.0879 -0.0985 -0.0887
 1289ERGO   ROH16699  11.098   1.820   6.261 -0.0979  0.3030  0.0891
 1289ERGO    R116700  10.908   1.829   6.470 -0.1400  0.0461  0.0665
 1289ERGO    R216701  10.683   1.667   6.475  0.0450 -0.2202  0.0122
 1289ERGO    R316702  10.778   1.598   6.720  0.0945 -0.1491  0.0120
 1289ERGO    R416703  10.490   1.549   6.736  0.1014 -0.2055  0.0591
 1289ERGO    R516704  10.608   1.670   6.872  0.0973 -0.1513  0.0185
 1289ERGO    C116705  10.467   1.416   7.118  0.1808 -0.1302  0.0863
 1289ERGO    C216706  10.265   1.118   7.282  0.0186  0.3734 -0.2402
 1290ERGO   ROH16707   4.901  13.661   5.652  0.0944 -0.1930 -0.0610
 1290ERGO    R116708   4.949  13.576   5.918  0.1350 -0.1101 -0.0407
 1290ERGO    R216709   5.204  13.535   6.017  0.1551 -0.0426 -0.0528
 1290ERGO    R316710   5.121  13.708   6.210  0.1452  0.0020 -0.0980
 1290ERGO    R416711   5.376  13.603   6.309  0.0302 -0.1325  0.0425
 1290ERGO    R516712   5.186  13.604   6.416 -0.0245 -0.0289 -0.0619
 1290ERGO    C116713   5.400  13.804   6.660 -0.0518 -0.1429  0.0555
 1290ERGO    C216714   5.606  13.836   7.037 -0.0341  0.1277  0.0749
 1291ERGO   ROH16715  17.078  10.898   6.055  0.1780 -0.1209  0.0098
 1291ERGO    R116716  17.079  11.053   6.291  0.3477  0.0545 -0.1042
 1291ERGO    R216717  17.034  10.944   6.541 -0.0120  0.3221 -0.0494
 1291ERGO    R316718  17.271  11.063   6.600  0.1953 -0.0976 -0.0021
 1291ERGO    R416719  17.124  11.058   6.855  0.0654  0.2858 -0.0576
 1291ERGO    R516720  17.214  11.233   6.759  0.4410  0.0844 -0.0981
 1291ERGO    C116721  17.399  11.235   7.093  0.3050 -0.1294 -0.0179
 1291ERGO    C216722  17.355  11.119   7.400 -0.0627 -0.0185  0.1774
 1292ERGO   ROH16723   7.603  13.974   5.714  0.1112  0.0276 -0.1644
 1292ERGO    R116724   7.704  14.063   5.963  0.1206 -0.0758 -0.1315
 1292ERGO    R216725   7.569  14.244   6.122  0.2406  0.0398 -0.1641
 1292ERGO    R316726   7.597  14.051   6.311  0.0092  0.0057 -0.1620
 1292ERGO    R416727   7.517  14.290   6.460  0.2524  0.0978 -0.1696
 1292ERGO    R516728   7.691  14.165   6.499  0.1149 -0.0949 -0.1510
 1292ERGO    C116729   7.512  14.135   6.835  0.0421  0.0996 -0.1708
 1292ERGO    C216730   7.377  14.349   7.121  0.1115  0.0407 -0.1631
 1293ERGO   ROH16731   9.065  15.917   5.897 -0.2056 -0.0057  0.1452
 1293ERGO    R116732   8.931  15.884   6.144 -0.1787 -0.0220  0.1543
 1293ERGO    R216733   8.728  15.701   6.179 -0.1066 -0.0723  0.1824
 1293ERGO    R316734   8.883  15.616   6.386 -0.0849 -0.0074  0.1969
 1293ERGO    R416735   8.613  15.639   6.499 -0.0712  0.2435  0.2612
 1293ERGO    R516736   8.796  15.731   6.577  0.0242  0.2061  0.1384
 1293ERGO    C116737   8.692  15.524   6.879 -0.0303  0.4881  0.3207
 1293ERGO    C216738   8.685  15.191   7.104  0.0478 -0.1530  0.1872
 1294ERGO   ROH16739   1.159  10.631   5.813 -0.2199  0.0843  0.2499
 1294ERGO    R116740   1.212  10.562   6.082 -0.2024  0.0150  0.2277
 1294ERGO    R216741   1.353  10.726   6.253 -0.0427 -0.1075  0.2092
 1294ERGO    R316742   1.133  10.698   6.410 -0.0228  0.0320  0.2661
 1294ERGO    R416743   1.352  10.749   6.598  0.0223  0.1226  0.1966
 1294ERGO    R516744   1.213  10.582   6.604 -0.0063  0.1455  0.3313
 1294ERGO    C116745   1.145  10.736   6.946  0.0788  0.3877  0.2428
 1294ERGO    C216746   1.260  10.786   7.322  0.5071 -0.0064  0.2263
 1295ERGO   ROH16747   3.415   8.043   5.950 -0.2077  0.0637  0.2300
 1295ERGO    R116748   3.629   8.072   6.132 -0.0321  0.1965  0.0056
 1295ERGO    R216749   3.611   8.226   6.361  0.0849  0.1223  0.0608
 1295ERGO    R316750   3.691   7.997   6.483  0.4146  0.1589 -0.0734
 1295ERGO    R416751   3.733   8.208   6.683 -0.3652  0.0637  0.2369
 1295ERGO    R516752   3.881   8.063   6.613  0.0814  0.4623  0.2907
 1295ERGO    C116753   3.880   7.983   6.986 -0.3178  0.0638  0.2136
 1295ERGO    C216754   3.904   7.862   7.279  0.0025 -0.3503  0.5514
 1296ERGO   ROH16755   3.547   2.510   7.426  0.0052  0.0094 -0.1586
 1296ERGO    R116756   3.289   2.621   7.397  0.0743  0.1410 -0.2862
 1296ERGO    R216757   3.153   2.621   7.156  0.0284 -0.1552 -0.2653
 1296ERGO    R316758   2.958   2.502   7.303 -0.0254  0.2099 -0.0276
 1296ERGO    R416759   2.823   2.589   7.057  0.0287 -0.2611 -0.2322
 1296ERGO    R516760   2.763   2.635   7.262  0.0208  0.1892 -0.3268
 1296ERGO    C116761   2.448   2.458   7.138 -0.0217  0.0199  0.0101
 1296ERGO    C216762   2.286   2.279   7.014 -0.0652 -0.0490  0.0054
 1297ERGO   ROH16763   9.317  18.433   5.696 -0.1879  0.2240  0.0909
 1297ERGO    R116764   9.544  18.437   5.865 -0.1549  0.1172  0.0499
 1297ERGO    R216765   9.675  18.671   5.932 -0.0586  0.0605  0.0613
 1297ERGO    R316766   9.632  18.584   6.186 -0.0427  0.0374  0.0562
 1297ERGO    R416767   9.913  18.667   6.182 -0.1049  0.2584  0.1104
 1297ERGO    R516768   9.836  18.474   6.246  0.0333  0.1991  0.1025
 1297ERGO    C116769  10.012  18.583   6.566 -0.1170  0.3524  0.1342
 1297ERGO    C216770  10.119  18.832   6.718  0.0291 -0.1064 -0.0070
 1298ERGO   ROH16771  16.461  11.792   5.992  0.2869  0.1207  0.0655
 1298ERGO    R116772  16.287  11.699   6.195  0.1114  0.2606 -0.0159
 1298ERGO    R216773  16.371  11.533   6.399 -0.1976 -0.1247 -0.1746
 1298ERGO    R316774  16.266  11.727   6.557  0.2025 -0.0514  0.0125
 1298ERGO    R416775  16.279  11.490   6.729 -0.0584 -0.1545 -0.1400
 1298ERGO    R516776  16.103  11.612   6.691  0.1122  0.1369  0.0492
 1298ERGO    C116777  16.126  11.647   7.070  0.3987 -0.1030  0.0558
 1298ERGO    C216778  16.114  11.485   7.450  0.0292 -0.1779  0.0163
 1299ERGO   ROH16779   8.558  12.207   5.343  0.0679  0.1353 -0.0574
 1299ERGO    R116780   8.648  12.250   5.607  0.1671 -0.0814 -0.0537
 1299ERGO    R216781   8.514  12.413   5.785  0.4232  0.0569  0.0186
 1299ERGO    R316782   8.520  12.192   5.943  0.1249 -0.0089 -0.0577
 1299ERGO    R416783   8.403  12.401   6.112  0.4181  0.0938  0.0182
 1299ERGO    R516784   8.575  12.276   6.161  0.2489 -0.1603 -0.0306
 1299ERGO    C116785   8.344  12.186   6.451  0.1352  0.0535 -0.0536
 1299ERGO    C216786   8.245  12.032   6.839 -0.1246 -0.0207 -0.2042
 1300ERGO   ROH16787  10.593  17.775   6.058  0.1503 -0.0106  0.0683
 1300ERGO    R116788  10.563  17.878   6.320 -0.0474 -0.1926  0.1235
 1300ERGO    R216789  10.479  17.723   6.532  0.1784 -0.4539  0.0471
 1300ERGO    R316790  10.708  17.814   6.647  0.0311 -0.1376  0.0949
 1300ERGO    R416791  10.568  17.674   6.863  0.1673 -0.2430  0.0807
 1300ERGO    R516792  10.643  17.878   6.868 -0.0950 -0.1607  0.0519
 1300ERGO    C116793  10.835  17.730   7.163  0.0227  0.1767  0.1451
 1300ERGO    C216794  11.185  17.683   7.323 -0.1353  0.2485  0.0049
 1301ERGO   ROH16795   8.045  18.266   7.025 -0.1316  0.0321 -0.0090
 1301ERGO    R116796   8.032  18.376   7.286 -0.0640  0.2162 -0.0818
 1301ERGO    R216797   7.889  18.605   7.343 -0.3447  0.0625 -0.1428
 1301ERGO    R316798   7.772  18.447   7.530  0.0386  0.0324  0.0833
 1301ERGO    R416799   7.745  18.719   7.636 -0.3810  0.0975 -0.1742
 1301ERGO    R516800   7.831  18.548   7.739 -0.0166  0.3463 -0.0480
 1301ERGO    C116801   7.551  18.637   7.982 -0.0424  0.0898  0.0198
 1301ERGO    C216802   7.456  18.599   8.233 -0.0237  0.0212  0.1720
 1302ERGO   ROH16803   1.826  16.939   5.532 -0.1198 -0.2560  0.0479
 1302ERGO    R116804   1.835  16.855   5.803 -0.0053 -0.1085  0.0907
 1302ERGO    R216805   2.073  16.816   5.939  0.0509  0.0550  0.0396
 1302ERGO    R316806   1.962  16.989   6.117  0.0402  0.1074 -0.0176
 1302ERGO    R416807   2.142  16.823   6.277  0.1566  0.2593  0.0157
 1302ERGO    R516808   1.930  16.859   6.315  0.1527  0.1981  0.0627
 1302ERGO    C116809   2.078  16.989   6.641  0.2081  0.4277 -0.0518
 1302ERGO    C216810   2.353  16.989   6.761 -0.0402  0.2785 -0.1889
 1303ERGO   ROH16811  15.226   6.996   6.061  0.2423 -0.0084 -0.1092
 1303ERGO    R116812  15.058   6.992   6.289  0.1937 -0.1195 -0.1494
 1303ERGO    R216813  15.132   6.871   6.525  0.2811  0.0596 -0.0987
 1303ERGO    R316814  15.074   7.115   6.631 -0.0381  0.0297 -0.1861
 1303ERGO    R416815  15.106   6.936   6.864  0.5898  0.2012 -0.0959
 1303ERGO    R516816  14.934   7.065   6.820  0.2786 -0.1332  0.0280
 1303ERGO    C116817  15.036   7.203   7.161  0.4698  0.2556 -0.1764
 1303ERGO    C216818  15.221   7.248   7.502 -0.2677 -0.0796 -0.1523
 1304ERGO   ROH16819  12.799  12.296   6.118 -0.2361 -0.2143  0.0907
 1304ERGO    R116820  12.630  12.337   6.341 -0.1695 -0.2674  0.1504
 1304ERGO    R216821  12.643  12.181   6.568  0.1176 -0.1178  0.2366
 1304ERGO    R316822  12.671  12.421   6.693 -0.0848 -0.0098  0.0821
 1304ERGO    R416823  12.609  12.232   6.908  0.3439  0.0122  0.2427
 1304ERGO    R516824  12.504  12.418   6.865  0.0603 -0.1402  0.2277
 1304ERGO    C116825  12.616  12.486   7.223  0.2858  0.1892  0.1010
 1304ERGO    C216826  12.702  12.511   7.521  0.1397  0.0123 -0.0409
 1305ERGO   ROH16827  11.265  10.772   5.775  0.0162 -0.1523 -0.0691
 1305ERGO    R116828  11.122  10.888   5.991  0.0010 -0.1791 -0.0648
 1305ERGO    R216829  10.896  10.771   6.099  0.0810 -0.2702  0.0045
 1305ERGO    R316830  11.036  10.794   6.331  0.1158 -0.1518 -0.0273
 1305ERGO    R416831  10.755  10.798   6.414  0.1250 -0.0837  0.0098
 1305ERGO    R516832  10.906  10.945   6.464  0.1452 -0.0662 -0.0936
 1305ERGO    C116833  10.803  10.834   6.814  0.1833  0.1360 -0.0169
 1305ERGO    C216834  10.513  10.819   6.992  0.1711  0.0270  0.0420
 1306ERGO   ROH16835  11.822   3.217   6.272 -0.0007  0.0456  0.0617
 1306ERGO    R116836  11.878   3.367   6.505  0.2630  0.1341 -0.0549
 1306ERGO    R216837  11.819   3.276   6.759 -0.0805  0.5096  0.0104
 1306ERGO    R316838  12.082   3.325   6.804  0.0362 -0.0922  0.0721
 1306ERGO    R416839  11.990   3.189   7.046 -0.3735  0.2227  0.1046
 1306ERGO    R516840  12.094   3.380   7.036  0.0884 -0.0161  0.0519
 1306ERGO    C116841  12.337   3.185   7.256 -0.4346 -0.5094  0.2174
 1306ERGO    C216842  12.404   3.071   7.546 -0.0573  0.0912  0.2112
 1307ERGO   ROH16843   6.579  12.303   5.547  0.2189  0.0766 -0.1232
 1307ERGO    R116844   6.726  12.327   5.788  0.0118  0.0505  0.0084
 1307ERGO    R216845   6.635  12.224   6.028 -0.1210 -0.1209 -0.1101
 1307ERGO    R316846   6.877  12.100   6.028 -0.0452  0.0256  0.0201
 1307ERGO    R416847   6.765  12.043   6.292 -0.1042  0.0474 -0.0021
 1307ERGO    R516848   6.960  12.130   6.251 -0.1429  0.1511  0.0392
 1307ERGO    C116849   7.067  11.821   6.446 -0.0233  0.2831  0.1830
 1307ERGO    C216850   7.160  11.736   6.722 -0.3305  0.2105 -0.2203
 1308ERGO   ROH16851   2.895   1.698   6.092 -0.0419  0.1545  0.0154
 1308ERGO    R116852   2.852   1.597   6.353 -0.0378  0.1370  0.0096
 1308ERGO    R216853   3.059   1.531   6.523 -0.0331 -0.0678 -0.0712
 1308ERGO    R316854   2.931   1.700   6.693  0.1611  0.0050  0.0046
 1308ERGO    R416855   3.090   1.524   6.867 -0.0672 -0.2803 -0.0714
 1308ERGO    R516856   2.875   1.563   6.882 -0.0224 -0.0235 -0.0696
 1308ERGO    C116857   2.988   1.678   7.227  0.0953 -0.3357 -0.0004
 1308ERGO    C216858   3.219   1.564   7.432 -0.2632  0.1434  0.2625
 1309ERGO   ROH16859   9.263  17.373   5.987 -0.0646 -0.0575  0.0390
 1309ERGO    R116860   9.141  17.236   6.203 -0.0591 -0.0672  0.0357
 1309ERGO    R216861   9.196  17.297   6.468  0.0012 -0.1267  0.0371
 1309ERGO    R316862   8.926  17.323   6.484  0.0098 -0.0657  0.0883
 1309ERGO    R416863   9.003  17.200   6.738  0.0332 -0.0388  0.0921
 1309ERGO    R516864   8.853  17.126   6.598 -0.0105 -0.0299  0.1361
 1309ERGO    C116865   8.638  17.168   6.910  0.0600  0.0694  0.1723
 1309ERGO    C216866   8.485  17.335   7.144 -0.1205  0.4049  0.0261
 1310ERGO   ROH16867  11.598  10.618   6.113  0.1832 -0.0493  0.2010
 1310ERGO    R116868  11.376  10.552   6.277  0.0710  0.0601  0.0963
 1310ERGO    R216869  11.390  10.363   6.477 -0.1669 -0.0804 -0.0088
 1310ERGO    R316870  11.296  10.566   6.631 -0.0153 -0.0784  0.0815
 1310ERGO    R416871  11.226  10.323   6.779 -0.1165 -0.0781  0.0180
 1310ERGO    R516872  11.090  10.483   6.721 -0.0380  0.0143  0.1055
 1310ERGO    C116873  11.043  10.491   7.100  0.0551 -0.0748  0.1184
 1310ERGO    C216874  10.874  10.277   7.415  0.2009 -0.0106  0.2287
 1311ERGO   ROH16875  17.988  16.513   6.409 -0.1967  0.1125 -0.0620
 1311ERGO    R116876  17.953  16.546   6.688 -0.1477  0.1363 -0.0576
 1311ERGO    R216877  17.703  16.561   6.806 -0.1326  0.0782 -0.0035
 1311ERGO    R316878  17.800  16.358   6.960 -0.0371  0.1228 -0.0066
 1311ERGO    R416879  17.677  16.543   7.150  0.0832  0.1600  0.0179
 1311ERGO    R516880  17.880  16.466   7.157  0.0819  0.1678 -0.0850
 1311ERGO    C116881  17.752  16.343   7.495  0.2982  0.2495  0.0276
 1311ERGO    C216882  17.756  16.362   7.824  0.1311 -0.1982  0.0354
 1312ERGO   ROH16883  11.037  17.888   6.351 -0.2339  0.0716 -0.0783
 1312ERGO    R116884  10.976  18.136   6.474 -0.0557  0.0411  0.0759
 1312ERGO    R216885  10.729  18.257   6.450  0.1155  0.3706 -0.0895
 1312ERGO    R316886  10.739  18.258   6.721 -0.1758  0.1121 -0.0724
 1312ERGO    R416887  10.549  18.471   6.653  0.0671  0.3268 -0.0850
 1312ERGO    R516888  10.725  18.489   6.781 -0.0525  0.0708  0.1255
 1312ERGO    C116889  10.453  18.596   7.026 -0.2346  0.0584 -0.0665
 1312ERGO    C216890  10.264  18.790   7.212 -0.1794  0.1553  0.0968
 1313ERGO   ROH16891   5.046  10.810   5.460  0.1965  0.2362 -0.1040
 1313ERGO    R116892   5.030  10.644   5.689 -0.0208  0.3520 -0.0313
 1313ERGO    R216893   5.170  10.406   5.711 -0.4352  0.0947  0.0092
 1313ERGO    R316894   5.260  10.519   5.941 -0.1448  0.0362 -0.0730
 1313ERGO    R416895   5.233  10.234   6.004 -0.4557  0.0919  0.0112
 1313ERGO    R516896   5.145  10.400   6.115 -0.1764  0.2228  0.0299
 1313ERGO    C116897   5.354  10.239   6.391 -0.1950  0.0354 -0.0649
 1313ERGO    C216898   5.447  10.277   6.662  0.2032 -0.0942  0.6054
 1314ERGO   ROH16899  17.014   6.805   6.364 -0.1551 -0.1968  0.0483
 1314ERGO    R116900  16.955   6.892   6.627 -0.0147  0.1096 -0.0183
 1314ERGO    R216901  17.045   6.758   6.852 -0.3685  0.0396  0.0730
 1314ERGO    R316902  17.143   7.003   6.918  0.1839 -0.1326 -0.0463
 1314ERGO    R416903  17.151   6.848   7.168 -0.6025  0.0573  0.1507
 1314ERGO    R516904  17.057   7.043   7.139 -0.0618  0.3065 -0.1982
 1314ERGO    C116905  17.306   7.130   7.415 -0.2202 -0.0940  0.0839
 1314ERGO    C216906  17.543   7.101   7.723  0.1464 -0.1655 -0.0536
 1315ERGO   ROH16907  10.883  16.741   5.944 -0.0258 -0.2458 -0.0523
 1315ERGO    R116908  10.770  16.649   6.187 -0.1536 -0.1779 -0.0840
 1315ERGO    R216909  10.821  16.770   6.431  0.0081 -0.3244 -0.0413
 1315ERGO    R316910  10.549  16.782   6.444  0.0202  0.0353 -0.0420
 1315ERGO    R416911  10.639  16.818   6.721  0.0720 -0.2090 -0.0207
 1315ERGO    R516912  10.495  16.671   6.649 -0.1291  0.0134 -0.0909
 1315ERGO    C116913  10.278  16.857   6.902  0.1206  0.1960 -0.0093
 1315ERGO    C216914  10.109  16.929   7.207  0.0864 -0.1802 -0.1059
 1316ERGO   ROH16915   5.594   8.612   5.710  0.1434  0.0215 -0.0284
 1316ERGO    R116916   5.675   8.595   5.980  0.2320  0.1414 -0.0468
 1316ERGO    R216917   5.720   8.819   6.136 -0.1214  0.2123 -0.0409
 1316ERGO    R316918   5.542   8.698   6.303  0.1189 -0.1112 -0.0111
 1316ERGO    R416919   5.691   8.883   6.475 -0.3658  0.3745 -0.0898
 1316ERGO    R516920   5.663   8.670   6.508  0.1410  0.3167  0.0431
 1316ERGO    C116921   5.508   8.807   6.828 -0.2826  0.1653 -0.0904
 1316ERGO    C216922   5.449   8.958   7.152 -0.0076  0.4901 -0.0107
 1317ERGO   ROH16923  16.137   2.037   8.502 -0.0592  0.0476  0.0338
 1317ERGO    R116924  16.030   1.860   8.308 -0.0271  0.0591  0.0070
 1317ERGO    R216925  16.189   1.698   8.152 -0.0098 -0.0170  0.1101
 1317ERGO    R316926  16.028   1.501   8.250 -0.1287  0.0503  0.0551
 1317ERGO    R416927  16.159   1.381   8.016  0.1245 -0.0959  0.2584
 1317ERGO    R516928  15.944   1.391   8.055  0.0766 -0.0586  0.0220
 1317ERGO    C116929  15.991   1.013   8.028  0.0911 -0.0786  0.2931
 1317ERGO    C216930  15.817   0.624   7.943  0.1650 -0.0682  0.0224
 1318ERGO   ROH16931  13.127  18.317   6.066 -0.2436 -0.0730 -0.0778
 1318ERGO    R116932  12.971  18.289   6.301 -0.2404 -0.0679 -0.0752
 1318ERGO    R216933  13.075  18.190   6.538 -0.2646 -0.1670 -0.1050
 1318ERGO    R316934  12.977  18.422   6.640 -0.1660 -0.1518 -0.0434
 1318ERGO    R416935  12.955  18.230   6.859 -0.2592 -0.2017 -0.0985
 1318ERGO    R516936  12.795  18.354   6.779 -0.2012 -0.1091 -0.0692
 1318ERGO    C116937  12.793  18.471   7.142 -0.1636 -0.2076 -0.0369
 1318ERGO    C216938  12.938  18.500   7.435  0.1434 -0.2048 -0.0966
 1319ERGO   ROH16939  14.973   4.291   6.212  0.3358 -0.2057  0.0709
 1319ERGO    R116940  14.946   4.314   6.493  0.2141 -0.1869  0.0584
 1319ERGO    R216941  15.061   4.135   6.669  0.3552 -0.0304  0.1280
 1319ERGO    R316942  15.169   4.361   6.777  0.0693  0.1104  0.1275
 1319ERGO    R416943  15.088   4.199   7.007  0.3692 -0.0449  0.1293
 1319ERGO    R516944  15.032   4.406   6.968  0.0606 -0.1139  0.1771
 1319ERGO    C116945  15.205   4.447   7.306  0.1090  0.0789  0.1296
 1319ERGO    C216946  15.140   4.413   7.649  0.1039  0.2883 -0.1381
 1320ERGO   ROH16947  18.683   0.105   7.037  0.2242  0.2093 -0.0918
 1320ERGO    R116948  18.475   0.217   7.193  0.0884  0.1730 -0.2444
 1320ERGO    R216949  18.523   0.356   7.427 -0.1264 -0.0711 -0.0536
 1320ERGO    R316950  18.379   0.550   7.304  0.1278  0.1234 -0.0546
 1320ERGO    R416951  18.477   0.676   7.549 -0.1485 -0.1789  0.2292
 1320ERGO    R516952  18.270   0.666   7.483 -0.0689 -0.0217 -0.0723
 1320ERGO    C116953  18.314   1.045   7.504  0.0774 -0.0591  0.3929
 1320ERGO    C216954  18.481   1.349   7.463  0.0549  0.2494  0.0804
 1321ERGO   ROH16955  10.516   4.200   5.924 -0.0614 -0.0046  0.1014
 1321ERGO    R116956  10.521   4.345   6.167 -0.0074  0.1244  0.0243
 1321ERGO    R216957  10.410   4.248   6.401  0.0815  0.2289  0.1113
 1321ERGO    R316958  10.658   4.297   6.501  0.1058  0.3213  0.0078
 1321ERGO    R416959  10.478   4.336   6.729  0.2177 -0.1282  0.1841
 1321ERGO    R516960  10.626   4.478   6.655  0.0438  0.1004  0.2621
 1321ERGO    C116961  10.750   4.434   7.013  0.3197 -0.2495  0.1293
 1321ERGO    C216962  10.705   4.389   7.345 -0.2009  0.0727  0.0456
 1322ERGO   ROH16963  18.849   3.207   6.261  0.1906 -0.2553  0.1092
 1322ERGO    R116964  18.898   3.167   6.537  0.0978 -0.1223  0.1477
 1322ERGO    R216965  18.977   3.371   6.705  0.0588 -0.0380  0.0794
 1322ERGO    R316966  18.761   3.292   6.850  0.0008  0.0467  0.0367
 1322ERGO    R416967  18.940   3.416   7.046  0.0635 -0.1688  0.0963
 1322ERGO    R516968  18.853   3.217   7.058 -0.0697 -0.1068  0.0056
 1322ERGO    C116969  18.716   3.368   7.380  0.0121 -0.1654  0.0661
 1322ERGO    C216970  18.812   3.488   7.668 -0.0981 -0.0576  0.0730
 1323ERGO   ROH16971  10.501   6.248   5.838  0.0551 -0.0098  0.2759
 1323ERGO    R116972  10.360   6.236   6.083 -0.0008  0.1739  0.2537
 1323ERGO    R216973  10.357   6.011   6.242 -0.2222  0.2174  0.3114
 1323ERGO    R316974  10.442   6.184   6.433 -0.1106  0.1942  0.2835
 1323ERGO    R416975  10.295   5.977   6.581 -0.0389  0.1789  0.3418
 1323ERGO    R516976  10.262   6.192   6.591 -0.0268  0.1813  0.3838
 1323ERGO    C116977  10.340   6.120   6.957  0.1725  0.1347  0.3334
 1323ERGO    C216978  10.094   6.124   7.155  0.1016 -0.0731  0.1008
 1324ERGO   ROH16979   2.714  14.282   5.790 -0.1120 -0.0634  0.0403
 1324ERGO    R116980   2.843  14.115   5.978  0.0171 -0.0390 -0.0257
 1324ERGO    R216981   3.118  14.105   6.003  0.0271  0.1331 -0.0580
 1324ERGO    R316982   3.064  14.160   6.264  0.0173  0.0152 -0.0341
 1324ERGO    R416983   3.355  14.192   6.240  0.0251 -0.0177  0.0010
 1324ERGO    R516984   3.249  14.067   6.384 -0.0048 -0.0723 -0.0662
 1324ERGO    C116985   3.442  14.295   6.622  0.0147 -0.2163  0.0578
 1324ERGO    C216986   3.529  14.434   6.875 -0.1680 -0.3957 -0.2559
 1325ERGO   ROH16987   2.244  11.137   5.962 -0.1590 -0.0191  0.0174
 1325ERGO    R116988   2.153  11.032   6.208 -0.0847  0.0073  0.0570
 1325ERGO    R216989   2.316  11.008   6.429  0.0196 -0.0910 -0.0264
 1325ERGO    R316990   2.119  11.151   6.551  0.1521 -0.0002  0.0835
 1325ERGO    R416991   2.258  11.013   6.770  0.0971 -0.1999 -0.0113
 1325ERGO    R516992   2.043  11.008   6.728  0.0858 -0.0224  0.0349
 1325ERGO    C116993   2.039  11.150   7.082  0.2666 -0.1781  0.1007
 1325ERGO    C216994   1.826  11.287   7.301  0.3159 -0.0827 -0.0243
 1326ERGO   ROH16995   1.884  13.189   6.178 -0.0287 -0.0224  0.0798
 1326ERGO    R116996   1.993  13.068   6.409 -0.0839 -0.0607  0.0871
 1326ERGO    R216997   2.238  13.141   6.515  0.0346 -0.2814 -0.0132
 1326ERGO    R316998   2.093  13.175   6.742  0.1344 -0.0476  0.0174
 1326ERGO    R416999   2.364  13.112   6.836  0.0873 -0.2956 -0.0358
 1326ERGO    R517000   2.180  13.010   6.893  0.0002 -0.0806  0.0529
 1326ERGO    C117001   2.301  13.126   7.236  0.2117 -0.0844 -0.0203
 1326ERGO    C217002   2.503  13.259   7.444 -0.1349  0.0815 -0.3348
 1327ERGO   ROH17003  11.568   4.201   5.990  0.0051  0.0417  0.1177
 1327ERGO    R117004  11.699   4.321   6.211 -0.0175  0.0859  0.1077
 1327ERGO    R217005  11.567   4.483   6.392 -0.0745 -0.0170  0.1611
 1327ERGO    R317006  11.671   4.308   6.573  0.0662  0.0148  0.1116
 1327ERGO    R417007  11.743   4.574   6.675 -0.0881  0.0407  0.1507
 1327ERGO    R517008  11.879   4.408   6.638  0.0128  0.1354  0.0980
 1327ERGO    C117009  11.943   4.463   7.010  0.0359  0.1041  0.0982
 1327ERGO    C217010  12.174   4.705   7.161 -0.0725 -0.2237 -0.0938
 1328ERGO   ROH17011  10.252   0.613   6.057  0.3061 -0.2298 -0.1604
 1328ERGO    R117012  10.262   0.828   6.241  0.0861 -0.2433 -0.1288
 1328ERGO    R217013  10.282   0.790   6.514  0.1133 -0.2633 -0.1293
 1328ERGO    R317014  10.497   0.953   6.489 -0.0446 -0.0477 -0.1032
 1328ERGO    R417015  10.461   0.923   6.778  0.0748 -0.2408 -0.1150
 1328ERGO    R517016  10.474   1.111   6.668 -0.1323 -0.1685 -0.0118
 1328ERGO    C117017  10.767   1.154   6.908 -0.0960 -0.0253 -0.0820
 1328ERGO    C217018  11.046   1.422   7.103  0.1125 -0.2605  0.0402
 1329ERGO   ROH17019   3.942   2.839   5.735 -0.0543 -0.1485 -0.0094
 1329ERGO    R117020   3.870   2.812   6.007  0.0097 -0.1404  0.0093
 1329ERGO    R217021   4.019   2.666   6.187  0.1459  0.0031  0.0198
 1329ERGO    R317022   4.015   2.898   6.329  0.0057  0.0348 -0.0356
 1329ERGO    R417023   4.095   2.693   6.524  0.1482  0.1395  0.0083
 1329ERGO    R517024   3.930   2.835   6.544  0.0609  0.0365 -0.0164
 1329ERGO    C117025   4.134   2.927   6.853  0.0179  0.2488 -0.0505
 1329ERGO    C217026   4.382   3.022   7.137 -0.0978 -0.0697  0.0182
 1330ERGO   ROH17027  15.448   9.749   5.940 -0.1181 -0.3893 -0.0280
 1330ERGO    R117028  15.460   9.867   6.197 -0.1746 -0.2360 -0.0935
 1330ERGO    R217029  15.275   9.810   6.395 -0.1353 -0.2325 -0.0514
 1330ERGO    R317030  15.497   9.749   6.540 -0.0914 -0.0229 -0.0288
 1330ERGO    R417031  15.275   9.735   6.732 -0.0518  0.0605  0.0164
 1330ERGO    R517032  15.458   9.852   6.753 -0.0949  0.1467 -0.1121
 1330ERGO    C117033  15.484   9.634   7.065  0.0381  0.4277  0.0771
 1330ERGO    C217034  15.257   9.557   7.328 -0.1144 -0.0568  0.3489
 1331ERGO   ROH17035  14.431  14.093   6.033  0.0609 -0.0940  0.0649
 1331ERGO    R117036  14.300  14.125   6.282  0.0450  0.1323  0.0289
 1331ERGO    R217037  14.328  13.944   6.489 -0.2029  0.1636  0.0888
 1331ERGO    R317038  14.399  14.166   6.630  0.0193  0.1274  0.0378
 1331ERGO    R417039  14.319  13.971   6.834 -0.4524  0.3361  0.0725
 1331ERGO    R517040  14.243  14.174   6.811 -0.1277  0.4503 -0.0921
 1331ERGO    C117041  14.381  14.194   7.166 -0.3889  0.4027  0.0151
 1331ERGO    C217042  14.505  14.331   7.501  0.1675  0.1578 -0.0931
 1332ERGO   ROH17043   6.577  10.628   5.423  0.2029 -0.4270 -0.1190
 1332ERGO    R117044   6.671  10.595   5.688  0.0374 -0.2221 -0.0307
 1332ERGO    R217045   6.579  10.749   5.899 -0.1631 -0.1116 -0.1881
 1332ERGO    R317046   6.527  10.506   6.010 -0.1541 -0.0634 -0.0714
 1332ERGO    R417047   6.513  10.694   6.234 -0.0576  0.0278 -0.1444
 1332ERGO    R517048   6.634  10.514   6.223 -0.0815  0.0093 -0.1109
 1332ERGO    C117049   6.426  10.435   6.533  0.0124  0.1542 -0.0094
 1332ERGO    C217050   6.500  10.334   6.784  0.0143  0.0677 -0.0164
 1333ERGO   ROH17051   5.893   7.616   5.818 -0.2522 -0.1757  0.0410
 1333ERGO    R117052   5.779   7.627   6.077 -0.2087  0.0804  0.0518
 1333ERGO    R217053   5.892   7.498   6.295 -0.3251  0.0591  0.1008
 1333ERGO    R317054   5.881   7.746   6.406 -0.0314  0.1293 -0.0200
 1333ERGO    R417055   5.967   7.570   6.624 -0.2141  0.1365  0.0590
 1333ERGO    R517056   5.798   7.708   6.627 -0.0569  0.3333  0.0070
 1333ERGO    C117057   6.001   7.844   6.920  0.1263  0.2475 -0.0787
 1333ERGO    C217058   6.272   7.938   7.126 -0.1719 -0.0392 -0.1452
 1334ERGO   ROH17059   0.819   1.942   5.677  0.0311  0.1397  0.2355
 1334ERGO    R117060   0.985   1.914   5.904 -0.0531 -0.0313  0.2793
 1334ERGO    R217061   0.918   1.753   6.118 -0.1469 -0.1752  0.1511
 1334ERGO    R317062   1.163   1.644   6.071 -0.1424 -0.1640  0.1573
 1334ERGO    R417063   1.167   1.712   6.355 -0.0318  0.1133  0.0824
 1334ERGO    R517064   1.313   1.772   6.205 -0.1129 -0.0006 -0.0351
 1334ERGO    C117065   1.541   1.586   6.448  0.0394  0.2918  0.0481
 1334ERGO    C217066   1.857   1.579   6.574 -0.0824 -0.1673 -0.0046
 1335ERGO   ROH17067  10.748   8.403   6.197  0.0527 -0.1584  0.0785
 1335ERGO    R117068  10.883   8.231   6.377 -0.0169 -0.2750  0.0198
 1335ERGO    R217069  11.026   8.325   6.594  0.2301 -0.3896 -0.0897
 1335ERGO    R317070  10.866   8.153   6.732  0.1300 -0.1919  0.0467
 1335ERGO    R417071  11.105   8.183   6.899  0.0744 -0.0602  0.1096
 1335ERGO    R517072  11.019   7.995   6.829  0.0538 -0.1225  0.2892
 1335ERGO    C117073  11.002   7.939   7.206 -0.1101  0.3170  0.3537
 1335ERGO    C217074  11.016   7.771   7.423  0.0868  0.2494  0.3463
 1336ERGO   ROH17075  12.107  11.461   6.225  0.1274 -0.0667 -0.0028
 1336ERGO    R117076  12.029  11.348   6.472  0.0577  0.0909  0.0474
 1336ERGO    R217077  12.019  11.494   6.706 -0.2093  0.2920 -0.0887
 1336ERGO    R317078  11.764  11.401   6.716 -0.1448  0.0977 -0.1699
 1336ERGO    R417079  11.831  11.462   6.994 -0.3043  0.2319 -0.1555
 1336ERGO    R517080  11.754  11.273   6.917 -0.1279  0.1471 -0.1350
 1336ERGO    C117081  11.482  11.356   7.171 -0.2989  0.0144 -0.2706
 1336ERGO    C217082  11.296  11.373   7.468 -0.0218  0.0602 -0.4276
 1337ERGO   ROH17083   9.361  10.349   5.614  0.1442 -0.0140 -0.0670
 1337ERGO    R117084   9.367  10.302   5.893 -0.5214 -0.1517 -0.0604
 1337ERGO    R217085   9.529  10.445   6.065 -0.1084 -0.9221  0.2391
 1337ERGO    R317086   9.295  10.491   6.195 -0.1607  0.1065 -0.1285
 1337ERGO    R417087   9.494  10.649   6.342  0.4241 -0.9555  0.3431
 1337ERGO    R517088   9.356  10.502   6.426 -0.4704 -0.4042 -0.0040
 1337ERGO    C117089   9.253  10.811   6.625  0.6851 -0.0096  0.0586
 1337ERGO    C217090   9.128  11.065   6.868 -0.0422  0.1664  0.1051
 1338ERGO   ROH17091  10.018  16.019   5.882  0.1164 -0.1128 -0.0717
 1338ERGO    R117092  10.046  15.902   6.138  0.0381 -0.0480 -0.0329
 1338ERGO    R217093   9.899  15.987   6.356  0.0601  0.0928 -0.0679
 1338ERGO    R317094   9.831  15.724   6.372 -0.0709  0.1304  0.0034
 1338ERGO    R417095   9.839  15.817   6.651 -0.0633  0.2036 -0.0286
 1338ERGO    R517096   9.945  15.646   6.568 -0.1383  0.1290  0.0386
 1338ERGO    C117097   9.739  15.472   6.838 -0.2581  0.3036  0.0611
 1338ERGO    C217098   9.605  15.466   7.132 -0.3807  0.0387  0.3252
 1339ERGO   ROH17099   7.678   1.965   6.320 -0.0623  0.1475  0.1315
 1339ERGO    R117100   7.667   1.941   6.602  0.0325  0.0429  0.1262
 1339ERGO    R217101   7.438   1.870   6.737  0.0290  0.1822  0.1848
 1339ERGO    R317102   7.598   1.678   6.844 -0.0893  0.0020  0.0512
 1339ERGO    R417103   7.411   1.747   7.059  0.2626  0.3585  0.2747
 1339ERGO    R517104   7.629   1.746   7.072  0.2946  0.0664 -0.0067
 1339ERGO    C117105   7.546   1.496   7.347  0.2876  0.2919  0.2017
 1339ERGO    C217106   7.362   1.546   7.667  0.3029  0.1043  0.1066
 1340ERGO   ROH17107  18.766  14.082   6.641  0.0092  0.0787  0.0453
 1340ERGO    R117108  18.683  14.136   6.906 -0.0439  0.0411  0.0364
 1340ERGO    R217109  18.542  13.953   7.058  0.0080 -0.0164  0.0146
 1340ERGO    R317110  18.744  13.994   7.236 -0.0294  0.0571  0.0408
 1340ERGO    R417111  18.499  14.049   7.387 -0.0640  0.0994 -0.0277
 1340ERGO    R517112  18.671  14.181   7.367 -0.0658  0.1010 -0.0407
 1340ERGO    C117113  18.663  14.143   7.746 -0.1413  0.2358 -0.0278
 1340ERGO    C217114  18.770  14.331   8.001 -0.0157  0.2227 -0.0710
 1341ERGO   ROH17115   6.175   9.476   5.438 -0.1288  0.2487 -0.0470
 1341ERGO    R117116   6.362   9.475   5.651 -0.1687  0.1919 -0.0131
 1341ERGO    R217117   6.386   9.687   5.829 -0.2413  0.1184  0.0799
 1341ERGO    R317118   6.348   9.492   6.014 -0.2372  0.0328 -0.0071
 1341ERGO    R417119   6.485   9.704   6.159 -0.5962  0.1404  0.1904
 1341ERGO    R517120   6.546   9.496   6.148 -0.3738  0.2004  0.1980
 1341ERGO    C117121   6.507   9.531   6.526 -0.7991  0.0728  0.1732
 1341ERGO    C217122   6.653   9.524   6.888  0.3936 -0.4104 -0.0199
 1342ERGO   ROH17123  11.392  16.591   6.099 -0.2602 -0.1436 -0.1555
 1342ERGO    R117124  11.215  16.713   6.282 -0.1837  0.0251 -0.1934
 1342ERGO    R217125  11.194  16.632   6.546 -0.3007  0.0571 -0.1974
 1342ERGO    R317126  11.243  16.895   6.596 -0.0786  0.0191 -0.1973
 1342ERGO    R417127  11.162  16.784   6.855 -0.1869  0.0810 -0.1957
 1342ERGO    R517128  11.075  16.957   6.756 -0.0383  0.1593 -0.2026
 1342ERGO    C117129  11.189  17.118   7.082  0.0879  0.0592 -0.1946
 1342ERGO    C217130  11.085  17.163   7.422 -0.0723 -0.0904  0.1369
 1343ERGO   ROH17131  17.093   1.634   6.966 -0.0634 -0.1368  0.0756
 1343ERGO    R117132  17.314   1.731   7.114 -0.0974 -0.1464  0.1340
 1343ERGO    R217133  17.443   1.968   7.052  0.0754 -0.2628  0.0252
 1343ERGO    R317134  17.390   2.027   7.312 -0.0544 -0.0333 -0.0511
 1343ERGO    R417135  17.626   2.189   7.245 -0.0317 -0.0867 -0.0728
 1343ERGO    R517136  17.606   2.051   7.412 -0.1090  0.0627  0.0387
 1343ERGO    C117137  17.683   2.373   7.601 -0.2159  0.2313 -0.2015
 1343ERGO    C217138  17.784   2.611   7.794 -0.2350 -0.0605  0.1915
 1344ERGO   ROH17139   9.000  17.728   6.204 -0.2474  0.1266  0.0794
 1344ERGO    R117140   8.989  17.781   6.482 -0.1729  0.1577  0.0766
 1344ERGO    R217141   9.199  17.724   6.653 -0.1873  0.0248  0.0522
 1344ERGO    R317142   9.173  17.986   6.719  0.0041  0.0508  0.0336
 1344ERGO    R417143   9.319  17.868   6.943 -0.2588 -0.0813  0.1350
 1344ERGO    R517144   9.136  17.984   6.956 -0.1622  0.0850  0.0079
 1344ERGO    C117145   9.363  18.197   7.175 -0.1208 -0.1185  0.1659
 1344ERGO    C217146   9.297  18.340   7.494 -0.1027  0.2148  0.0865
 1345ERGO   ROH17147   5.682  15.673   5.343 -0.0581 -0.0837  0.0681
 1345ERGO    R117148   5.660  15.803   5.594  0.1204 -0.0035  0.0454
 1345ERGO    R217149   5.529  15.689   5.809 -0.1956  0.2816  0.0212
 1345ERGO    R317150   5.765  15.736   5.936 -0.1273 -0.1873  0.0863
 1345ERGO    R417151   5.578  15.667   6.150 -0.3361  0.2502  0.0394
 1345ERGO    R517152   5.702  15.846   6.139  0.0444 -0.0121  0.0410
 1345ERGO    C117153   5.828  15.700   6.468 -0.3538 -0.2083  0.1111
 1345ERGO    C217154   5.960  15.856   6.806  0.2461  0.3873 -0.0472
 1346W        W17155   8.460   2.369  13.959 -0.2508  0.0813  0.0233
 1347W        W17156  12.063   3.858   3.916 -0.0359 -0.0607 -0.2969
 1348W        W17157   3.881  12.878  11.298 -0.1101 -0.1795  0.0002
 1349W        W17158   9.085  13.289   9.838 -0.2056 -0.0501  0.3008
 1350W        W17159  11.967   0.014  13.847 -0.2798  0.1779  0.3784
 1351W        W17160   6.364  17.265  14.665  0.1830 -0.2009 -0.1642
 1352W        W17161  15.664  16.055   2.674 -0.0673  0.0162  0.0322
 1353W        W17162   8.968   1.111  14.984 -0.0515 -0.2593 -0.2362
 1354W        W17163  12.121   6.186   3.629  0.0769 -0.1802  0.3332
 1355W        W17164   1.388  10.954   3.838  0.0123  0.0229  0.0757
 1356W        W17165   5.237   5.002   2.221 -0.0134  0.0439 -0.2426
 1357W        W17166  14.191  12.385   3.352  0.2173 -0.1344  0.0904
 1358W        W17167  12.204   8.748   1.105  0.0261  0.3737 -0.0144
 1359W        W17168  12.611   1.393   4.949 -0.1077 -0.3254  0.2166
 1360W        W17169  18.872  12.423   5.522  0.0773  0.4403  0.2602
 1361W        W17170  15.635  12.536  11.251  0.0775  0.1844 -0.0261
 1362W        W17171  14.320   3.465  10.478  0.0108 -0.0005 -0.2192
 1363W        W17172  12.055  18.446   3.125 -0.1733  0.0430 -0.3110
 1364W        W17173  18.948  11.044  15.231  0.0276  0.0595 -0.2838
 1365W        W17174   7.410  13.041  11.933 -0.0915  0.0142 -0.2611
 1366W        W17175  14.984   5.285   2.123  0.0927 -0.0891  0.0373
 1367W        W17176   4.391  10.673  11.919  0.0934  0.1646  0.0494
 1368W        W17177  18.385  17.713  13.286  0.0551  0.1375  0.2448
 1369W        W17178  12.692  11.708  12.846  0.0014  0.4619  0.0076
 1370W        W17179  15.655  11.446   3.011 -0.2689  0.0736 -0.3994
 1371W        W17180   1.167   6.464  12.020  0.0249 -0.1184 -0.1406
 1372W        W17181  17.300  14.127   0.213  0.0996 -0.1615  0.0948
 1373W        W17182  16.075   7.213  11.314 -0.1873  0.1398 -0.1981
 1374W        W17183  11.684   2.293  11.645 -0.1299  0.2191 -0.0866
 1375W        W17184   2.742   3.920   9.774 -0.1251 -0.4372 -0.0178
 1376W        W17185   0.663  12.669   4.763 -0.2711  0.0488 -0.0139
 1377W        W17186  15.978   7.678   4.944  0.0647  0.1093  0.0491
 1378W        W17187  11.131   4.768  14.738  0.1167  0.1001  0.2235
 1379W        W17188   6.747  12.212  15.224 -0.1873  0.2995 -0.1362
 1380W        W17189  11.687  16.093   5.029  0.0360  0.0267  0.2291
 1381W        W17190  14.355  15.787   6.061  0.0231  0.1175  0.0019
 1382W        W17191   3.395   4.786   3.903 -0.1694 -0.0989  0.0112
 1383W        W17192   8.240   4.356   2.856  0.0580  0.0060 -0.0732
 1384W        W17193   6.115   3.288   0.547 -0.1871  0.0392  0.1834
 1385W        W17194   9.425   8.802   1.639  0.2310  0.0488 -0.1855
 1386W        W17195   7.886   0.099   0.001 -0.1259  0.0458 -0.1148
 1387W        W17196   1.595   3.085   4.157  0.0745 -0.0675 -0.1106
 1388W        W17197   0.818  18.953  15.017  0.2467  0.0095  0.0731
 1389W        W17198  11.884   0.803  12.173 -0.2475  0.2222 -0.3017
 1390W        W17199  14.487  14.027   1.329  0.2264  0.2397  0.4218
 1391W        W17200   2.261  12.329   0.772  0.1963 -0.3333 -0.0111
 1392W        W17201  18.152   9.875   2.726  0.2109 -0.0586 -0.3171
 1393W        W17202   9.241   1.365  11.934  0.0583  0.1407  0.0435
 1394W        W17203  12.953  18.154   4.606  0.3659 -0.1539  0.2654
 1395W        W17204  10.334  15.356   4.755  0.2599  0.3593 -0.1036
 1396W        W17205   7.276   7.900  13.589 -0.1130  0.2399 -0.4266
 1397W        W17206  12.459  12.371   2.358 -0.1790  0.1437 -0.0335
 1398W        W17207  14.304   8.137  12.292 -0.0987 -0.0775 -0.2567
 1399W        W17208  16.307  12.218  13.575 -0.0514  0.0382  0.0794
 1400W        W17209  13.718   4.787   4.452  0.0021 -0.0530 -0.0540
 1401W        W17210  16.740  12.544  14.301 -0.1896 -0.0021 -0.1930
 1402W        W17211   5.179   9.133   0.317  0.1049 -0.1802  0.1080
 1403W        W17212   7.991   6.673  12.812  0.1094  0.0850 -0.1500
 1404W        W17213  13.675   3.752   5.923 -0.3769 -0.0155  0.0075
 1405W        W17214   3.362   2.318   3.376 -0.1596  0.2248 -0.1440
 1406W        W17215  18.923  10.145  10.382  0.4089  0.2029 -0.1626
 1407W        W17216  16.106  14.659  13.618  0.3610 -0.0150  0.0348
 1408W        W17217   7.910   2.087  11.480  0.0205  0.1150 -0.0583
 1409W        W17218   0.559   9.738  15.062  0.1046 -0.3349 -0.0350
 1410W        W17219   3.364   5.769  11.193 -0.0709  0.3706 -0.0048
 1411W        W17220   9.706   8.344  11.342 -0.3975 -0.2652 -0.1923
 1412W        W17221  13.208   8.730   1.039  0.0296  0.3570 -0.1828
 1413W        W17222  17.313   5.947  13.294  0.2098 -0.1712 -0.4175
 1414W        W17223   8.087  11.859   2.373  0.2309  0.0065  0.3231
 1415W        W17224   3.504   5.947   4.927  0.1093 -0.1162  0.1506
 1416W        W17225  16.018  11.880   0.888  0.0649 -0.0788  0.1921
 1417W        W17226   1.758   2.254  11.407  0.4138 -0.1828 -0.3381
 1418W        W17227  12.053  11.682   2.971 -0.4067  0.0945 -0.3358
 1419W        W17228   9.250   0.359  14.575  0.1103 -0.3609  0.0367
 1420W        W17229  13.843   4.458  11.061  0.1671 -0.0082  0.2964
 1421W        W17230  17.797  12.362  11.106  0.1417 -0.2279 -0.0137
 1422W        W17231   9.439  14.273  13.620 -0.0132  0.2673  0.2185
 1423W        W17232   3.656   1.202   0.995 -0.3682  0.2030 -0.1572
 1424W        W17233   7.219  17.327   1.033 -0.4303  0.4122 -0.0383
 1425W        W17234   9.609   7.597   4.436 -0.0654  0.0443  0.1856
 1426W        W17235   1.956  13.250  13.269 -0.2297 -0.6429  0.2534
 1427W        W17236   9.353   1.036   1.772  0.1110 -0.2848  0.2937
 1428W        W17237  12.588  17.599  12.950  0.1837  0.0557 -0.0086
 1429W        W17238   5.784   0.587  15.154  0.1164 -0.2653 -0.2799
 1430W        W17239  15.743  10.301   4.608  0.1640 -0.2627  0.6752
 1431W        W17240   9.052  16.914   0.116 -0.0361 -0.1339  0.0847
 1432W        W17241   2.947   4.845  11.345  0.1753 -0.0894 -0.0302
 1433W        W17242  14.535   1.084   1.321  0.1234  0.2008 -0.1905
 1434W        W17243  17.751   8.611   4.936  0.0184  0.2089  0.0642
 1435W        W17244   1.264  15.700  11.147  0.1050 -0.1346  0.0929
 1436W        W17245   2.975   9.921   0.270 -0.1023  0.0359 -0.0407
 1437W        W17246  14.714   2.243   3.128  0.3764 -0.2335 -0.3989
 1438W        W17247   0.714  18.971  13.052  0.0578  0.1522 -0.1581
 1439W        W17248   6.449  13.554   1.979 -0.0264  0.1219 -0.0994
 1440W        W17249  15.269  17.343  13.152  0.1381 -0.2433 -0.2873
 1441W        W17250  11.535  12.600  11.476  0.3775 -0.2335 -0.0181
 1442W        W17251   2.161  16.582   5.237  0.3530 -0.2679 -0.3682
 1443W        W17252  15.711   9.716  14.804  0.3491 -0.1196 -0.4127
 1444W        W17253   4.065   0.182  13.683  0.0265  0.2018  0.0221
 1445W        W17254   3.694  18.398  11.535 -0.2627  0.1279 -0.0576
 1446W        W17255  16.038  11.936   4.751  0.4640  0.0953 -0.0374
 1447W        W17256   0.862   0.276  12.114 -0.1781  0.3215 -0.0527
 1448W        W17257  14.066  11.437   4.340 -0.1953  0.1582 -0.1904
 1449W        W17258   9.884  12.217   0.128 -0.1798 -0.1926  0.0980
 1450W        W17259  18.369  10.719   3.327  0.3549  0.0581  0.0540
 1451W        W17260   5.722  13.514   4.068 -0.0622  0.1884 -0.0963
 1452W        W17261  12.935  12.860   3.602 -0.2704  0.0186 -0.0064
 1453W        W17262   7.529   5.854   5.039  0.0813 -0.0213 -0.1846
 1454W        W17263   1.498   5.888  11.037 -0.0777 -0.2370 -0.0328
 1455W        W17264  11.678   1.796  12.067 -0.1545  0.0124 -0.0463
 1456W        W17265  12.405   5.161   4.402 -0.1183 -0.2011 -0.2983
 1457W        W17266   6.857   7.957   5.401 -0.1080  0.0098  0.0875
 1458W        W17267  11.839   3.720   1.410 -0.0714  0.1946 -0.2387
 1459W        W17268  10.212  12.774  12.618 -0.3402 -0.2567 -0.2132
 1460W        W17269   4.303  10.662  14.362  0.1038 -0.1809 -0.2510
 1461W        W17270   7.264  13.617   3.812 -0.2405  0.1834  0.0585
 1462W        W17271   2.793  13.343  11.220  0.4267 -0.1124 -0.0205
 1463W        W17272  10.070   2.200   4.645 -0.1411  0.1570 -0.1359
 1464W        W17273  11.583   5.800   1.475 -0.0026  0.1751 -0.0097
 1465W        W17274  10.469  13.000  12.086  0.2910 -0.3025 -0.0677
 1466W        W17275   2.914  13.189  14.241 -0.1589  0.1548 -0.0948
 1467W        W17276  13.781  13.607  11.020 -0.2178  0.1223 -0.2248
 1468W        W17277  11.993  13.775  10.757 -0.3791  0.3305 -0.1991
 1469W        W17278  11.216   6.299   2.342 -0.0633  0.0588 -0.0290
 1470W        W17279  10.478  11.173   4.163 -0.0379 -0.0717  0.2371
 1471W        W17280  15.612   4.646   3.620  0.1565 -0.0298 -0.1979
 1472W        W17281  10.728  16.255   4.401  0.2512  0.1280  0.1223
 1473W        W17282   8.014  13.303   3.893  0.0584  0.3445 -0.2193
 1474W        W17283   6.901  12.100   8.988 -0.0439 -0.4013  0.0052
 1475W        W17284  17.729   3.938   0.204  0.1118 -0.0421 -0.1767
 1476W        W17285   1.551   1.558  13.720 -0.0347  0.1394  0.1182
 1477W        W17286   3.797   0.269   2.871  0.2643 -0.1899  0.0307
 1478W        W17287   8.047  16.029   2.674 -0.1857 -0.4888 -0.0917
 1479W        W17288  18.901   6.717  11.632 -0.0817 -0.0706 -0.3060
 1480W        W17289  12.918   8.602   5.489 -0.1168  0.0429 -0.0506
 1481W        W17290  17.840   3.160  11.855 -0.0357  0.2709 -0.0024
 1482W        W17291  15.395   3.947   2.197 -0.1192 -0.1387 -0.0457
 1483W        W17292  10.390  17.136  13.159  0.0142  0.3146 -0.0353
 1484W        W17293  14.305  15.083   5.050 -0.0306  0.0636  0.1442
 1485W        W17294  11.517   3.030   2.915  0.0265  0.2661  0.0093
 1486W        W17295   8.917   8.830  14.563  0.0511  0.0733 -0.0535
 1487W        W17296   6.924   2.847  12.381 -0.1714 -0.0510  0.2769
 1488W        W17297   0.229   1.266   1.462  0.1828 -0.2991  0.0814
 1489W        W17298  17.074  16.796  11.739 -0.0069 -0.1944 -0.2773
 1490W        W17299  14.997  13.623   5.091 -0.1794  0.3146 -0.3845
 1491W        W17300  11.301  16.646   5.023 -0.2639 -0.2319  0.0662
 1492W        W17301   3.853   4.638   0.006  0.1347  0.0738  0.2699
 1493W        W17302  13.775   1.016   2.845  0.0075 -0.0479 -0.1484
 1494W        W17303  12.664  14.158   4.841 -0.1546 -0.0274 -0.0906
 1495W        W17304   1.295   2.503  14.003 -0.1387 -0.0678 -0.2318
 1496W        W17305   4.432  13.752   3.762 -0.1694 -0.0375  0.1701
 1497W        W17306  13.405  17.151  12.125  0.0938 -0.2907  0.1613
 1498W        W17307   5.023  17.849  10.227  0.2114  0.2467  0.0203
 1499W        W17308   4.659   7.528   4.352 -0.1440  0.3877 -0.1562
 1500W        W17309   8.364   2.129   4.943  0.0546  0.2076 -0.1571
 1501W        W17310   2.894  17.178  14.248  0.0576 -0.1486  0.0234
 1502W        W17311   8.616   8.955  11.836  0.1858  0.1042  0.1773
 1503W        W17312  13.256  18.606   4.740 -0.3746  0.2057  0.1456
 1504W        W17313   4.908   6.121   5.027 -0.0546  0.2945  0.0768
 1505W        W17314  17.461  15.411   1.315  0.0168  0.1051  0.1452
 1506W        W17315  17.587  17.640  13.266 -0.0000  0.0363 -0.0938
 1507W        W17316  11.233   7.293   3.837  0.3906  0.4733  0.1623
 1508W        W17317   9.926   6.834   2.887  0.1295  0.3858 -0.3602
 1509W        W17318  14.011  15.374  10.720  0.1347 -0.0716  0.1064
 1510W        W17319  17.914  11.108  11.500  0.1213  0.3371  0.0906
 1511W        W17320   0.177   7.611   4.676 -0.4918 -0.1543  0.0167
 1512W        W17321  14.011   8.427   4.540 -0.1455 -0.1274  0.5187
 1513W        W17322   8.030  17.801  13.966 -0.3284 -0.1827  0.4311
 1514W        W17323  14.767   4.512  11.369 -0.0360  0.0470 -0.0529
 1515W        W17324  15.714   8.169  12.207  0.1051  0.0717  0.2173
 1516W        W17325  19.004  10.227   1.975  0.1066 -0.1839  0.2477
 1517W        W17326   0.046  15.798  15.169  0.0328  0.1788  0.0923
 1518W        W17327  13.296   1.633   2.393  0.2789 -0.1444  0.0150
 1519W        W17328   5.157   5.655   4.707  0.1962 -0.2665  0.1994
 1520W        W17329  17.641  10.399   5.526 -0.0528 -0.0534 -0.1538
 1521W        W17330   0.038  11.122   3.675 -0.2735 -0.2313  0.1718
 1522W        W17331  19.009   7.825   5.049  0.2169  0.0433 -0.1805
 1523W        W17332   0.062  13.596   3.537  0.0029 -0.0362  0.1639
 1524W        W17333   0.481  18.006  15.209 -0.0592  0.1734 -0.1580
 1525W        W17334   6.840   0.786   4.740 -0.1420  0.4406  0.2062
 1526W        W17335  10.263  12.302   5.441  0.0641 -0.1030  0.0908
 1527W        W17336  13.481   6.386   2.981  0.0055  0.3554 -0.0676
 1528W        W17337  18.247   7.620  13.594  0.1102  0.3041 -0.1974
 1529W        W17338  11.898  13.761  12.604  0.2252 -0.0663 -0.3096
 1530W        W17339   7.497   8.536   3.579 -0.1659  0.0690  0.2612
 1531W        W17340  11.915  14.742  13.649  0.0244 -0.0111  0.2316
 1532W        W17341  10.434  10.273  11.207  0.1877 -0.0014 -0.0205
 1533W        W17342   5.487  16.983   3.023  0.4149  0.3349  0.3471
 1534W        W17343  17.883   2.837  13.557 -0.0903 -0.2435  0.1409
 1535W        W17344   3.082  16.596  14.148 -0.1043  0.0122 -0.1656
 1536W        W17345  12.705  10.086   1.780  0.2532 -0.0119  0.0378
 1537W        W17346  15.717  10.361   0.084  0.0929  0.2367 -0.1036
 1538W        W17347   5.341   8.195   5.510 -0.0014  0.2608 -0.1976
 1539W        W17348  16.855  11.984   0.471 -0.0480 -0.2640  0.1094
 1540W        W17349  10.011  10.403   0.687  0.0331 -0.0317 -0.0120
 1541W        W17350   5.520   9.577  13.863  0.1869  0.1871  0.0863
 1542W        W17351  14.485   5.804   4.637 -0.0884  0.2131  0.0889
 1543W        W17352   8.593   7.033  10.882  0.3941 -0.0112  0.1094
 1544W        W17353   6.066   1.837  14.356  0.3374  0.0583 -0.1113
 1545W        W17354  13.267   5.618   4.257 -0.2520  0.0484  0.1607
 1546W        W17355   6.816  16.457   0.789 -0.1423 -0.0779 -0.3410
 1547W        W17356   8.424   4.156   4.026  0.2528  0.2095  0.0171
 1548W        W17357  15.258   4.531   1.541  0.0925  0.0257  0.0257
 1549W        W17358  15.745  14.377  11.195  0.1311 -0.2180 -0.1556
 1550W        W17359   6.405  13.828  12.856 -0.1587 -0.1422 -0.0526
 1551W        W17360   5.189   2.357  11.709  0.2860 -0.1730 -0.3202
 1552W        W17361   0.941  12.932   1.310  0.1164  0.1509  0.1657
 1553W        W17362  16.289   7.679   1.313 -0.0987 -0.0352  0.0655
 1554W        W17363  15.697   9.809  14.289 -0.1317 -0.3508  0.0003
 1555W        W17364   1.690  11.422   1.851  0.0637  0.1103  0.1840
 1556W        W17365  10.137   3.607  10.336 -0.2255 -0.2517  0.0194
 1557W        W17366  16.820  10.168   5.805  0.1377 -0.3162  0.1192
 1558W        W17367  13.806   8.761   4.238  0.1271 -0.0490 -0.2020
 1559W        W17368   0.903   4.868  14.313  0.3498  0.0562  0.1062
 1560W        W17369  11.505   9.686   2.480  0.0882  0.3126  0.0102
 1561W        W17370  14.880  10.332   1.051  0.0400 -0.1256 -0.0800
 1562W        W17371   5.722   5.009   3.733 -0.0131  0.1955  0.3464
 1563W        W17372  16.770   9.110   5.146 -0.3238 -0.0064 -0.1530
 1564W        W17373   5.232  16.198   0.574 -0.2951  0.4025  0.3614
 1565W        W17374   5.474   1.421  11.470  0.1417  0.3304  0.2579
 1566W        W17375  16.104  17.046   3.789 -0.4476  0.1375 -0.3969
 1567W        W17376  12.811   6.409   0.644  0.1551  0.1380  0.0829
 1568W        W17377  16.477   4.014   1.363  0.2203  0.1252 -0.0574
 1569W        W17378   0.087  15.969  13.701  0.2881 -0.0621 -0.0386
 1570W        W17379   8.063  14.238  10.260  0.0665  0.1628 -0.2573
 1571W        W17380   4.699  10.355  13.567  0.0012 -0.2560 -0.1657
 1572W        W17381  16.430  12.968   1.559 -0.1917  0.0534 -0.1279
 1573W        W17382   0.955  16.221   4.698  0.1411  0.0129 -0.0126
 1574W        W17383   8.921   9.854  12.300 -0.4428 -0.2619 -0.1076
 1575W        W17384   8.596   1.718  11.945  0.5255 -0.5757 -0.0536
 1576W        W17385   9.000   8.534  13.930  0.0880  0.3004 -0.0163
 1577W        W17386  13.294  15.665   3.615 -0.0101 -0.0486 -0.1990
 1578W        W17387   4.695  14.192   0.706 -0.1372 -0.0044  0.1594
 1579W        W17388  13.774   1.519   2.610 -0.0552 -0.0079  0.1656
 1580W        W17389   9.129   9.924   3.815  0.2087 -0.3626  0.0739
 1581W        W17390   8.749  13.716   0.684 -0.0848 -0.1049  0.0329
 1582W        W17391   8.398  15.107  11.337 -0.0156  0.1162  0.2350
 1583W        W17392   5.256  11.757   2.327 -0.0916 -0.1265 -0.0688
 1584W        W17393  13.756   7.031   5.075  0.2674 -0.0450  0.2140
 1585W        W17394   4.540   4.146   1.322  0.3727  0.2093  0.3274
 1586W        W17395  18.278   6.816   2.854  0.1367  0.5186  0.3149
 1587W        W17396   5.113   7.412  13.421 -0.2110 -0.0138  0.0987
 1588W        W17397   0.613   9.244  15.148  0.1981 -0.1072 -0.1130
 1589W        W17398   7.439   8.581   2.955 -0.0688  0.1427 -0.0877
 1590W        W17399   5.559  14.027  11.046 -0.0397 -0.0634 -0.2986
 1591W        W17400   3.055   6.834   0.839 -0.0794  0.3058 -0.0922
 1592W        W17401  17.951  13.928  14.899 -0.1579  0.2415 -0.2073
 1593W        W17402  16.617   8.430   3.822  0.2457 -0.1802  0.0478
 1594W        W17403   9.207   4.137   0.579  0.0224 -0.0332 -0.1160
 1595W        W17404   0.069  11.897  13.700  0.0860  0.0033  0.0544
 1596W        W17405  16.658   0.682  14.876 -0.1746 -0.3402  0.2136
 1597W        W17406   0.427  10.942  14.869 -0.0935  0.0098  0.2069
 1598W        W17407   7.530   6.225  14.883 -0.1567  0.3353  0.1634
 1599W        W17408  12.439   2.817   2.270 -0.2188 -0.0730 -0.0332
 1600W        W17409  15.912   5.072  15.096  0.0516 -0.3193  0.0976
 1601W        W17410  11.452   6.874  13.609  0.0715  0.0230  0.0447
 1602W        W17411  17.042  16.909  12.992  0.2991 -0.3545 -0.0933
 1603W        W17412   1.522  15.177  12.463 -0.2404 -0.2562  0.2246
 1604W        W17413   8.242   4.973  14.912  0.1481 -0.0974  0.0135
 1605W        W17414  13.414   4.325   5.280  0.4767  0.1786  0.0905
 1606W        W17415   7.389   3.792   0.405 -0.1960  0.1037  0.2780
 1607W        W17416  13.458   3.143   1.996  0.2104  0.1220  0.0462
 1608W        W17417  15.662  12.977   1.823  0.0385 -0.2171  0.0555
 1609W        W17418   6.491  13.321  12.986  0.0800  0.2906  0.0027
 1610W        W17419  13.127   9.950   0.129 -0.0995 -0.2291 -0.2940
 1611W        W17420  17.729   8.044   2.704 -0.2082  0.2229 -0.0078
 1612W        W17421   8.611   3.699  14.693  0.2848  0.1014 -0.3150
 1613W        W17422  11.282  18.221   4.907  0.0318 -0.1162  0.0732
 1614W        W17423  16.396   1.363  12.472 -0.0435 -0.3536  0.1959
 1615W        W17424  10.068  14.509  10.449 -0.0283  0.0601 -0.3002
 1616W        W17425   6.192  13.334  15.118  0.2136 -0.0778 -0.2502
 1617W        W17426   2.800  10.424   0.250  0.0316  0.0095 -0.0957
 1618W        W17427   7.388  18.799  11.620  0.0601 -0.0444  0.0858
 1619W        W17428  11.588  13.406   9.325  0.1657  0.3242 -0.0383
 1620W        W17429  12.179   2.747   4.478 -0.1505  0.0530 -0.0315
 1621W        W17430  10.042   1.976  14.469 -0.0151  0.0636 -0.2537
 1622W        W17431  14.292  16.298   2.112 -0.0226  0.1078 -0.1855
 1623W        W17432   9.785  11.071   1.321 -0.0284  0.0115 -0.2827
 1624W        W17433  10.950  16.788  10.389  0.1143  0.2858  0.1552
 1625W        W17434   7.811   9.561   3.723 -0.1469  0.1831 -0.0890
 1626W        W17435  14.452   9.032   2.612 -0.2158  0.3126 -0.2405
 1627W        W17436  18.575   0.604  11.607  0.1993  0.1584  0.0489
 1628W        W17437   2.785   3.797  10.367 -0.2528  0.0716 -0.0062
 1629W        W17438   8.271  11.715  12.363  0.1878 -0.0419 -0.1580
 1630W        W17439  14.534   5.306   9.703  0.1132  0.1134  0.1301
 1631W        W17440  13.248  12.131  10.411 -0.0596 -0.2187 -0.1007
 1632W        W17441  15.907   8.953  11.746 -0.0027 -0.0080  0.1275
 1633W        W17442  17.344   9.810  12.713  0.0276  0.2566 -0.0000
 1634W        W17443   9.931   7.003   4.359 -0.2959  0.1480  0.1129
 1635W        W17444  15.337  17.822  13.647 -0.0623  0.2771  0.1696
 1636W        W17445  18.945  15.474   2.353  0.2247 -0.4094  0.0129
 1637W        W17446   0.171   2.204   0.218  0.0045  0.2893  0.0751
 1638W        W17447   1.639   3.308  14.559  0.1408  0.1531 -0.2967
 1639W        W17448  16.958   8.412   2.088 -0.0637  0.2230  0.0072
 1640W        W17449   6.031  14.096   1.527 -0.1288 -0.0343 -0.0534
 1641W        W17450   4.655   7.116   4.064  0.0084  0.2165 -0.2164
 1642W        W17451   5.194   4.133   4.147 -0.2589  0.0730  0.1706
 1643W        W17452   8.276   3.359  11.222 -0.0683 -0.3007  0.0190
 1644W        W17453  16.416   2.668   4.599 -0.3549 -0.2700 -0.1852
 1645W        W17454  12.412   0.631  15.160 -0.1571 -0.0636 -0.0195
 1646W        W17455  14.413   3.880   2.736 -0.3467  0.3260  0.0837
 1647W        W17456   5.018   0.634  12.538 -0.1907  0.1660 -0.2249
 1648W        W17457   6.389   1.327   2.970 -0.1464  0.3059  0.1094
 1649W        W17458   6.701  10.792  11.998 -0.0044  0.0445  0.1964
 1650W        W17459   6.184  11.002   2.989 -0.2305  0.0346 -0.2097
 1651W        W17460  12.499   2.409   4.081 -0.0392  0.0325  0.1239
 1652W        W17461  15.723   6.520   1.661  0.1074  0.1637 -0.1608
 1653W        W17462  17.590   7.092  11.928 -0.0193  0.0213  0.0374
 1654W        W17463   6.397  11.557   3.018  0.2564  0.1895  0.4209
 1655W        W17464   3.410   9.327   3.312  0.2666 -0.1135  0.2298
 1656W        W17465   9.972   6.233   2.232  0.1535  0.1791  0.0067
 1657W        W17466  16.178   9.521  11.692  0.1430  0.0451 -0.0650
 1658W        W17467   9.495   6.288  12.148  0.0317 -0.2789 -0.0647
 1659W        W17468   5.848   6.819   2.461 -0.2147  0.0005 -0.0300
 1660W        W17469   0.328   7.960   4.097  0.0339 -0.0892 -0.1170
 1661W        W17470   4.975   4.923  13.852  0.0610  0.2484 -0.2623
 1662W        W17471   1.219   7.725  14.694 -0.0229  0.2260 -0.3488
 1663W        W17472   8.746   3.523  11.545 -0.0159  0.0495 -0.3516
 1664W        W17473  17.826   1.866  11.324  0.0727  0.3130 -0.2246
 1665W        W17474   3.798   9.172   1.405 -0.0807  0.0176 -0.1282
 1666W        W17475   0.710   6.070   3.001 -0.2749 -0.1053  0.1786
 1667W        W17476  12.223  17.297  13.541 -0.3475 -0.2277  0.0995
 1668W        W17477  14.299   2.309   2.849 -0.3709 -0.1188 -0.1979
 1669W        W17478   9.475  18.591   9.704  0.3554  0.2564 -0.1735
 1670W        W17479  16.476   8.135   0.772  0.1625  0.3551 -0.1555
 1671W        W17480   3.727   6.503   1.720 -0.1248  0.1261 -0.1551
 1672W        W17481   3.723   8.822  11.569  0.6503  0.0014 -0.0863
 1673W        W17482  11.815   3.378   0.576 -0.2341 -0.2156 -0.1095
 1674W        W17483   7.215   4.911  14.554 -0.1333 -0.0400 -0.1311
 1675W        W17484   0.558   9.537  10.594 -0.0994 -0.2276 -0.1183
 1676W        W17485   1.564   3.595  11.234 -0.0425 -0.3093 -0.1242
 1677W        W17486   2.058   0.177  12.036  0.1622  0.0145 -0.1400
 1678W        W17487  16.088  12.370   0.850  0.4676  0.3698  0.2082
 1679W        W17488  14.630   4.350   1.781 -0.0245 -0.0099 -0.0293
 1680W        W17489   4.383   0.916  10.845  0.2589 -0.2495  0.1133
 1681W        W17490  16.046  16.966  14.645 -0.1768 -0.0544 -0.1604
 1682W        W17491   4.932   4.455  11.770 -0.0434 -0.2946 -0.2126
 1683W        W17492  18.146   3.002   2.672  0.2114  0.2096 -0.1198
 1684W        W17493  15.518   4.904   2.623 -0.3492 -0.0123  0.1442
 1685W        W17494  18.794  16.987  13.596 -0.1071  0.1984  0.3375
 1686W        W17495  14.728   6.944  14.458  0.1643 -0.0033 -0.3781
 1687W        W17496   6.391  13.781   3.450 -0.1634 -0.1853 -0.1059
 1688W        W17497  15.835  12.256  13.945  0.2458 -0.1019 -0.0003
 1689W        W17498   5.854  13.794  12.670 -0.2595 -0.0420  0.0089
 1690W        W17499   6.973   7.973   1.514  0.1533  0.1332 -0.1127
 1691W        W17500   2.936   1.218  10.752 -0.1032 -0.1149 -0.2574
 1692W        W17501  18.527   5.854  11.635 -0.2941  0.1475  0.1137
 1693W        W17502  13.176   7.551   0.309 -0.3680 -0.0294  0.2940
 1694W        W17503  10.550   2.143   0.414  0.2771  0.3402  0.1353
 1695W        W17504   8.827  15.796  12.309 -0.0686 -0.0072 -0.1173
 1696W        W17505  16.264  17.970  11.045 -0.1293 -0.1001 -0.0711
 1697W        W17506  12.162   3.003  12.194  0.2894  0.0152 -0.1492
 1698W        W17507   8.526  13.365  11.242 -0.0221  0.4533  0.1676
 1699W        W17508   8.922   4.418  15.263 -0.2566 -0.1631  0.3512
 1700W        W17509   3.948  16.445   4.389 -0.0478  0.0102  0.0360
 1701W        W17510  14.269   5.292  10.698 -0.2264  0.0471  0.0522
 1702W        W17511  12.302   3.997  14.600  0.0282 -0.2525  0.1610
 1703W        W17512   2.201  15.118   3.930 -0.1665 -0.3047 -0.2157
 1704W        W17513  15.080  18.375   1.206  0.0712  0.0672 -0.3756
 1705W        W17514   8.347  17.685  12.244  0.1736 -0.0420 -0.1824
 1706W        W17515   3.025   0.095   0.022 -0.0187 -0.2406 -0.0082
 1707W        W17516   8.065   7.806  10.612 -0.3223 -0.0220 -0.0093
 1708W        W17517  17.949   8.588  12.846  0.0980 -0.2379 -0.1968
 1709W        W17518  11.882  12.189  10.432  0.3894  0.1319 -0.2044
 1710W        W17519   8.331   0.937  10.981  0.0150  0.2296 -0.3502
 1711W        W17520   3.999  14.013   2.405 -0.1144  0.2870  0.1056
 1712W        W17521  18.662  16.461   5.708  0.1807 -0.0430 -0.0465
 1713W        W17522   4.201  12.092  15.278 -0.1819  0.2134  0.0381
 1714W        W17523  13.055  14.659   3.372  0.0255  0.1012  0.1639
 1715W        W17524  11.976  17.295  11.750  0.2999  0.1511 -0.1236
 1716W        W17525   6.388   6.486  13.543 -0.2884 -0.4688  0.0866
 1717W        W17526   0.444  10.614   5.641  0.1326 -0.2647  0.0474
 1718W        W17527   9.689   1.229   4.687 -0.0080 -0.1602 -0.4904
 1719W        W17528  11.827  11.943  12.148 -0.0772  0.3072 -0.0433
 1720W        W17529   8.770  16.128   0.987  0.0045 -0.1946  0.2260
 1721W        W17530  13.492  17.439   2.223  0.0080 -0.0810  0.0129
 1722W        W17531   1.890  14.084   3.287  0.0089  0.1493  0.1009
 1723W        W17532   8.350  11.415   4.097  0.1066 -0.0848 -0.1941
 1724W        W17533  14.599  13.404  11.618  0.0070  0.3160  0.3303
 1725W        W17534  10.669  14.109   1.942 -0.0443 -0.2131  0.0097
 1726W        W17535   5.799   8.819   1.843  0.2187  0.0212 -0.2546
 1727W        W17536   9.417   5.438   3.045  0.0721  0.3256 -0.1456
 1728W        W17537  17.711   0.750  11.551  0.6027  0.3564  0.0527
 1729W        W17538   8.804  16.544   1.965 -0.1970 -0.1712 -0.0169
 1730W        W17539  17.630  15.334   2.727 -0.0112  0.2315 -0.0703
 1731W        W17540   6.339   0.714  12.425  0.0427 -0.1118 -0.0292
 1732W        W17541   7.467   2.492  10.704 -0.1630  0.2643 -0.4182
 1733W        W17542   3.760   4.972   0.430  0.2118 -0.2909  0.2017
 1734W        W17543   8.885  18.811   2.471  0.2617  0.1678  0.0677
 1735W        W17544  18.956   1.529  12.750  0.0255  0.0225  0.2944
 1736W        W17545  17.798   3.206   1.594 -0.2227  0.0151 -0.3883
 1737W        W17546   9.450  13.909  11.046 -0.0724 -0.1548  0.2616
 1738W        W17547   2.930   9.096  12.252 -0.1630  0.3135 -0.1661
 1739W        W17548   2.295   4.987   1.634 -0.3034 -0.3463 -0.1136
 1740W        W17549   1.819  14.852   2.935  0.3374 -0.0021  0.1100
 1741W        W17550   7.223  10.841   2.231  0.1244  0.1093 -0.0569
 1742W        W17551  11.327   9.133  15.246 -0.3401 -0.0879  0.0159
 1743W        W17552  17.512   2.053   2.866 -0.1433 -0.0399  0.1260
 1744W        W17553   9.187  14.564  10.447  0.1248  0.0421 -0.0814
 1745W        W17554   9.268  14.481  10.982  0.2297 -0.0602  0.1212
 1746W        W17555   6.836  13.754  14.772  0.3393  0.0248  0.1275
 1747W        W17556  11.518  14.194  11.661  0.2283 -0.0972  0.0044
 1748W        W17557  12.651  15.296   1.482  0.2201  0.2753 -0.2027
 1749W        W17558  16.457  18.286   4.962 -0.0339  0.3886 -0.0779
 1750W        W17559   2.549   4.234   2.723 -0.1806 -0.3017 -0.0234
 1751W        W17560  16.943  13.337   3.099 -0.1140  0.0757  0.1044
 1752W        W17561   3.872   7.934  12.008  0.1557  0.0236  0.0515
 1753W        W17562  11.790   8.268  14.840  0.0475  0.1103 -0.0591
 1754W        W17563   0.535  14.324   3.418  0.1461  0.0224  0.0774
 1755W        W17564  11.230  16.082  14.617  0.1773 -0.1600  0.4663
 1756W        W17565  15.619   2.879  11.064  0.1261  0.1087 -0.0179
 1757W        W17566   6.768   9.066   3.448 -0.0785  0.2204  0.2127
 1758W        W17567   8.118  14.481   4.200 -0.0442  0.2554 -0.3233
 1759W        W17568  16.595  11.791   3.882 -0.1929  0.1365 -0.0481
 1760W        W17569  12.919   1.402   3.994  0.2857  0.2909 -0.3907
 1761W        W17570  12.824   7.284   4.354 -0.1503 -0.2597 -0.0938
 1762W        W17571   8.204   2.075   0.630  0.0567 -0.0263 -0.2709
 1763W        W17572  12.502  16.160  11.964  0.3316 -0.0739  0.2917
 1764W        W17573  17.533  11.720  13.908  0.3282 -0.1140  0.3461
 1765W        W17574   6.477   5.368  11.967 -0.0678  0.1240  0.4494
 1766W        W17575  14.158  15.427   1.601  0.2164  0.0699 -0.2037
 1767W        W17576   4.151   8.461   2.089  0.1000 -0.4040  0.1023
 1768W        W17577  16.160  15.328  11.223  0.2578  0.3093  0.0290
 1769W        W17578  13.233  15.645   3.101 -0.1216  0.1182  0.0996
 1770W        W17579  11.042  14.144  10.558  0.0675 -0.0830 -0.0777
 1771W        W17580  15.262  10.463  13.765  0.0086 -0.1842  0.0703
 1772W        W17581   0.416  17.317   1.752  0.2369 -0.1762  0.0660
 1773W        W17582  12.481   8.049  13.680 -0.2752 -0.0749 -0.0253
 1774W        W17583  14.362  12.237   1.790  0.2303 -0.1511  0.1637
 1775W        W17584   8.380  11.223   4.565  0.0314  0.0131 -0.1011
 1776W        W17585  16.816   5.298   4.470  0.2019 -0.1153  0.3464
 1777W        W17586  10.619  17.614  13.643  0.1592 -0.0243  0.1248
 1778W        W17587   8.262   0.052  13.262 -0.2026  0.1335 -0.2228
 1779W        W17588   0.847   0.682  13.706 -0.0050  0.1826 -0.0437
 1780W        W17589  17.802   3.769  12.077 -0.1551  0.1348 -0.0860
 1781W        W17590  18.735   4.237  13.549  0.2071 -0.3069 -0.1933
 1782W        W17591   7.087   4.137   0.449 -0.0361  0.0648  0.3675
 1783W        W17592   1.756   9.703  14.780  0.1007  0.0235 -0.0146
 1784W        W17593   1.223   3.749   2.034  0.2312 -0.3798  0.1080
 1785W        W17594  10.784   3.257   1.639  0.1489 -0.1311 -0.0273
 1786W        W17595   0.111   7.518  14.921  0.0922 -0.0618  0.2649
 1787W        W17596  15.807   9.156  10.407 -0.0594 -0.3615  0.0232
 1788W        W17597   8.695  13.827   2.074  0.2565  0.4263  0.2720
 1789W        W17598   1.738   9.947  13.987 -0.1113 -0.2557  0.1000
 1790W        W17599   9.652   6.665   2.496 -0.5470 -0.0615 -0.1524
 1791W        W17600   0.213  13.970   3.821  0.0923  0.0357  0.1859
 1792W        W17601   9.311   9.435   4.087 -0.1332  0.1553 -0.1035
 1793W        W17602   3.712   8.447   3.002  0.1351  0.1040 -0.4450
 1794W        W17603   3.664  16.246  12.434  0.2509 -0.1434  0.0276
 1795W        W17604  16.366   1.095  11.901  0.0988 -0.5156  0.0357
 1796W        W17605   4.441   2.225   2.369  0.2507  0.0159 -0.1889
 1797W        W17606   4.186  16.801   1.938 -0.3041 -0.0671 -0.0951
 1798W        W17607   3.642   2.498   4.901 -0.1843  0.0539 -0.0211
 1799W        W17608  13.896   7.518   4.295  0.1382 -0.1375 -0.2773
 1800W        W17609   7.058  14.678   0.275 -0.0379  0.2475 -0.1853
 1801W        W17610   2.792   9.141   4.148 -0.5257  0.0164  0.2980
 1802W        W17611  17.242   3.214   1.413  0.1466  0.0847 -0.1281
 1803W        W17612   0.718  13.755   6.555  0.1481 -0.1187  0.0326
 1804W        W17613  12.370   0.652   1.613 -0.0332 -0.1784  0.1081
 1805W        W17614  16.139  18.614   0.410  0.0087 -0.0878 -0.1988
 1806W        W17615   8.601  14.915   0.175 -0.1166 -0.2474  0.2043
 1807W        W17616  18.640  17.735  14.856 -0.0541  0.2220  0.4848
 1808W        W17617   9.131  10.900  10.734 -0.3606  0.0919 -0.0187
 1809W        W17618  12.330  14.467  12.800  0.0462  0.1171 -0.1370
 1810W        W17619   8.162   9.249  11.821  0.2888  0.0496  0.0081
 1811W        W17620   9.616   7.615   1.387 -0.1125 -0.2470  0.0749
 1812W        W17621  14.182   2.550   0.672  0.0946 -0.2003 -0.2539
 1813W        W17622   3.879  12.218   4.886 -0.0671  0.0360 -0.0897
 1814W        W17623  17.002   1.661   2.328 -0.0210 -0.3066 -0.1177
 1815W        W17624  16.832  18.617  11.447  0.2021 -0.1012  0.1787
 1816W        W17625   1.079  15.032   4.237  0.2687  0.0486  0.0923
 1817W        W17626   5.816   5.472   9.583  0.2269  0.2466  0.1182
 1818W        W17627   1.662   7.740  13.369  0.0240 -0.0634 -0.0887
 1819W        W17628  10.924  11.017  11.355  0.5276 -0.1507 -0.0194
 1820W        W17629   9.567   0.534  13.377 -0.1515 -0.1858 -0.1810
 1821W        W17630   9.624   2.740  13.089 -0.0245  0.0285 -0.3755
 1822W        W17631  11.858   9.355  11.961 -0.2525  0.0327 -0.0777
 1823W        W17632   8.548  18.550   3.157  0.1801 -0.0557  0.0083
 1824W        W17633   1.354  18.725   3.156 -0.0766  0.1838  0.0434
 1825W        W17634  12.346   4.502   4.670  0.1187 -0.0945 -0.1945
 1826W        W17635  16.535   3.520   3.102  0.2450 -0.1804  0.0843
 1827W        W17636   7.309   7.007  14.383 -0.0710 -0.1666  0.2598
 1828W        W17637  12.087  12.053   0.356  0.3091  0.0229 -0.3889
 1829W        W17638  15.061  10.180   5.155  0.1852 -0.0728 -0.0468
 1830W        W17639  10.517   9.094   2.504 -0.0272 -0.2606 -0.1479
 1831W        W17640   1.461  16.241  14.760  0.2044 -0.0121 -0.0834
 1832W        W17641   0.948   5.193   2.780 -0.3402  0.1690 -0.0948
 1833W        W17642  11.786  18.076  15.218 -0.0422 -0.0477 -0.2877
 1834W        W17643   8.256   2.560  13.027 -0.2037  0.1767  0.2873
 1835W        W17644   1.433  18.742  14.078 -0.2987  0.1433  0.0918
 1836W        W17645  10.644   3.028  13.401 -0.0444 -0.0216 -0.0543
 1837W        W17646  14.061  11.008   5.841  0.2067 -0.0408 -0.2649
 1838W        W17647   9.780  18.519  12.192  0.2607 -0.0383  0.1680
 1839W        W17648  17.932  17.189  11.655  0.0916 -0.0535  0.0182
 1840W        W17649   0.296   1.313   4.549 -0.0800 -0.0919  0.0448
 1841W        W17650   6.868   1.814  12.323  0.0960  0.0633  0.0985
 1842W        W17651  13.985  12.810  11.358 -0.3452  0.2230  0.1252
 1843W        W17652  17.286  18.028  14.380 -0.1842  0.2056 -0.0926
 1844W        W17653  17.531   9.757   4.858  0.1743 -0.1050 -0.1423
 1845W        W17654   7.422   3.458   2.620 -0.0904 -0.0360 -0.1555
 1846W        W17655  18.105   0.259   0.511  0.0830  0.4466 -0.0532
 1847W        W17656  12.340  10.419  13.784 -0.0556  0.1149 -0.0565
 1848W        W17657   6.665   0.719  12.887  0.0915  0.0341  0.2304
 1849W        W17658  14.670  12.000   2.707  0.0368 -0.1482  0.1174
 1850W        W17659   4.932  12.756  12.076 -0.1011 -0.1235 -0.0827
 1851W        W17660   7.936  13.057  14.711 -0.1965 -0.0981 -0.0856
 1852W        W17661   5.881  11.315  11.333 -0.1039  0.0488  0.1437
 1853W        W17662   5.429   3.939   1.620  0.0822  0.2182 -0.0279
 1854W        W17663   4.554  17.249   1.966 -0.1475  0.2363  0.1532
 1855W        W17664  13.180   5.491  12.951 -0.1517  0.0962 -0.2543
 1856W        W17665   5.970  12.845   1.333 -0.3034 -0.0365 -0.0202
 1857W        W17666  17.307   2.358  12.765 -0.0233  0.1466  0.0017
 1858W        W17667  11.721   3.569  10.341 -0.0006 -0.1581  0.0100
 1859W        W17668  16.465   9.685   3.646  0.2408 -0.1984 -0.4720
 1860W        W17669   1.238   8.605   1.124  0.0208 -0.0602  0.1342
 1861W        W17670   2.340   7.565  12.263 -0.0186 -0.3765 -0.0223
 1862W        W17671   7.411  15.019  13.043  0.0141 -0.0319  0.4470
 1863W        W17672   1.989   9.963   5.079  0.1136 -0.0158  0.0818
 1864W        W17673   6.323   3.650   3.635  0.2911  0.2794 -0.2582
 1865W        W17674  17.009  11.890  12.703  0.0792 -0.3290 -0.2536
 1866W        W17675  16.877   1.863   4.692  0.0139 -0.4168 -0.0908
 1867W        W17676   5.256  11.757  14.011 -0.1611 -0.0215  0.3060
 1868W        W17677   6.762   4.335   4.714 -0.2777  0.4536  0.2994
 1869W        W17678  10.363   7.459   2.764 -0.2922 -0.0686  0.1363
 1870W        W17679   1.569   7.791   0.051  0.2035  0.2023  0.4863
 1871W        W17680   6.241   3.626  15.257 -0.0472 -0.3701 -0.3349
 1872W        W17681   2.264   8.110   5.486 -0.0813 -0.1995 -0.2012
 1873W        W17682  14.570   2.796  12.238 -0.2022  0.0099  0.3371
 1874W        W17683  13.230  13.045   5.080  0.1101 -0.1865 -0.0988
 1875W        W17684  14.845   1.072   5.310 -0.3208  0.0220 -0.0624
 1876W        W17685   3.738   5.524   2.204  0.2249  0.1466 -0.0441
 1877W        W17686   9.265  17.315  13.100  0.0127 -0.0154 -0.0352
 1878W        W17687   9.445   4.007   2.279  0.2714 -0.1096 -0.1735
 1879W        W17688   0.387   9.110  12.545  0.1233  0.0593  0.1378
 1880W        W17689   4.877  16.440  14.205 -0.0971 -0.0690 -0.1388
 1881W        W17690  17.148   6.040   4.137  0.1310  0.1697 -0.0885
 1882W        W17691  17.797   0.918  11.088 -0.0507 -0.0534  0.1767
 1883W        W17692   8.625   1.682   3.637 -0.1784  0.3146  0.2240
 1884W        W17693   7.842  13.454   0.641  0.4952 -0.0196  0.2841
 1885W        W17694  11.936   8.211  12.423 -0.2441  0.1290 -0.2750
 1886W        W17695   1.162  17.659   1.037  0.2049 -0.2313  0.2032
 1887W        W17696   6.452  15.760   1.460 -0.0769 -0.0046  0.0234
 1888W        W17697   8.166  18.627   3.563  0.0005  0.1707 -0.1738
 1889W        W17698  16.893  16.950   2.086  0.2184 -0.1373  0.1746
 1890W        W17699  18.376   6.705  11.670 -0.1873  0.1273 -0.1696
 1891W        W17700  18.937   3.966   3.099  0.2230  0.1345  0.0845
 1892W        W17701   6.146   0.491   1.667 -0.2681  0.2093  0.1740
 1893W        W17702   9.896  15.584   1.371 -0.3656  0.1015 -0.0223
 1894W        W17703   3.364   9.484   1.226 -0.0277 -0.4682  0.1159
 1895W        W17704  17.536  10.193   0.824 -0.2981 -0.1248  0.1048
 1896W        W17705   4.313   3.422  11.229 -0.0211  0.1582  0.0827
 1897W        W17706  11.101  14.966  15.267 -0.2406 -0.0001  0.0239
 1898W        W17707   7.722  17.157   0.781  0.2450 -0.2379 -0.2558
 1899W        W17708   3.300  13.862  13.257 -0.0094  0.0427 -0.1498
 1900W        W17709   8.022  11.062  10.623 -0.1192 -0.0922  0.0166
 1901W        W17710  18.297   9.766   4.669  0.0618  0.1004  0.2785
 1902W        W17711   2.077  13.520   5.566  0.2199  0.1999  0.1545
 1903W        W17712   3.634   9.101  11.128  0.4149  0.3273  0.1376
 1904W        W17713  18.361  11.641   2.490 -0.1409  0.0073  0.0335
 1905W        W17714   8.536   7.074  14.889 -0.2908 -0.2351  0.0682
 1906W        W17715   0.361   2.509  15.137  0.2734 -0.0455 -0.1248
 1907W        W17716  10.511   3.578  14.207 -0.0273  0.0676  0.0825
 1908W        W17717   0.288   0.400  11.588  0.0943  0.1266  0.0177
 1909W        W17718  16.671  17.930   3.233 -0.2081  0.0555 -0.0486
 1910W        W17719   1.589   4.625   3.246  0.2736 -0.0037 -0.1413
 1911W        W17720   6.867  17.258   3.128 -0.0139 -0.1340  0.4485
 1912W        W17721  11.342  13.017   3.455 -0.2199  0.0555 -0.0388
 1913W        W17722   6.815  11.952  10.500 -0.1586 -0.3736 -0.0188
 1914W        W17723   1.274  16.550   3.614  0.1866 -0.1349  0.1925
 1915W        W17724  10.948  15.861   3.131 -0.3984 -0.0788 -0.1151
 1916W        W17725  18.725  18.630   1.974  0.3465  0.3335 -0.5049
 1917W        W17726  16.163  17.213   3.312 -0.1053  0.0525  0.0087
 1918W        W17727   7.639   5.691  14.804 -0.1499 -0.1757  0.0102
 1919W        W17728  13.908   6.539  14.198 -0.2217 -0.0394  0.3896
 1920W        W17729  16.631  16.258  14.283  0.1276  0.0999  0.3871
 1921W        W17730  14.270  12.748  13.241 -0.1945  0.2529 -0.1221
 1922W        W17731  18.812   7.134   0.612 -0.1407  0.2366 -0.1081
 1923W        W17732   6.231   4.469   0.674 -0.1215  0.1585 -0.3537
 1924W        W17733  14.825  14.844   1.411  0.1898 -0.2941 -0.0708
 1925W        W17734   9.860   7.393  10.320 -0.0477 -0.0201 -0.0614
 1926W        W17735   1.246  11.489  11.710  0.7942 -0.2307 -0.0961
 1927W        W17736   6.210   0.417   0.417  0.1776  0.3733  0.1551
 1928W        W17737  11.123  11.780   2.128 -0.0005 -0.0796  0.0335
 1929W        W17738   9.285   4.979   4.034  0.0041 -0.0652 -0.2475
 1930W        W17739  16.025  12.770  13.820 -0.3010 -0.0487 -0.2975
 1931W        W17740   8.667   3.366   3.890  0.1665  0.1444  0.0579
 1932W        W17741   8.187  13.271  10.351  0.1318  0.0566 -0.0850
 1933W        W17742  14.026   4.568  13.037 -0.3207 -0.1029  0.2180
 1934W        W17743   7.187   9.217   5.143 -0.3453 -0.1896  0.1355
 1935W        W17744   0.161   8.408   0.094 -0.1836  0.0657  0.0732
 1936W        W17745  10.326   6.805  13.179  0.1478  0.3826  0.1022
 1937W        W17746   1.008   0.312   3.861 -0.2994  0.1919 -0.0836
 1938W        W17747   9.744   0.113  12.913  0.1908 -0.4725  0.2266
 1939W        W17748   3.697  18.628   3.709 -0.1114  0.1069  0.3181
 1940W        W17749   9.831  13.300  11.540 -0.0766 -0.0109 -0.0461
 1941W        W17750  15.684   7.964   1.897 -0.0829  0.2207  0.2154
 1942W        W17751   3.439  11.105  14.424 -0.0701 -0.1145 -0.1730
 1943W        W17752   5.675  11.308   8.893  0.0129 -0.1237 -0.3603
 1944W        W17753  17.788   4.323   5.619 -0.1143 -0.0525 -0.0701
 1945W        W17754  14.544  17.746   5.242  0.1314  0.1518  0.1007
 1946W        W17755  11.127  16.519  12.187 -0.1487  0.1753  0.1242
 1947W        W17756   7.262  16.025   3.813 -0.6028  0.1249  0.0505
 1948W        W17757   4.043   2.221  14.082  0.1021 -0.0397 -0.3240
 1949W        W17758   5.095  14.039  11.177 -0.1805 -0.4287 -0.0297
 1950W        W17759  15.362  12.415  14.214  0.0164  0.1382  0.3715
 1951W        W17760   0.900   5.495   1.152 -0.1852  0.2085 -0.4952
 1952W        W17761  11.712  17.342  12.386  0.0127 -0.1971  0.3080
 1953W        W17762   2.916  11.709   0.486  0.0360 -0.2228 -0.3965
 1954W        W17763   4.786   1.611   3.292 -0.2880 -0.2302  0.1119
 1955W        W17764  10.802  18.662  14.492  0.4070  0.0344  0.3651
 1956W        W17765  15.491   3.138   4.387  0.0752 -0.1893 -0.3968
 1957W        W17766  16.566  12.217   0.004  0.1793  0.0774 -0.0814
 1958W        W17767   7.838  11.802  12.073  0.1032 -0.0622 -0.4665
 1959W        W17768   9.111  12.432   2.551  0.1521  0.1273  0.1004
 1960W        W17769  15.577  16.649   0.966  0.2023 -0.3520 -0.0967
 1961W        W17770  11.478   9.145  14.340 -0.0060 -0.1464 -0.2756
 1962W        W17771   1.015   0.694  10.792 -0.0535 -0.0471  0.1344
 1963W        W17772   7.843   7.438   0.163  0.0203  0.1336 -0.1546
 1964W        W17773   1.000  16.277   3.287  0.1943  0.0094 -0.2506
 1965W        W17774   7.986  16.897  14.027 -0.4104  0.1008  0.3306
 1966W        W17775   4.996   9.120  14.756 -0.0852 -0.0991 -0.1592
 1967W        W17776   6.199  10.419  14.741 -0.1835 -0.0391 -0.0454
 1968W        W17777   4.155   3.778   0.469  0.2379  0.4359  0.0882
 1969W        W17778  11.233  12.472  10.957 -0.0961 -0.1125  0.0226
 1970W        W17779   0.124   6.593   1.887  0.2114 -0.1226 -0.0070
 1971W        W17780  17.681   1.214   2.636 -0.4312  0.1959  0.1072
 1972W        W17781   8.661  16.965  10.863  0.2276 -0.1568 -0.0294
 1973W        W17782  15.251   0.046  10.690 -0.1093  0.0067 -0.0495
 1974W        W17783  18.529   8.387   3.360 -0.2177 -0.0549  0.4464
 1975W        W17784   6.523  15.683   2.349  0.2669 -0.1374 -0.2187
 1976W        W17785  16.664  12.823  13.215 -0.0012 -0.2033 -0.0914
 1977W        W17786  15.853   5.689  12.729 -0.1312  0.0439  0.1826
 1978W        W17787  17.216  15.269   4.973 -0.0062 -0.1274  0.2161
 1979W        W17788  17.802   5.291   0.049  0.2010 -0.0738 -0.0743
 1980W        W17789  10.585  17.992  15.206 -0.3134 -0.1189  0.1714
 1981W        W17790  13.654   1.606   1.463  0.3444 -0.0302 -0.1326
 1982W        W17791  18.994  11.654  14.482  0.5111  0.2208 -0.2596
 1983W        W17792   1.889   3.013  12.058 -0.1892 -0.3196  0.1696
 1984W        W17793  13.237  14.446   1.528 -0.0235 -0.1128 -0.0300
 1985W        W17794  15.143   0.352   3.158 -0.0375 -0.1148  0.2683
 1986W        W17795   0.175  15.381  13.369 -0.1228  0.0623 -0.1674
 1987W        W17796   8.169   4.147   0.218 -0.1803  0.0249 -0.1291
 1988W        W17797   0.147   0.414   3.325 -0.0568  0.1494  0.0029
 1989W        W17798  11.367   0.503   5.684  0.1178 -0.1514 -0.2214
 1990W        W17799  12.559  10.302   0.383 -0.3252 -0.1165  0.4104
 1991W        W17800   0.950   3.957  10.879  0.1071  0.0005  0.1784
 1992W        W17801   9.618   5.871   3.715 -0.2952 -0.1992  0.3104
 1993W        W17802   3.488  17.421  12.221  0.1116  0.4807  0.1091
 1994W        W17803  17.649   4.114  11.766  0.2607  0.0494 -0.1090
 1995W        W17804  16.384   9.033  10.975  0.0662  0.1477  0.0665
 1996W        W17805  13.539   0.824   3.742  0.1628  0.0159 -0.1198
 1997W        W17806   0.601  18.417  11.843 -0.2229  0.1842  0.1892
 1998W        W17807   9.007   0.114   2.079 -0.3300  0.1267  0.1924
 1999W        W17808   0.844   4.531  13.986 -0.3722  0.4014  0.1705
 2000W        W17809  12.988   7.169  12.018  0.0616  0.0555 -0.2762
 2001W        W17810  10.280   4.963  12.566 -0.0810 -0.1732  0.0617
 2002W        W17811  15.015  13.696   3.814  0.0455 -0.1034 -0.1226
 2003W        W17812   7.991  10.494  12.399  0.1104 -0.0480 -0.1841
 2004W        W17813   2.387   1.272  12.211  0.3250 -0.1400  0.3648
 2005W        W17814  15.309   3.310   3.932 -0.0802 -0.1495  0.0534
 2006W        W17815  17.903  14.728  14.366  0.0242  0.1966  0.2213
 2007W        W17816  13.866   6.309   2.044  0.3006  0.1741  0.1265
 2008W        W17817  11.066  14.187   0.170 -0.2370 -0.1508 -0.1847
 2009W        W17818  17.515  11.787  12.756 -0.1787  0.1105  0.3884
 2010W        W17819  11.774   7.184   1.164  0.0114  0.0027  0.4323
 2011W        W17820   3.790   0.962   1.877 -0.0027 -0.0540  0.0853
 2012W        W17821   3.142   9.740  14.286  0.0635  0.1816 -0.2146
 2013W        W17822  18.682   0.060   3.634  0.2340  0.0094  0.1385
 2014W        W17823  11.638   2.711  14.907 -0.1977  0.1513  0.1245
 2015W        W17824   0.524   5.445   1.460  0.1267 -0.1274 -0.1857
 2016W        W17825  14.441   5.557   3.465 -0.1464  0.2481 -0.0875
 2017W        W17826   3.096  15.027  14.910 -0.0603 -0.0253 -0.2209
 2018W        W17827   0.733  18.312  13.012  0.0746 -0.2342  0.2071
 2019W        W17828   9.795   5.488  12.895 -0.2418  0.1942 -0.3193
 2020W        W17829  14.422   0.390  13.573  0.2552  0.0942  0.0421
 2021W        W17830  16.533   8.838  14.210  0.1938  0.0925  0.1130
 2022W        W17831   1.999  11.751   2.369  0.2280 -0.1457 -0.3220
 2023W        W17832   5.965   2.378  10.945 -0.0502 -0.0293 -0.1756
 2024W        W17833   5.321   1.289  14.050  0.2091 -0.0702  0.1172
 2025W        W17834   3.470  13.703  11.304 -0.2543 -0.2811 -0.2083
 2026W        W17835  14.692   1.462   2.526 -0.2408  0.0621 -0.1814
 2027W        W17836  15.094   7.863  11.856  0.1683 -0.0149 -0.1855
 2028W        W17837  11.605   8.676   5.170 -0.2215  0.0580  0.0996
 2029W        W17838   1.608  16.902   1.492 -0.0748  0.0925  0.1052
 2030W        W17839  12.159  11.099  14.597 -0.2071 -0.1001 -0.1116
 2031W        W17840   9.745  16.306  15.279  0.0029  0.0722 -0.4443
 2032W        W17841  11.497  12.073  13.557  0.1507 -0.2611 -0.0220
 2033W        W17842  11.090   1.354  12.671 -0.0178  0.0692 -0.2643
 2034W        W17843  11.408   7.469   0.376  0.1103  0.2321 -0.0335
 2035W        W17844  10.622  18.031   0.510 -0.3516 -0.2751  0.0049
 2036W        W17845  14.768   3.994   3.391 -0.0648 -0.0685 -0.0221
 2037W        W17846   7.656  14.194   4.391  0.0557  0.3191 -0.1689
 2038W        W17847   8.311  16.575  10.910 -0.0300  0.3291  0.0847
 2039W        W17848   2.499   6.368  15.232  0.2025 -0.1286 -0.1223
 2040W        W17849  11.820   6.296  14.951  0.1435  0.0450 -0.2671
 2041W        W17850   4.109  11.604  10.840 -0.3005  0.0763  0.0738
 2042W        W17851  17.998   1.924  12.438  0.1751  0.0954 -0.0437
 2043W        W17852   1.821   0.746  14.702  0.0725  0.0433 -0.3110
 2044W        W17853  17.787  11.988   5.218  0.2408 -0.0433  0.3471
 2045W        W17854   8.755   0.537   4.571  0.1154 -0.0620  0.0826
 2046W        W17855   3.053  13.558   1.252  0.2937 -0.4152  0.0383
 2047W        W17856  12.711   3.217   9.845  0.1344 -0.6639 -0.2663
 2048W        W17857   8.180   4.764  11.198 -0.1128 -0.3949  0.0130
 2049W        W17858  14.407   0.994   4.626  0.0900  0.1301 -0.2182
 2050W        W17859   0.594  12.598   1.782  0.2829 -0.2512  0.0465
 2051W        W17860   2.983  18.946  11.735  0.1161 -0.5070 -0.2795
 2052W        W17861  14.091  11.133  13.404  0.1418  0.3520 -0.1730
 2053W        W17862  12.127   4.666  10.888 -0.2147  0.0720 -0.0032
 2054W        W17863  16.855   6.159  10.763  0.1502 -0.0543  0.0857
 2055W        W17864   4.625   8.565   1.046  0.1473  0.1986 -0.1250
 2056W        W17865   8.385  13.485   0.274  0.0512  0.2096  0.4501
 2057W        W17866   3.441   5.466   4.915  0.5326 -0.5631 -0.0326
 2058W        W17867   1.472   5.949   0.852 -0.0718  0.1186 -0.1382
 2059W        W17868   4.161   1.223   2.744  0.1162  0.3257  0.1737
 2060W        W17869   2.567   7.570   5.665 -0.0098 -0.1545 -0.0070
 2061W        W17870  18.203   1.239  11.718  0.2151  0.0413 -0.3478
 2062W        W17871  13.098   3.609  14.608  0.2539 -0.4801  0.2418
 2063W        W17872   4.965   3.606   3.467  0.0350 -0.2684  0.2907
 2064W        W17873   4.141   5.602   4.913 -0.0938  0.1739  0.1228
 2065W        W17874  17.505  18.759   2.658 -0.3029 -0.1447  0.1076
 2066W        W17875  17.857   5.122   3.312 -0.2603  0.3198  0.2851
 2067W        W17876   7.036   6.771   0.272 -0.4881  0.0456  0.1863
 2068W        W17877  11.783  14.054  12.073 -0.1001  0.2879 -0.1278
 2069W        W17878  14.452   6.688   4.251  0.1929  0.5009 -0.0769
 2070W        W17879  15.572   3.747   3.565  0.0193  0.2423  0.2476
 2071W        W17880  10.260  18.185   4.951  0.2029  0.0729  0.1585
 2072W        W17881   2.475  15.898  12.312 -0.1973 -0.3262  0.0040
 2073W        W17882  13.825   0.398  14.914  0.0012  0.0425  0.4602
 2074W        W17883   8.891  18.381   4.118  0.1543 -0.0001  0.1341
 2075W        W17884  11.002   7.383   5.190 -0.3774  0.0364  0.1804
 2076W        W17885  13.495   9.271   5.681  0.0717 -0.0886  0.0233
 2077W        W17886  11.863  18.495   1.972  0.2361  0.0309  0.0356
 2078W        W17887  10.421  18.122   4.456 -0.1488  0.0387 -0.0228
 2079W        W17888   7.607   0.314   3.508 -0.2000  0.0159 -0.1869
 2080W        W17889  16.665  12.278   0.827 -0.2685 -0.2752 -0.2300
 2081W        W17890  10.111   5.186   4.231  0.4223 -0.4273  0.0620
 2082W        W17891  17.941  10.490   1.561 -0.2605  0.0394 -0.2112
 2083W        W17892   8.371   6.436  12.506 -0.0426  0.0359  0.3223
 2084W        W17893  13.194  18.959   0.827  0.0070 -0.0440 -0.1730
 2085W        W17894  17.122  14.368   5.041  0.1747 -0.1636 -0.1137
 2086W        W17895  18.041   2.057   2.893  0.2413  0.0756  0.0637
 2087W        W17896  18.212   4.712  14.714 -0.0106 -0.3279  0.0072
 2088W        W17897   5.321   2.707  13.820  0.1366 -0.0573 -0.0733
 2089W        W17898   0.988  18.811   4.668  0.4065 -0.0164 -0.0674
 2090W        W17899  13.857  18.527  11.569  0.0016  0.0486  0.4072
 2091W        W17900   6.317   1.750   4.528  0.0284 -0.1957  0.0667
 2092W        W17901  14.904   7.675   1.139 -0.0670 -0.1348  0.1227
 2093W        W17902   3.710   0.731   3.815  0.0963  0.0135 -0.2262
 2094W        W17903   9.821   5.163  13.996 -0.3519  0.0825  0.0464
 2095W        W17904  13.645  15.112  12.753 -0.0903 -0.4441  0.0318
 2096W        W17905   7.568   4.284  13.390 -0.1863  0.2182 -0.1599
 2097W        W17906   2.181  13.050   2.376 -0.0350 -0.1789 -0.0783
 2098W        W17907  14.473   2.573  10.876  0.0252  0.2254 -0.0043
 2099W        W17908   2.196   6.539   0.751 -0.0533  0.0004 -0.2511
 2100W        W17909   8.445  19.009   0.230 -0.2697 -0.0494  0.1103
 2101W        W17910  16.988   0.327   1.121 -0.2387 -0.0535 -0.0034
 2102W        W17911  11.286   3.755   2.770  0.0725  0.0578  0.1864
 2103W        W17912  13.597  10.973  11.339  0.1181 -0.2231  0.2655
 2104W        W17913   1.230  10.711  15.123 -0.1628  0.0199  0.0722
 2105W        W17914  18.390   3.590  14.899  0.0655  0.0044  0.0067
 2106W        W17915   7.752   2.715   2.407  0.0529 -0.0954  0.1971
 2107W        W17916  10.990   9.855  13.846  0.0349  0.0227  0.3410
 2108W        W17917   1.596   8.645  12.419  0.0741 -0.2017  0.2660
 2109W        W17918  14.613  10.647  12.850  0.3832 -0.1482 -0.1608
 2110W        W17919  15.882   0.168  15.014 -0.2741 -0.2359  0.0708
 2111W        W17920  13.112  11.653  11.661 -0.1927 -0.0213 -0.4280
 2112W        W17921  10.124  16.223   3.266 -0.0005  0.1918  0.0206
 2113W        W17922   9.552  10.849  12.800 -0.0848  0.2229 -0.0925
 2114W        W17923   9.147   0.152  13.576  0.0800 -0.1493  0.1420
 2115W        W17924  10.220   9.300  10.718  0.0726 -0.1296  0.2376
 2116W        W17925   1.000  16.814   3.239 -0.1303 -0.1370 -0.1166
 2117W        W17926   7.023  17.840  13.013 -0.2001 -0.0980 -0.1385
 2118W        W17927  10.498   9.595   5.650  0.3014 -0.1346  0.0875
 2119W        W17928  18.593   9.912  14.613  0.2520  0.1021 -0.1396
 2120W        W17929   9.869   9.600  14.811  0.2054 -0.0056  0.1344
 2121W        W17930  14.144  13.461  12.209 -0.3693 -0.1033 -0.1397
 2122W        W17931   5.066  10.534  12.625  0.1786  0.2835  0.1559
 2123W        W17932   1.543   1.402   4.794 -0.2036  0.4389 -0.0529
 2124W        W17933  16.421  14.954  11.561 -0.0629 -0.3205 -0.0062
 2125W        W17934   9.991  11.130   5.737 -0.4246  0.0623  0.1260
 2126W        W17935   9.110   5.766   0.287 -0.1905  0.0769  0.1240
 2127W        W17936   9.183   8.031  14.352  0.2246  0.1335 -0.1857
 2128W        W17937   8.544   7.343   3.788 -0.0807  0.3191  0.0479
 2129W        W17938  17.551  16.545   4.906  0.1753  0.2854  0.0122
 2130W        W17939   2.241  17.134   1.966 -0.1538 -0.0790  0.2666
 2131W        W17940   9.555  15.484   2.659  0.3029  0.2181 -0.1108
 2132W        W17941   5.744   3.438   0.791  0.1209 -0.0165 -0.3019
 2133W        W17942  16.694  13.223  12.425  0.0876 -0.0127  0.2128
 2134W        W17943   0.625   7.092  12.061 -0.3557  0.1300 -0.1050
 2135W        W17944   0.371   8.162   2.517  0.0679  0.0546  0.0240
 2136W        W17945  11.298  10.006   3.249  0.1749 -0.0739 -0.2261
 2137W        W17946   2.978   6.131  13.575  0.0689 -0.2084  0.2320
 2138W        W17947   3.306   9.941  15.075 -0.1990  0.1348 -0.2278
 2139W        W17948  19.031  18.242  13.501  0.1465 -0.1672  0.2509
 2140W        W17949   0.439   4.788   3.456  0.3159  0.2633 -0.1142
 2141W        W17950   3.797   5.198   4.693  0.1396 -0.2873 -0.2489
 2142W        W17951  16.725  11.236  12.929  0.2736  0.0660 -0.0494
 2143W        W17952   6.941   7.011   4.550  0.0197 -0.1185  0.1074
 2144W        W17953  18.103   0.038   9.705 -0.1135  0.3503 -0.1240
 2145W        W17954   5.525  13.856   3.112  0.3040 -0.0438  0.1508
 2146W        W17955  14.674  10.643   5.244 -0.0685 -0.0652 -0.0396
 2147W        W17956   2.351   1.759  11.895  0.0306 -0.1238 -0.1579
 2148W        W17957  10.588  10.641  14.339 -0.1550  0.0040 -0.2293
 2149W        W17958   7.719   7.232   5.293  0.1764  0.3893 -0.1359
 2150W        W17959  15.146   2.855   3.175 -0.1949  0.1853 -0.0039
 2151W        W17960   0.144  18.733  11.750 -0.1650  0.0085 -0.1221
 2152W        W17961   0.678  17.815   1.297 -0.1058  0.1186 -0.3553
 2153W        W17962   6.039   6.087  14.383  0.1079  0.0913  0.0723
 2154W        W17963  17.682  14.702   4.402 -0.2250 -0.1491  0.0008
 2155W        W17964   5.438  18.831  10.453 -0.1296  0.1141 -0.2511
 2156W        W17965  15.747   1.477   0.193 -0.3174  0.0705  0.1589
 2157W        W17966  18.121   3.164  15.020  0.1335  0.0038 -0.0686
 2158W        W17967  18.261   3.569   3.431  0.2701  0.0359 -0.1967
 2159W        W17968   6.370   1.060  10.660 -0.1087  0.2750 -0.1987
 2160W        W17969   6.535  12.144   1.002 -0.1443 -0.0516 -0.1488
 2161W        W17970  16.395   2.234  11.990 -0.1374 -0.1850 -0.2504
 2162W        W17971   0.344  13.000   0.515  0.0397  0.0157  0.1541
 2163W        W17972  18.268  11.150  10.259 -0.0351 -0.2174 -0.4592
 2164W        W17973  11.984   7.129   3.090 -0.2615 -0.4538  0.0099
 2165W        W17974  13.928   0.551   1.619 -0.0701  0.1606  0.2453
 2166W        W17975  17.779   4.511  14.927 -0.2023  0.0710 -0.2237
 2167W        W17976  15.563  12.882   2.769  0.0631  0.1480 -0.2794
 2168W        W17977  17.669  13.072   4.764 -0.3567  0.1364 -0.0339
 2169W        W17978  14.774   7.952   4.523  0.0255 -0.0435 -0.1285
 2170W        W17979  13.751   0.178   2.000  0.3829  0.2624 -0.1059
 2171W        W17980   7.471   3.747   3.284 -0.0166  0.0088  0.3011
 2172W        W17981   5.821   2.504   5.113  0.1307  0.0085 -0.1182
 2173W        W17982   6.368   1.953  13.723 -0.0926  0.1754  0.0708
 2174W        W17983  10.673   2.701   2.603 -0.1056  0.0273  0.5601
 2175W        W17984   5.004   6.766  14.641  0.0912 -0.0419  0.0093
 2176W        W17985  17.218  10.711   2.350  0.1833 -0.1106  0.0265
 2177W        W17986  18.666   2.094   2.494 -0.2063  0.2500  0.0747
 2178W        W17987   1.545   4.405  14.781 -0.4763  0.0601  0.0271
 2179W        W17988   6.879   8.442  14.310 -0.0555 -0.0222  0.0371
 2180W        W17989  10.797   4.023  13.268 -0.0615 -0.0516  0.1134
 2181W        W17990  13.314   3.639  11.800 -0.0627 -0.0557  0.0592
 2182W        W17991   2.787  14.470   1.199 -0.0843 -0.1048  0.2330
 2183W        W17992  10.919   6.666   2.539 -0.0466  0.1084  0.3135
 2184W        W17993   4.537  18.538   1.249  0.0029  0.3609  0.1027
 2185W        W17994  15.598   5.119   5.166  0.1061 -0.0005  0.1376
 2186W        W17995  18.893   0.383  15.285 -0.2958  0.1735  0.0227
 2187W        W17996   6.112   5.620  10.929  0.5626 -0.0151 -0.0835
 2188W        W17997   4.855   2.019  11.660  0.2501 -0.2259  0.0834
 2189W        W17998   8.327  16.564  10.339  0.1728  0.0810  0.3074
 2190W        W17999  12.826   8.783  10.975  0.1248  0.0702 -0.0115
 2191W        W18000  18.707   2.313   1.985 -0.1073  0.0924 -0.3674
 2192W        W18001   2.133   8.797  13.133 -0.2058 -0.0532  0.0339
 2193W        W18002  13.066   7.729  11.908 -0.0874  0.2558 -0.1977
 2194W        W18003   5.530  15.087  14.621  0.2433  0.4725 -0.0141
 2195W        W18004   7.466  18.507  14.946 -0.2954 -0.1948  0.0655
 2196W        W18005  10.590  14.330   1.068 -0.2522 -0.3340 -0.4068
 2197W        W18006   0.585  10.348  12.759 -0.0150  0.0003  0.2282
 2198W        W18007  18.491   0.134  13.772  0.1919 -0.1264 -0.2630
 2199W        W18008   7.176   2.103  14.373 -0.1517 -0.2204 -0.1473
 2200W        W18009   7.377  11.901  14.213  0.1532  0.0484  0.0394
 2201W        W18010  14.336   8.882  13.649  0.4701 -0.0363 -0.0362
 2202W        W18011  12.079  13.643  13.639  0.0691  0.1986  0.0184
 2203W        W18012  10.782  13.830   4.017 -0.0025 -0.1325 -0.0289
 2204W        W18013   0.320   8.443   2.139 -0.0852  0.0043 -0.1323
 2205W        W18014  16.956  18.367  14.207 -0.1805 -0.0491  0.5295
 2206W        W18015   8.635  13.679   1.175 -0.0059  0.0217  0.0042
 2207W        W18016  12.989   8.507   2.297  0.0032  0.3285  0.0365
 2208W        W18017   6.458  17.434   4.542  0.1459  0.2029 -0.4287
 2209W        W18018  16.228  11.878   1.424 -0.2586 -0.0351 -0.2235
 2210W        W18019   7.148  13.857  14.000 -0.0845 -0.0619 -0.0010
 2211W        W18020   3.887   6.635   2.182 -0.0587  0.1978  0.1018
 2212W        W18021  14.738  12.009   4.657  0.1687  0.0054  0.4015
 2213W        W18022  13.440  14.274  10.588  0.0449 -0.0865  0.2345
 2214W        W18023  16.807  17.486   0.395  0.1082  0.2010 -0.1602
 2215W        W18024   2.064  14.995   0.705  0.1755 -0.0629  0.0734
 2216W        W18025   3.026   2.589  13.321  0.1758 -0.3295  0.0504
 2217W        W18026   6.346  14.587   1.659  0.1350 -0.4368 -0.0448
 2218W        W18027  16.611   6.515   4.631 -0.1420 -0.0249  0.0902
 2219W        W18028   3.982  15.034  15.194  0.1732  0.2037  0.2622
 2220W        W18029  11.952  17.193   5.735  0.3802  0.1175 -0.2890
 2221W        W18030  10.634   7.887   3.820  0.2272 -0.1788 -0.0415
 2222W        W18031  18.024  10.400  12.133 -0.1281 -0.0237  0.3018
 2223W        W18032   0.404   3.766   0.458 -0.0529 -0.1752 -0.2469
 2224W        W18033  16.085  13.733   5.966 -0.2714 -0.1187  0.1563
 2225W        W18034   9.334   2.172   4.818  0.0793 -0.2014 -0.1062
 2226W        W18035  15.979   6.284   5.257 -0.0731 -0.0325  0.0113
 2227W        W18036   7.248   4.046  15.224  0.1614 -0.2066  0.2886
 2228W        W18037  10.413  15.217  14.374 -0.0470 -0.2076 -0.1395
 2229W        W18038   4.969   4.798   4.774  0.3182  0.1601 -0.0824
 2230W        W18039   5.177   0.947  13.148  0.1575  0.0414  0.1085
 2231W        W18040  16.146   0.224   1.620  0.2439 -0.0936 -0.2939
 2232W        W18041  13.601   9.278  10.932  0.3994 -0.4779 -0.1676
 2233W        W18042   9.419  11.714   2.045  0.4989 -0.2456  0.0685
 2234W        W18043  14.272   3.837   5.729 -0.2512  0.2276 -0.2966
 2235W        W18044   8.457  11.923   2.864 -0.0446  0.3360 -0.2061
 2236W        W18045  18.679   6.634  15.040 -0.3612 -0.1114  0.1581
 2237W        W18046   5.090   1.397   9.485  0.0247  0.0917 -0.0618
 2238W        W18047  10.348  16.674   3.428  0.3006 -0.0230 -0.0633
 2239W        W18048   5.145  11.768  12.413 -0.3511  0.4495  0.0345
 2240W        W18049  11.978   0.685   1.998 -0.0637  0.0990  0.0334
 2241W        W18050   6.174   7.138   9.613  0.1481  0.0205 -0.1151
 2242W        W18051  10.001   3.911   4.332  0.2499 -0.2333 -0.1904
 2243W        W18052  18.281   2.826   4.546 -0.1408  0.5074 -0.0346
 2244W        W18053   8.374  11.370   2.142 -0.0116  0.0553 -0.0624
 2245W        W18054   1.626  15.502   4.912  0.0348  0.1546 -0.0299
 2246W        W18055  12.776   8.800  13.075 -0.1502  0.2828 -0.1653
 2247W        W18056   5.983   8.851  12.099 -0.0384 -0.0191 -0.1193
 2248W        W18057  10.824  12.599  14.559  0.0474  0.1184  0.0759
 2249W        W18058   2.176  18.133  12.686 -0.1441  0.1505  0.3947
 2250W        W18059   5.146  18.371  12.608 -0.1370  0.1279 -0.0114
 2251W        W18060   9.654  14.746  10.475  0.1070 -0.0414 -0.0089
 2252W        W18061  12.029  12.815   5.456  0.0861 -0.0471 -0.0793
 2253W        W18062   7.818  12.614  12.578 -0.3200  0.1079  0.1618
 2254W        W18063   4.068   0.951   3.557  0.3220  0.2377 -0.2654
 2255W        W18064   7.935   4.748  13.413  0.2119 -0.1238 -0.1779
 2256W        W18065   9.102   0.492  10.113 -0.2172 -0.0328  0.3711
 2257W        W18066   7.961  10.783   1.237 -0.1077 -0.2083  0.1929
 2258W        W18067   3.280  12.102   1.801  0.2720  0.1899 -0.0124
 2259W        W18068  18.145   7.332   5.051  0.0857  0.1380  0.0774
 2260W        W18069   2.976  13.925   4.090  0.0489 -0.0951  0.1318
 2261W        W18070   3.968  17.909  11.395  0.0195  0.0112  0.0908
 2262W        W18071  13.791  11.181   3.913 -0.0862 -0.1131 -0.0522
 2263W        W18072  12.328  12.718  15.278 -0.0677 -0.1015  0.0857
 2264W        W18073   1.401   4.735  14.370  0.0125 -0.1058  0.1576
 2265W        W18074   1.170   3.899   5.807 -0.1245 -0.0507 -0.1909
 2266W        W18075   9.927   7.966   1.582 -0.0303 -0.2811  0.1320
 2267W        W18076   4.051   6.106  12.338  0.1461 -0.0297 -0.1345
 2268W        W18077  14.989  14.782   1.986 -0.0338 -0.2239 -0.1781
 2269W        W18078   5.749   9.084   3.923  0.2083 -0.0777  0.0255
 2270W        W18079  11.279  17.305   3.798  0.3812  0.2273  0.0728
 2271W        W18080   0.474   0.583  12.023  0.4258 -0.1225  0.0642
 2272W        W18081  12.834   6.997  13.369  0.1235 -0.1283  0.0512
 2273W        W18082   8.527   1.318  13.642  0.0380 -0.1224  0.2894
 2274W        W18083   3.453  17.165   3.881 -0.1912  0.4126 -0.2939
 2275W        W18084   3.666   8.884   3.497 -0.1304  0.2610  0.0374
 2276W        W18085   5.291   0.272  11.385  0.0263 -0.0341 -0.1412
 2277W        W18086   6.283   4.663   2.009 -0.1346 -0.3298  0.3400
 2278W        W18087   3.248   6.198  13.990 -0.0071  0.1102  0.2786
 2279W        W18088   5.175  18.608   4.105 -0.1529  0.0405 -0.2337
 2280W        W18089  15.777  12.204  10.853  0.2269  0.0827 -0.0468
 2281W        W18090  17.098   0.673   1.432 -0.2172 -0.0810  0.0633
 2282W        W18091   8.739   5.385  12.494 -0.3824  0.0916  0.0628
 2283W        W18092   7.100   3.510   2.994  0.1544 -0.0376  0.1810
 2284W        W18093   2.772   2.337   0.852  0.1314  0.3039 -0.0984
 2285W        W18094   2.858   7.439  11.986 -0.2426  0.3445 -0.0918
 2286W        W18095   9.860   8.893   1.916  0.2555  0.0072 -0.1080
 2287W        W18096  12.734  14.652  11.255  0.1756  0.2377 -0.0051
 2288W        W18097  14.283   5.235   5.420  0.2974  0.1933 -0.3928
 2289W        W18098  13.944   4.368   4.441 -0.0721 -0.1139 -0.1038
 2290W        W18099  18.839  11.345   4.034 -0.1499 -0.0742 -0.1276
 2291W        W18100  16.676  17.785   4.147  0.2791 -0.0149 -0.0627
 2292W        W18101   1.732  18.171   4.146  0.1224  0.0047 -0.0122
 2293W        W18102   3.339   0.152   1.025 -0.1487 -0.0448 -0.0711
 2294W        W18103   4.392   9.507   2.459  0.1659 -0.1353  0.2236
 2295W        W18104   2.504   3.702  10.801  0.0759  0.1357  0.1304
 2296W        W18105   1.767   0.157   2.457 -0.5183  0.0431  0.0604
 2297W        W18106   3.702  16.136  12.925 -0.0833 -0.3026  0.0775
 2298W        W18107   7.559   6.905   4.083 -0.1220  0.0278 -0.1540
 2299W        W18108   0.377  16.415  13.705  0.2059 -0.0897  0.1987
 2300W        W18109   1.469   3.039  13.434 -0.1562 -0.0593 -0.3094
 2301W        W18110   6.458   2.036  15.066  0.2249 -0.0420 -0.0305
 2302W        W18111   2.140  15.973   5.246  0.1724  0.0930  0.2960
 2303W        W18112  11.649  11.344  14.728  0.1605  0.1008  0.0382
 2304W        W18113  11.413  17.762   1.108 -0.0303  0.2120 -0.1487
 2305W        W18114   5.481   1.551   0.705  0.1425 -0.1990  0.1503
 2306W        W18115   7.211  10.026   9.766  0.0133  0.1070 -0.0871
 2307W        W18116   9.050   4.389  11.019 -0.0853  0.1465 -0.3578
 2308W        W18117   1.302  12.319   3.301  0.1472 -0.1251 -0.0899
 2309W        W18118  11.978  13.196  14.457  0.0170 -0.3871 -0.3029
 2310W        W18119  13.387  10.862   0.022  0.4645  0.0731  0.2761
 2311W        W18120   8.913   0.325  14.976  0.1183 -0.0543 -0.1407
 2312W        W18121   9.370   3.976  13.352 -0.0035 -0.0370 -0.4033
 2313W        W18122   8.211  15.461  13.726  0.1639 -0.0288 -0.0831
 2314W        W18123   9.186  14.752   0.017  0.0065  0.1754  0.2284
 2315W        W18124   4.948   2.759   4.458 -0.1062 -0.2110  0.3353
 2316W        W18125  17.442  18.237  14.918 -0.3891 -0.1090 -0.1109
 2317W        W18126   0.690   1.315   4.882 -0.1038 -0.0897 -0.0289
 2318W        W18127   8.208  16.972   3.674 -0.0244 -0.1532 -0.0997
 2319W        W18128  14.188  18.633  14.768 -0.0539  0.3232 -0.3001
 2320W        W18129  12.774   2.268   0.809  0.2687  0.0674 -0.0641
 2321W        W18130  16.205   7.763   3.857 -0.3502  0.1006 -0.0051
 2322W        W18131   6.241   7.773   1.008  0.4255 -0.0363 -0.2080
 2323W        W18132  17.907   3.971   4.706  0.5383  0.0027  0.2224
 2324W        W18133   9.307  17.902   1.150  0.0503  0.3687  0.1997
 2325W        W18134  10.651   0.313  11.758 -0.1741 -0.3017  0.1031
 2326W        W18135  13.669   8.919   0.197  0.0977 -0.1290 -0.2876
 2327W        W18136   9.695  18.948   3.030  0.0494  0.0960 -0.2784
 2328W        W18137  10.683  16.912  12.796 -0.2119  0.0434 -0.1442
 2329W        W18138   3.611  14.130   2.636 -0.0830 -0.0103  0.1252
 2330W        W18139  14.539  15.729  11.862 -0.0876  0.2650  0.0022
 2331W        W18140   7.626   8.969   3.376 -0.1981 -0.2241 -0.0443
 2332W        W18141   0.596   2.601   2.241  0.1219  0.4453 -0.1948
 2333W        W18142   9.587  10.905   0.054 -0.2384 -0.0055 -0.0368
 2334W        W18143   1.825  17.360   2.946  0.1240  0.1592 -0.0424
 2335W        W18144   4.599  11.873  10.805  0.0155  0.4859 -0.3710
 2336W        W18145  13.061  10.005  13.415  0.1654 -0.0365  0.0370
 2337W        W18146  11.548   3.415  14.923 -0.2858  0.0531 -0.0459
 2338W        W18147   7.456   3.902   5.097 -0.1059 -0.2422 -0.2100
 2339W        W18148   4.510   1.790  11.369 -0.0409 -0.2202 -0.2975
 2340W        W18149  11.319   2.039   1.250  0.0023  0.1515 -0.1488
 2341W        W18150  15.628  10.335  13.254  0.2714 -0.0537  0.2216
 2342W        W18151   4.967   2.352  12.700 -0.0193 -0.1360 -0.2118
 2343W        W18152   9.515   1.783  13.215  0.2606  0.0396 -0.0154
 2344W        W18153   8.501   7.301  14.425  0.0581 -0.1438 -0.0724
 2345W        W18154   9.791   4.478  11.729 -0.0910  0.0059 -0.1684
 2346W        W18155   1.410   3.034  12.797  0.0031  0.3644  0.1063
 2347W        W18156   8.004   1.361   1.443 -0.0730 -0.0760  0.0074
 2348W        W18157   0.575   0.416   0.567  0.0680  0.1566 -0.1521
 2349W        W18158   4.588   3.890   3.245  0.1430 -0.0619 -0.1357
 2350W        W18159  12.611   0.002   0.281  0.0956  0.1105 -0.0114
 2351W        W18160   3.626   5.288  12.497  0.0932 -0.3168  0.2534
 2352W        W18161  18.209   0.890  11.407  0.2713 -0.0372 -0.0209
 2353W        W18162  17.242  14.403   2.950 -0.1159  0.0633  0.2626
 2354W        W18163   5.877   8.848  10.645  0.5632  0.0086  0.3062
 2355W        W18164   6.596   4.875  11.787 -0.1285  0.1462  0.0282
 2356W        W18165   9.873   9.939   4.564 -0.1759  0.0790 -0.0660
 2357W        W18166  13.876  18.170  12.981 -0.3357 -0.0635  0.1826
 2358W        W18167  17.684   3.755   2.427  0.4685  0.2485 -0.2785
 2359W        W18168   8.963   0.028   1.539  0.0428  0.3385  0.2346
 2360W        W18169   0.499   2.201   6.191 -0.0971 -0.3130  0.2238
 2361W        W18170   8.787  14.334  11.405  0.1656  0.2274 -0.0287
 2362W        W18171  18.689  16.531  12.665 -0.0847  0.0270  0.3227
 2363W        W18172   4.191  17.946  15.283  0.1632  0.1058  0.0278
 2364W        W18173  17.693  12.266  14.596  0.0015  0.0226  0.2436
 2365W        W18174  14.154  12.887   2.737 -0.0204 -0.0849  0.0678
 2366W        W18175  15.540  18.584   4.418 -0.0411 -0.2243 -0.0779
 2367W        W18176  15.647  10.006   1.796 -0.0976 -0.0715  0.1192
 2368W        W18177   1.885   2.705  11.084 -0.2057  0.1760 -0.0369
 2369W        W18178  11.780   3.114  15.255  0.0652 -0.1617  0.1164
 2370W        W18179   2.471  15.702   1.811  0.1161 -0.1541  0.0543
 2371W        W18180  15.137  14.928   3.688 -0.0546  0.0647  0.0301
 2372W        W18181   2.956  15.593   4.079 -0.3569  0.0199 -0.3201
 2373W        W18182  16.240   4.838  10.788  0.2265 -0.0807  0.1382
 2374W        W18183   9.030   4.436   2.604  0.0213 -0.4346  0.0020
 2375W        W18184  10.647   8.728   2.207  0.2141  0.0269  0.1722
 2376W        W18185   9.856   2.024   1.597 -0.0397 -0.0621  0.0198
 2377W        W18186  16.432  17.371  13.398  0.0785  0.0407  0.2011
 2378W        W18187  16.254  13.116   0.102  0.2451  0.1458  0.2950
 2379W        W18188   2.772   7.167   3.872 -0.0061  0.2204 -0.1492
 2380W        W18189  10.744   1.527  11.084  0.0499  0.0212 -0.1205
 2381W        W18190  12.348   9.196   2.949 -0.3492 -0.2471 -0.0774
 2382W        W18191  14.306  13.024  10.736 -0.0333 -0.0576 -0.1609
 2383W        W18192  12.707  12.781   0.240 -0.1464  0.0349 -0.3044
 2384W        W18193  12.527   1.659   3.037  0.0905 -0.2066  0.0217
 2385W        W18194   4.316  15.983   0.136 -0.0276  0.2288  0.1664
 2386W        W18195   5.598  15.749  14.007 -0.2461 -0.0217  0.1098
 2387W        W18196   7.364  12.832  13.789  0.1308 -0.2809  0.1862
 2388W        W18197   4.728   9.168  15.199 -0.5775 -0.1161  0.0288
 2389W        W18198  13.767   8.396   0.194 -0.0652 -0.1611 -0.2156
 2390W        W18199   2.678  14.954  12.781  0.1299 -0.0202  0.0628
 2391W        W18200  17.176  17.293  12.718  0.1716 -0.1927  0.1003
 2392W        W18201  18.772  10.995   3.156  0.2141 -0.0901 -0.2576
 2393W        W18202  15.539   2.615  13.841  0.2111  0.0901 -0.2250
 2394W        W18203  11.101   6.645  10.972 -0.0160 -0.0305  0.0741
 2395W        W18204   7.960   3.660  14.609  0.3239 -0.0344 -0.0600
 2396W        W18205  13.094  18.460   1.058  0.0837 -0.0557  0.3225
 2397W        W18206   1.282   0.426   2.471  0.1613  0.1990 -0.0502
 2398W        W18207   6.788  18.188  12.809 -0.0624 -0.1781  0.0090
 2399W        W18208  12.696  13.569   5.412  0.0638 -0.2884 -0.0952
 2400W        W18209   9.506   3.824   0.849  0.1108  0.0230  0.2613
 2401W        W18210   9.260  18.352  14.762 -0.4376 -0.1875  0.1239
 2402W        W18211   3.288   7.977   5.443  0.0590  0.0240  0.1514
 2403W        W18212  14.918   9.581   1.284  0.1849 -0.4381  0.0897
 2404W        W18213  17.363   4.914  11.094 -0.3053 -0.0467 -0.3193
 2405W        W18214   6.285   1.354   5.470 -0.2258 -0.2055  0.1389
 2406W        W18215   8.083  13.357  10.896 -0.0777 -0.4103 -0.2203
 2407W        W18216   9.774  18.086   3.205 -0.2035  0.3822  0.0010
 2408W        W18217  14.322   8.212  12.859 -0.1860  0.1022 -0.1071
 2409W        W18218   9.762   9.285  11.536  0.1053  0.3401 -0.0538
 2410W        W18219   6.481   6.474   3.728  0.3030  0.0595  0.0999
 2411W        W18220  16.230   7.262   5.178 -0.3396  0.2435  0.0248
 2412W        W18221   3.651  18.919   4.625  0.3890 -0.2063 -0.1817
 2413W        W18222   7.621  14.029  13.963  0.1412 -0.0500 -0.0025
 2414W        W18223  12.183   2.384   2.470 -0.0658  0.1627  0.1161
 2415W        W18224  17.006  16.060   4.761 -0.2144  0.2193 -0.0461
 2416W        W18225  18.335   0.343  12.758  0.2750 -0.1986  0.0185
 2417W        W18226  17.329   3.538  14.144  0.0665  0.2008  0.2165
 2418W        W18227   2.639  17.492  11.462 -0.1762  0.1575 -0.0270
 2419W        W18228   2.635  11.032   2.359  0.2674  0.2887 -0.0668
 2420W        W18229   5.088   0.462  15.121  0.3525 -0.0548  0.0645
 2421W        W18230   6.972  10.558  13.650 -0.0407 -0.1056  0.1998
 2422W        W18231  11.624  15.213   2.625  0.3859 -0.0589  0.2870
 2423W        W18232  17.720   1.224   5.587  0.3115  0.0248  0.0911
 2424W        W18233  16.082  17.040  13.613 -0.0189 -0.3445  0.2206
 2425W        W18234  15.496  18.324  13.024 -0.1673  0.1830 -0.2464
 2426W        W18235   4.950  11.894   9.859 -0.0817 -0.2203  0.0373
 2427W        W18236  14.145   2.132   1.040  0.0311  0.2696 -0.4139
 2428W        W18237  12.372   5.662   4.354  0.0009  0.0178 -0.1765
 2429W        W18238   1.840  18.154   2.664  0.0589  0.2791  0.0739
 2430W        W18239  11.189   0.410   3.928  0.0402  0.0269  0.0757
 2431W        W18240  15.728  10.011   3.040 -0.1508 -0.1525 -0.0550
 2432W        W18241  15.834  17.599   2.063 -0.0607 -0.2144 -0.4045
 2433W        W18242  17.001   7.493   0.361 -0.2685 -0.1474  0.0887
 2434W        W18243  13.725   6.600   4.890  0.2509  0.1354  0.1657
 2435W        W18244   9.223  12.883  12.059 -0.1977 -0.0538 -0.2483
 2436W        W18245  13.257   0.339   1.604  0.0199 -0.1607 -0.5013
 2437W        W18246   0.494   6.971   0.205  0.1106  0.3894 -0.0169
 2438W        W18247  16.312   1.033   0.892  0.1366  0.2543 -0.1608
 2439W        W18248   0.807  17.316  13.181 -0.1205 -0.1475  0.1610
 2440W        W18249   7.074   8.326   3.656  0.1760 -0.2503  0.0775
 2441W        W18250   6.516  11.849   1.381 -0.2179  0.3392 -0.0784
 2442W        W18251  15.046   0.560   2.582  0.0661  0.0729  0.0457
 2443W        W18252   5.052  16.843  13.955  0.1130 -0.1052 -0.0251
 2444W        W18253   9.693  10.778   4.415  0.1876  0.0213  0.2649
 2445W        W18254  19.009  16.403   5.050 -0.0694  0.0590  0.0610
 2446W        W18255   3.286  17.455  11.644  0.4170  0.1537 -0.1543
 2447W        W18256   8.883  13.617  15.081 -0.0353  0.0821 -0.1158
 2448W        W18257   0.790  17.407  10.387 -0.0214 -0.0028  0.5487
 2449W        W18258  14.067   0.874  11.473  0.1712  0.1854  0.3163
 2450W        W18259  13.405   7.486   4.315 -0.0593  0.1815 -0.0558
 2451W        W18260   3.993   2.473  11.330 -0.2802 -0.1978  0.4016
 2452W        W18261   9.206   9.417  13.899 -0.0569 -0.0451 -0.0535
 2453W        W18262  17.366   3.344  12.296 -0.0096 -0.2500 -0.0747
 2454W        W18263   6.306   9.557  10.104 -0.0153  0.1475  0.0014
 2455W        W18264   2.713   2.897  10.602 -0.1274 -0.1177  0.0077
 2456W        W18265   9.364   6.300   1.282 -0.0855 -0.0292 -0.1346
 2457W        W18266  17.041   4.275   1.122  0.0163 -0.0958 -0.0028
 2458W        W18267  11.961   4.239   4.398 -0.2991 -0.0503  0.1918
 2459W        W18268  11.411   8.593  14.920 -0.0939 -0.0300 -0.4573
 2460W        W18269   3.627  14.035   2.131 -0.3510  0.1447  0.0219
 2461W        W18270   6.146  17.369   2.227  0.2164  0.0911  0.1801
 2462W        W18271  14.587   3.234   3.299 -0.0045 -0.1152  0.2639
 2463W        W18272   2.632   2.189   1.841  0.0438 -0.0648 -0.1680
 2464W        W18273   8.837   2.671   0.074  0.0872  0.0193 -0.0254
 2465W        W18274  18.889   9.579   3.863  0.0534  0.1327 -0.3243
 2466W        W18275  18.034   3.943   3.002  0.0341 -0.0374 -0.2563
 2467W        W18276   7.175  17.879   0.049 -0.1675  0.2238  0.0384
 2468W        W18277   7.970   0.636  13.143  0.4774 -0.1723 -0.0020
 2469W        W18278  11.332   6.132  14.888 -0.1946  0.3316  0.1707
 2470W        W18279   9.545  13.394   4.394  0.0921 -0.0993 -0.1352
 2471W        W18280  10.326   8.587  12.849 -0.1348 -0.3099  0.0347
 2472W        W18281   2.827  17.304   4.522 -0.3870  0.2955 -0.0801
 2473W        W18282   5.196  10.986  14.549 -0.4919 -0.0195  0.1588
 2474W        W18283   7.741   2.740  12.095 -0.2650  0.2461  0.0595
 2475W        W18284  12.397  11.886   2.470  0.0104 -0.0227 -0.1547
 2476W        W18285  13.605  13.851  11.414 -0.3106  0.0351 -0.0960
 2477W        W18286   7.134   6.438   3.123  0.4171 -0.0843 -0.1723
 2478W        W18287  16.158   2.861   0.546 -0.0586 -0.0318  0.0247
 2479W        W18288  14.350   7.675  14.365 -0.1450  0.0458  0.1526
 2480W        W18289   4.512   8.588  11.054 -0.0797 -0.1476 -0.1430
 2481W        W18290  13.182   0.817   1.541 -0.2122 -0.0812 -0.2170
 2482W        W18291  15.728  11.715   1.274  0.2416 -0.1157 -0.3083
 2483W        W18292   0.530   2.349  13.051  0.1285  0.2090  0.1411
 2484W        W18293  10.103  16.066   2.379  0.1197  0.3187 -0.1411
 2485W        W18294   6.852  17.169   0.671  0.0312 -0.1087 -0.0625
 2486W        W18295   5.292  17.284  14.034  0.0749  0.0029  0.3741
 2487W        W18296  10.675  16.305   3.933 -0.2013 -0.0033  0.2594
 2488W        W18297   4.196  18.028   3.098 -0.0909 -0.0425 -0.2856
 2489W        W18298  15.526  10.285  11.965 -0.2285  0.3665 -0.0918
 2490W        W18299  11.079  14.018   3.663 -0.3473 -0.1363  0.0516
 2491W        W18300  12.348  17.284   1.137 -0.0340 -0.1953 -0.4694
 2492W        W18301  10.798   6.649  12.927 -0.0042 -0.1437  0.0442
 2493W        W18302  12.713  16.214   0.627 -0.0755  0.0268 -0.3087
 2494W        W18303   6.587  11.268   2.691  0.0074 -0.0555  0.0683
 2495W        W18304   8.139   5.048  14.402  0.0571 -0.3466  0.0190
 2496W        W18305   7.798   2.790   9.434 -0.0564 -0.0670  0.0603
 2497W        W18306  10.136   9.748   1.378 -0.0467  0.1728  0.0110
 2498W        W18307   2.410  10.786   3.858  0.3743  0.1036 -0.0618
 2499W        W18308  13.219   6.587   3.354  0.0829  0.1686 -0.0294
 2500W        W18309   4.907  11.951  15.035 -0.1289  0.0650 -0.3062
 2501W        W18310  15.500  10.771  12.876  0.1366  0.0770 -0.3096
 2502W        W18311   8.601   7.770   4.091  0.2797  0.1120  0.2752
 2503W        W18312   6.319   0.941  13.219 -0.2485  0.1956 -0.2248
 2504W        W18313   0.739   3.443   2.838 -0.0168  0.0503  0.1411
 2505W        W18314   3.370   2.668   3.791  0.0146 -0.1750 -0.4427
 2506W        W18315   0.245   7.304  10.532 -0.1862 -0.1847 -0.3529
 2507W        W18316  14.705   5.327  12.992 -0.0267  0.3784 -0.0311
 2508W        W18317  12.440   9.399  14.740  0.4149 -0.0367 -0.1022
 2509W        W18318   6.893  13.537   2.647  0.1071 -0.0048 -0.1253
 2510W        W18319  14.611   2.348  12.665 -0.0130 -0.0126 -0.1003
 2511W        W18320  13.236  10.852   2.019 -0.2830  0.1492 -0.0045
 2512W        W18321  13.663  14.742   5.097 -0.5393  0.1252  0.1087
 2513W        W18322  18.075  14.651   2.611  0.1099 -0.0150  0.0250
 2514W        W18323  14.332   6.940  15.044 -0.1310  0.1776  0.1841
 2515W        W18324  11.686   2.190   2.696  0.2988 -0.0872 -0.0967
 2516W        W18325   0.453   9.013   4.281 -0.2998 -0.1547 -0.2874
 2517W        W18326  12.110  18.881   1.660  0.1769 -0.0352  0.2275
 2518W        W18327   9.665   2.623  15.136  0.0640  0.0029  0.1157
 2519W        W18328  12.295  18.314   4.615  0.0726 -0.0508 -0.2982
 2520W        W18329   1.292   5.492   0.806 -0.1610  0.1202  0.0878
 2521W        W18330   8.458   3.512  11.990 -0.0570  0.2097  0.2248
 2522W        W18331   5.991  18.989  11.173 -0.2173 -0.0325 -0.3529
 2523W        W18332  17.518   6.568   2.844 -0.1018 -0.0765 -0.0744
 2524W        W18333   5.385   2.495   1.978  0.0397  0.1014 -0.0074
 2525W        W18334  12.606  13.416  11.914  0.0178  0.2040 -0.1768
 2526W        W18335   0.698   1.816  12.943  0.3190 -0.1525 -0.2852
 2527W        W18336   8.205   5.562  14.318  0.0749  0.1321  0.1599
 2528W        W18337   8.118  17.477   1.035  0.1843  0.1635  0.1408
 2529W        W18338   3.552   8.448   1.917  0.2424 -0.1423 -0.1417
 2530W        W18339   3.092  15.443   0.033  0.2859 -0.2740 -0.1222
 2531W        W18340   1.533   5.443  14.501  0.3419 -0.0295  0.0998
 2532W        W18341   5.687  15.746   0.452 -0.5396  0.1679 -0.1958
 2533W        W18342   7.881   3.163   2.644  0.1740 -0.2916  0.0947
 2534W        W18343   4.194   0.556  10.328  0.0964  0.2452  0.1908
 2535W        W18344  10.014  10.645   3.976 -0.2578 -0.2398 -0.0162
 2536W        W18345  10.885  18.766  11.055  0.2302  0.1564  0.0573
 2537W        W18346   0.350   2.566  12.004 -0.2095  0.0479  0.2048
 2538W        W18347   1.381  18.547   4.416  0.1555  0.2269 -0.0194
 2539W        W18348  18.932  16.546  13.973 -0.3354  0.0633 -0.2980
 2540W        W18349  16.429  16.734   4.034  0.4932 -0.2268  0.0864
 2541W        W18350  12.829   0.980   4.949  0.0806  0.0482 -0.1736
 2542W        W18351  18.065   7.884   1.926  0.1959 -0.1419  0.0082
 2543W        W18352  11.647   4.787   1.335 -0.1282  0.0392  0.0264
 2544W        W18353  13.830  17.364   4.065  0.0815  0.5863  0.0533
 2545W        W18354   4.556  13.105   9.083  0.0126 -0.1321 -0.0207
 2546W        W18355   4.499   1.489  14.620  0.0997  0.1279 -0.2670
 2547W        W18356   4.080   8.878  10.795  0.1087  0.0437 -0.1380
 2548W        W18357  17.683   2.753   4.721 -0.1126  0.2513  0.2731
 2549W        W18358   2.868   6.594   3.035 -0.2305  0.4278  0.1812
 2550W        W18359   9.698  14.951  14.378 -0.1401 -0.0807  0.1613
 2551W        W18360   3.765  17.978   1.168  0.1912  0.1410  0.2626
 2552W        W18361   6.462   5.461  15.063  0.2006 -0.0818  0.1378
 2553W        W18362  16.446  16.156  13.301  0.3471 -0.2424  0.1922
 2554W        W18363  10.852  10.924  13.545 -0.1502  0.1295 -0.0860
 2555W        W18364  18.412   8.734   3.731 -0.0360 -0.0297  0.0482
 2556W        W18365   4.048  15.231   2.981 -0.1299 -0.0067 -0.2292
 2557W        W18366  11.038  18.611  10.038 -0.1440  0.0917  0.2920
 2558W        W18367   5.729  13.784  12.003 -0.2886 -0.3023  0.2160
 2559W        W18368   4.018  11.231  10.396  0.0950 -0.2241 -0.0700
 2560W        W18369   5.004   3.144   3.237  0.0850 -0.0268 -0.0118
 2561W        W18370  11.096   0.170   1.325 -0.0469  0.2219  0.0251
 2562W        W18371   2.641  15.953  14.919  0.0099  0.3097  0.0529
 2563W        W18372  13.505   9.045   3.880  0.0571  0.1661  0.3082
 2564W        W18373  16.539   1.843   5.146  0.0065  0.1232 -0.3100
 2565W        W18374   5.565   8.617  14.394 -0.1166 -0.0408 -0.1861
 2566W        W18375   3.506   0.889  13.671  0.1938 -0.2052 -0.3253
 2567W        W18376   5.776  13.032   0.034 -0.2474  0.3012 -0.1154
 2568W        W18377   6.564   0.043   0.452 -0.1681 -0.3716  0.2743
 2569W        W18378  13.162  13.842  13.861  0.1348  0.4757 -0.2606
 2570W        W18379   4.483  17.954  13.307 -0.0489  0.2473  0.2463
 2571W        W18380  12.990   6.540   1.633 -0.1866 -0.1487  0.0434
 2572W        W18381   7.361   6.553   3.676  0.0394 -0.3094 -0.2033
 2573W        W18382   3.085   0.828   5.407 -0.1742  0.0997 -0.0234
 2574W        W18383   9.434  18.237   3.542  0.0880 -0.0976 -0.0206
 2575W        W18384  16.347  16.708   4.947  0.1424  0.1830  0.0800
 2576W        W18385  18.431  15.212   3.120 -0.0023  0.4013  0.2138
 2577W        W18386  13.580  18.655   0.835 -0.1505  0.1623  0.2353
 2578W        W18387  15.049  18.757   0.455  0.0447  0.0804  0.2404
 2579W        W18388   8.182   7.365  10.859  0.1346 -0.0012 -0.0069
 2580W        W18389   6.749   5.704  13.139 -0.0900  0.3406 -0.1627
 2581W        W18390   7.161   9.624  10.457 -0.2789 -0.4257 -0.0557
 2582W        W18391   8.182   6.968  11.266  0.2500 -0.2476  0.0285
 2583W        W18392   4.979  17.651  14.981  0.0119  0.4676  0.0449
 2584W        W18393  14.814  18.169   4.462  0.2433  0.2038 -0.0727
 2585W        W18394  17.009   6.950  11.641 -0.1417 -0.2065  0.4048
 2586W        W18395  15.302   9.114  15.246  0.3170 -0.2906  0.1372
 2587W        W18396   9.950  10.966  14.955  0.2117  0.1075 -0.1563
 2588W        W18397  17.315   8.970   3.276 -0.0922 -0.1246 -0.0662
 2589W        W18398   3.470   4.479   1.339  0.1255 -0.2569  0.1481
 2590W        W18399   9.179  18.252  10.438 -0.1701  0.4548  0.1395
 2591W        W18400   0.112   8.071  12.022  0.1398  0.0638 -0.1891
 2592W        W18401   0.819   3.034   0.270  0.0261  0.2215  0.1636
 2593W        W18402  12.378  13.153  13.887  0.4408  0.1017  0.1210
 2594W        W18403   1.348  13.624   2.518 -0.2489 -0.3124  0.3863
 2595W        W18404  12.720  12.587   0.756  0.0298 -0.0869  0.1443
 2596W        W18405  13.705   0.033  12.165 -0.2170  0.0369 -0.0291
 2597W        W18406  11.210  10.494   3.052 -0.2414 -0.1259 -0.0163
 2598W        W18407  16.030   8.606  12.139  0.1645 -0.2180  0.0355
 2599W        W18408  10.400   5.235  13.368 -0.2390  0.2355 -0.1295
 2600W        W18409  13.323   3.138   5.061  0.0125  0.2834  0.0580
 2601W        W18410   6.498   0.438  13.764 -0.1069  0.3684 -0.2162
 2602W        W18411   0.020   4.452  13.867 -0.1303  0.2992  0.0466
 2603W        W18412  12.426   6.940   0.018 -0.3314  0.2039 -0.3386
 2604W        W18413  12.878   8.566  13.589  0.3719  0.0795 -0.0687
 2605W        W18414   1.094  18.381  14.269  0.3950 -0.2529 -0.0211
 2606W        W18415   6.752  13.292  11.189  0.0469  0.3060 -0.1480
 2607W        W18416   5.715   7.403  11.671 -0.0608  0.2913 -0.0523
 2608W        W18417   8.733   2.752   3.295  0.2193 -0.0170 -0.2606
 2609W        W18418  13.311  16.685  12.783 -0.2392 -0.2123 -0.2669
 2610W        W18419  18.205   1.697  12.855 -0.3222 -0.0400  0.5418
 2611W        W18420   9.943   2.510   3.629 -0.0939  0.0389  0.1390
 2612W        W18421  14.446  16.944  13.645 -0.1841 -0.2749  0.3041
 2613W        W18422  13.628  17.697   3.070  0.2083 -0.1523  0.1913
 2614W        W18423  10.265  12.988  11.646  0.0369 -0.0613 -0.0118
 2615W        W18424  10.766  14.119   2.437 -0.0134 -0.5330  0.0942
 2616W        W18425  12.401  13.286   3.235 -0.0020 -0.1160 -0.1703
 2617W        W18426  10.557  12.919   4.009 -0.0939 -0.0503  0.0690
 2618W        W18427   7.630  17.893  14.431 -0.2640 -0.1216  0.1425
 2619W        W18428   2.114  17.890  13.513 -0.3764  0.0316 -0.0617
 2620W        W18429  12.529   1.208   4.493  0.0382  0.0882 -0.3164
 2621W        W18430  11.615   5.907  10.160  0.0264 -0.1018 -0.0454
 2622W        W18431   8.018  12.204   2.711  0.0956  0.0301 -0.1095
 2623W        W18432   2.205   6.974  12.472 -0.1316 -0.0250  0.0471
 2624W        W18433  15.956   7.187  13.348  0.0502 -0.0392  0.1486
 2625W        W18434  15.169  16.062   1.948  0.0636 -0.0415  0.0712
 2626W        W18435   8.255   6.769   2.313  0.2257  0.0438 -0.2041
 2627W        W18436  12.917   9.956  11.190  0.2510  0.3059 -0.1218
 2628W        W18437  13.700  15.171  11.659  0.3263 -0.2584  0.0977
 2629W        W18438   1.974  13.651  15.082  0.2073  0.2153  0.1156
 2630W        W18439  11.599  14.638  11.875 -0.2016 -0.1971  0.2439
 2631W        W18440   7.177   9.789  13.852 -0.1992 -0.0638  0.1552
 2632W        W18441  13.020  15.142  13.737 -0.0325  0.0871  0.0080
 2633W        W18442   5.148   1.320   4.679 -0.0394  0.2318 -0.1726
 2634W        W18443  16.911   7.589  12.330 -0.1637  0.0262 -0.2594
 2635W        W18444  10.597   1.592  11.558 -0.0270  0.1621  0.3301
 2636W        W18445   0.543  10.725   3.418  0.0198 -0.5995 -0.2053
 2637W        W18446   4.252  10.781  10.527 -0.3796  0.1732 -0.2572
 2638W        W18447  17.565   5.237  11.457  0.2827  0.0275 -0.1652
 2639W        W18448  16.670  10.109   0.415  0.0398 -0.3758 -0.0784
 2640W        W18449  18.663   1.708   0.732  0.1278 -0.2070  0.2405
 2641W        W18450   5.635  10.686   4.852  0.3504 -0.1967  0.1370
 2642W        W18451  18.940  10.711   4.880 -0.2100 -0.2940  0.1390
 2643W        W18452  13.163  14.334   2.953  0.0925  0.0419 -0.0436
 2644W        W18453   9.195  15.092  10.304 -0.2760 -0.0405 -0.0036
 2645W        W18454  17.952   7.224  13.850  0.0547 -0.0682  0.1256
 2646W        W18455   8.130   3.357   3.808 -0.0380  0.0226 -0.1011
 2647W        W18456  11.718  10.373   5.106 -0.0795  0.3079  0.3810
 2648W        W18457   0.071  18.491   4.360 -0.1628 -0.2066 -0.4021
 2649W        W18458  12.339   4.074   0.740 -0.2474 -0.1481  0.2057
 2650W        W18459   1.835   6.875  13.855  0.1488  0.3298  0.0682
 2651W        W18460   1.743  12.424  12.104  0.2641  0.0066  0.2650
 2652W        W18461   6.760   6.361  10.565 -0.0834 -0.3132 -0.2534
 2653W        W18462  15.881  10.684  10.161 -0.1979 -0.0780 -0.1107
 2654W        W18463  10.060  13.242  12.257 -0.2897  0.4534  0.1531
 2655W        W18464  18.596   3.072  14.818  0.0505 -0.0046 -0.2017
 2656W        W18465   5.105   5.434   2.650 -0.1925  0.1084 -0.0905
 2657W        W18466  18.868  10.616   0.283 -0.1126 -0.3813 -0.0874
 2658W        W18467  12.695  12.088  13.788 -0.3374  0.1528 -0.0162
 2659W        W18468   9.029   0.098  14.159 -0.0951  0.1784 -0.1419
 2660W        W18469  10.104   7.358  15.164 -0.0033 -0.1321  0.2230
 2661W        W18470   9.766   1.067   0.454 -0.1690 -0.4682 -0.0359
 2662W        W18471  18.469  18.945   0.228  0.1577  0.0666 -0.2377
 2663W        W18472   1.352  10.139   3.329  0.3005  0.1009 -0.1035
 2664W        W18473   5.354   7.027   5.769 -0.0996  0.1410 -0.3222
 2665W        W18474   1.389  11.973  10.912 -0.0389  0.0403  0.0774
 2666W        W18475   5.433   1.085   1.010 -0.1732  0.0653 -0.0150
 2667W        W18476   2.307   0.759   1.547  0.1245  0.1472  0.0641
 2668W        W18477   5.964  15.840   3.834 -0.1239  0.2829  0.1361
 2669W        W18478   5.953  16.344   4.149  0.0914 -0.0097 -0.0237
 2670W        W18479  13.166  13.503   5.453 -0.2144  0.0096  0.0318
 2671W        W18480  14.456   3.857   4.685  0.0559  0.0839 -0.0261
 2672W        W18481   6.967   4.557   4.276  0.3333  0.1465 -0.2400
 2673W        W18482   2.835   1.563   1.564  0.1834  0.0907  0.2229
 2674W        W18483   9.482  11.060  14.804 -0.1172  0.1162  0.2826
 2675W        W18484   2.921  18.480  10.362  0.1017  0.0051  0.1872
 2676W        W18485  12.904   8.695  11.824  0.0724  0.1101  0.0384
 2677W        W18486  10.818  11.688   4.868 -0.0939 -0.0825  0.1018
 2678W        W18487   8.849  13.020  10.395  0.1038  0.3072 -0.0312
 2679W        W18488  15.798  13.331   1.488 -0.1101  0.2626  0.1515
 2680W        W18489   8.257  10.222  12.789 -0.1287  0.4500 -0.0631
 2681W        W18490   9.277   6.979   0.743  0.2609 -0.0101  0.1902
 2682W        W18491  18.487  17.185  11.496 -0.2071  0.0014  0.2033
 2683W        W18492  12.139   8.359   0.742 -0.0089  0.2553 -0.1326
 2684W        W18493   7.238   5.930  14.520  0.1105  0.3137 -0.0663
 2685W        W18494   0.634   8.979   4.753 -0.1049  0.0979  0.2488
 2686W        W18495   2.391   4.652  15.128 -0.0782 -0.1747  0.2196
 2687W        W18496   6.710   1.237   1.723  0.0171 -0.0965  0.0262
 2688W        W18497  10.778  17.437  14.934  0.0674  0.0557 -0.1200
 2689W        W18498   6.923  11.828   3.263 -0.0616  0.0099  0.0761
 2690W        W18499   0.380  11.443  12.041 -0.1532 -0.0503 -0.0694
 2691W        W18500   0.440   0.286  14.902  0.0406 -0.0768 -0.6436
 2692W        W18501  11.625   7.695  13.960  0.1455  0.0481  0.0995
 2693W        W18502  10.444  17.586   2.755 -0.1791 -0.0574 -0.1452
 2694W        W18503   9.149  11.675  11.810  0.0252  0.1671  0.2242
 2695W        W18504   1.836   4.021  11.398 -0.2030  0.2279 -0.1070
 2696W        W18505   2.597  11.286   0.181  0.0335  0.1604 -0.3248
 2697W        W18506   5.965  12.337  14.474  0.0339 -0.1405 -0.0482
 2698W        W18507  15.759   9.968  11.016 -0.1112  0.3418  0.1068
 2699W        W18508   8.993   8.730   5.096 -0.1263 -0.2319  0.0706
 2700W        W18509  16.667  13.706   3.240 -0.4210  0.0151 -0.0966
 2701W        W18510  12.664   1.354  10.671 -0.3033 -0.2547  0.0082
 2702W        W18511   4.555   8.961  11.476  0.0706 -0.1077  0.2395
 2703W        W18512   0.177   1.887   2.642  0.1181 -0.4207  0.1560
 2704W        W18513  13.773  11.513  13.659 -0.1750  0.1748  0.1033
 2705W        W18514  10.461  13.660   0.484 -0.2569  0.0052  0.3127
 2706W        W18515   8.737  10.671  10.943 -0.0522  0.1864  0.0305
 2707W        W18516  10.522  16.751   2.917  0.0508 -0.2493  0.0961
 2708W        W18517   4.261  16.980  11.553  0.3117  0.2249  0.2390
 2709W        W18518   8.478  13.174   3.663  0.0646  0.0655 -0.0084
 2710W        W18519   1.433   7.955  13.833  0.1569 -0.1921  0.1182
 2711W        W18520   8.525  16.791  15.251 -0.2016  0.0674 -0.0842
 2712W        W18521   0.556  13.379  12.700 -0.0147  0.4011  0.1320
 2713W        W18522   6.183  18.663  14.678  0.0126 -0.1562  0.0555
 2714W        W18523   4.035  14.509   9.845 -0.2925 -0.1742 -0.1449
 2715W        W18524   6.780  16.169   4.841 -0.0506  0.2562 -0.0148
 2716W        W18525  16.152   0.090   9.969  0.1680 -0.0266 -0.1922
 2717W        W18526   2.193  13.946  10.703 -0.3289  0.0690  0.0846
 2718W        W18527   4.176  11.554  12.886 -0.1478  0.0587  0.0425
 2719W        W18528  10.217  13.192  11.164 -0.2309 -0.0658  0.0972
 2720W        W18529  16.012   6.697   2.574 -0.1190 -0.1572  0.0082
 2721W        W18530  15.410   9.958   0.256 -0.3450  0.0805 -0.2327
 2722W        W18531   8.183   3.116   1.052 -0.0589  0.0465  0.3182
 2723W        W18532  15.415   4.863  15.088  0.2692 -0.0429  0.1096
 2724W        W18533   8.607  12.312   0.683 -0.1806 -0.2472 -0.1411
 2725W        W18534   3.113   2.636   2.506  0.1063  0.2561 -0.4416
 2726W        W18535   2.700   4.529   3.177 -0.0576  0.2700 -0.0717
 2727W        W18536   2.666   6.253   3.978 -0.4556  0.0743 -0.1314
 2728W        W18537   2.148   9.253   4.736 -0.3744  0.3982 -0.0178
 2729W        W18538   3.156  11.648  11.513  0.0988 -0.0466  0.0267
 2730W        W18539   6.501  17.216  11.053  0.0962  0.3199  0.0855
 2731W        W18540   9.248  13.706   1.866 -0.1014  0.3097  0.2516
 2732W        W18541  10.557   5.765  12.839  0.0181  0.2297 -0.2039
 2733W        W18542  13.057  16.745  13.605 -0.1915 -0.0563  0.3445
 2734W        W18543   7.152   3.402   2.134  0.1094 -0.2412  0.1762
 2735W        W18544  12.688  10.030  15.288  0.2556  0.2132  0.1936
 2736W        W18545  12.462  10.553   3.026  0.2370  0.1045 -0.1548
 2737W        W18546  12.189  14.211   1.372 -0.0569 -0.2841 -0.4155
 2738W        W18547   1.688  16.892  11.627 -0.2448  0.3330 -0.0663
 2739W        W18548  15.396  10.917  15.134  0.0672 -0.2717 -0.2746
 2740W        W18549  15.231   6.923  14.531  0.1204 -0.2881  0.0847
 2741W        W18550   7.896  14.772   5.088 -0.0039  0.1926  0.0754
 2742W        W18551   9.504   8.612   0.460 -0.2058  0.1335 -0.0179
 2743W        W18552   0.495   5.044  10.387 -0.0026 -0.0654 -0.0409
 2744W        W18553  17.653   3.709   3.821 -0.1090 -0.6462  0.1221
 2745W        W18554  18.054   0.438  11.308 -0.1320  0.1853  0.1342
 2746W        W18555  15.702  18.526   2.689 -0.0578 -0.3588 -0.0059
 2747W        W18556   9.463   1.092   2.303  0.1266 -0.2420 -0.1780
 2748W        W18557   4.625   8.144   1.867 -0.0943  0.1316 -0.0441
 2749W        W18558   8.805  17.413   4.259 -0.0533 -0.1309 -0.0840
 2750W        W18559  17.381  12.536   1.452  0.1841  0.1282 -0.0503
 2751W        W18560   2.147  12.273   3.741  0.1742  0.3892  0.1945
 2752W        W18561   4.952  12.860  10.331  0.0930  0.2429 -0.0366
 2753W        W18562   1.072   4.219   2.194 -0.1768  0.0319 -0.1423
 2754W        W18563  16.983   0.401   2.738 -0.3614 -0.0093  0.0783
 2755W        W18564  16.535   5.123   4.097  0.0694  0.1650 -0.0493
 2756W        W18565  15.306   3.345   3.357  0.2612  0.1599 -0.1923
 2757W        W18566   5.273   8.365   3.696  0.0591 -0.2654 -0.2849
 2758W        W18567   2.530   2.612  13.352 -0.3431 -0.0392  0.0406
 2759W        W18568  16.591  12.418   3.397 -0.0430  0.1968  0.4430
 2760W        W18569   3.624  16.678  10.754  0.0199 -0.0855 -0.1848
 2761W        W18570   5.895   0.882   4.536 -0.0569  0.0862 -0.0092
 2762W        W18571   6.245   7.030   2.185 -0.0146  0.1504 -0.0931
 2763W        W18572   7.031   4.589   0.150  0.0538  0.2681  0.1236
 2764W        W18573   4.275   5.630   4.422 -0.0126 -0.0926  0.2349
 2765W        W18574   2.220  18.646   5.025 -0.0108  0.2106  0.0712
 2766W        W18575  12.866   6.521  13.242  0.1803  0.1852  0.0571
 2767W        W18576   2.500   9.427  11.912 -0.4445 -0.0118  0.0208
 2768W        W18577   6.921   5.333   4.604  0.1791  0.1317  0.3316
 2769W        W18578  15.705   6.079   4.702 -0.0131 -0.0771  0.4186
 2770W        W18579  16.427  15.550  11.638  0.1574  0.1684 -0.2651
 2771W        W18580   9.779  12.965   4.037 -0.2508 -0.0009 -0.1443
 2772W        W18581  11.869   9.349   2.277  0.3064 -0.1430 -0.0089
 2773W        W18582   4.361  11.977  13.567 -0.3706  0.2696  0.3044
 2774W        W18583   9.029  14.045  14.532 -0.2647 -0.0910  0.1054
 2775W        W18584  11.942   7.513  13.401  0.2776  0.1549 -0.0639
 2776W        W18585   1.794   5.542  13.587 -0.1297  0.0124 -0.3497
 2777W        W18586   5.910  13.455   5.431  0.0381 -0.2473 -0.1088
 2778W        W18587  11.081   2.591  11.712  0.1408 -0.0483 -0.4896
 2779W        W18588  10.779   2.059  13.782 -0.2605 -0.3340  0.2305
 2780W        W18589  13.718   9.981  10.969  0.4260 -0.2856  0.2273
 2781W        W18590   1.589   6.397  11.273 -0.1255  0.3977  0.1877
 2782W        W18591   6.499  10.098  10.857 -0.1245  0.1162  0.0974
 2783W        W18592   0.102   2.629   1.201 -0.0664  0.0216 -0.0839
 2784W        W18593  17.334   6.680   2.393 -0.1203  0.3178  0.0062
 2785W        W18594   2.952   2.693   4.342 -0.0568  0.1876 -0.1849
 2786W        W18595   7.379   5.098   2.234 -0.0452  0.2488 -0.1251
 2787W        W18596  14.025  11.251  11.175 -0.0010  0.0594  0.1170
 2788W        W18597   1.723   8.164  12.237 -0.2875 -0.1478 -0.0725
 2789W        W18598   6.709   9.058  13.653 -0.2999 -0.1628 -0.0914
 2790W        W18599  17.932  17.016   5.414 -0.1677  0.0645 -0.0290
 2791W        W18600   6.574  14.361   4.332 -0.2642 -0.2768  0.3580
 2792W        W18601   3.069  10.730   0.540  0.4046 -0.3176  0.1530
 2793W        W18602   4.943   6.115   0.042 -0.0252 -0.2782 -0.0500
 2794W        W18603  18.359   8.499   1.434  0.1301  0.3734 -0.2020
 2795W        W18604  15.783   4.778  11.383 -0.1871  0.0032 -0.1285
 2796W        W18605  18.331  12.298   5.990  0.0515 -0.2009  0.1526
 2797W        W18606  16.163   6.263  10.801  0.2872 -0.0710 -0.0564
 2798W        W18607  17.225  12.952   4.281 -0.0682  0.0328 -0.0795
 2799W        W18608  16.297  10.417  14.882  0.2246  0.1201  0.0151
 2800W        W18609   8.840  15.341  15.242  0.0807 -0.1170 -0.0286
 2801W        W18610   4.946   5.696  10.440  0.0646  0.0997 -0.2176
 2802W        W18611  12.510  11.912   9.460  0.0181  0.2471  0.1179
 2803W        W18612   6.209  15.775   0.665 -0.0978 -0.0228 -0.2344
 2804W        W18613  15.060  12.177  10.206  0.4273 -0.0585 -0.4277
 2805W        W18614   2.848  14.070  13.212 -0.0675  0.1222  0.1883
 2806W        W18615   0.044  13.205  11.879  0.0391  0.0281  0.2127
 2807W        W18616  10.648  14.366   2.912 -0.2170 -0.0520 -0.0004
 2808W        W18617  12.356   9.358  11.190 -0.1827  0.0091  0.0488
 2809W        W18618  15.771   6.879   0.468 -0.4382 -0.2889 -0.0480
 2810W        W18619  11.944   4.914  11.842  0.0043  0.3291 -0.0391
 2811W        W18620   4.340   3.492   4.282 -0.0763 -0.1267  0.0782
 2812W        W18621  18.121   2.675   3.034 -0.2193  0.1785 -0.3811
 2813W        W18622   6.856  16.387   4.373  0.2336  0.0817  0.0289
 2814W        W18623  15.371  13.125  15.035  0.0282  0.0182 -0.0147
 2815W        W18624   2.483   5.167   1.186 -0.0702 -0.0607  0.0249
 2816W        W18625  15.734  14.773  11.623 -0.2770 -0.0008  0.1687
 2817W        W18626   9.784  11.407  14.686 -0.0056  0.2069 -0.0668
 2818W        W18627  17.964   1.334  14.794 -0.0186  0.1357  0.1764
 2819W        W18628  13.886   4.927   5.188 -0.4154 -0.1323  0.0696
 2820W        W18629   1.198   8.891  11.056 -0.3251  0.0797 -0.1143
 2821W        W18630  14.449   6.359  14.119  0.1993 -0.2844  0.0724
 2822W        W18631  13.371  13.652  11.807 -0.0275 -0.0396  0.4566
 2823W        W18632  18.098  15.594   2.800 -0.0427 -0.1251 -0.0532
 2824W        W18633   8.005   6.671  12.278  0.2525  0.0071  0.1548
 2825W        W18634  12.587   5.919  15.227 -0.0317  0.0605 -0.1316
 2826W        W18635  13.254   2.569   4.344 -0.1804  0.0770 -0.2069
 2827W        W18636  14.701  12.693   4.029 -0.1707  0.2396  0.3047
 2828W        W18637   3.352  13.330   2.196  0.0706  0.4697  0.0433
 2829W        W18638  12.607  17.086  15.151 -0.0909 -0.1569  0.2149
 2830W        W18639   5.153   4.570  12.237  0.1852  0.1479 -0.0397
 2831W        W18640  18.087   7.328  12.810  0.1021 -0.0408  0.0048
 2832W        W18641   7.767  11.056   3.525  0.2945  0.1127  0.0541
 2833W        W18642  13.248   7.846  10.936 -0.2138  0.1659  0.1697
 2834W        W18643   2.235  14.101   1.005 -0.1555 -0.2219  0.1159
 2835W        W18644  10.856  13.734   9.754 -0.3283  0.3709  0.3708
 2836W        W18645  10.432   7.024   4.430  0.0637  0.2048  0.1976
 2837W        W18646  13.082  13.818   4.464 -0.1041 -0.1297 -0.0032
 2838W        W18647  14.628   4.625   4.081  0.2777  0.0534  0.0254
 2839W        W18648  11.946   0.422  10.880 -0.1205 -0.2980 -0.2652
 2840W        W18649   7.996  13.356  11.391 -0.0596 -0.0196  0.2136
 2841W        W18650  18.757  11.041  11.068  0.1997 -0.0062 -0.0103
 2842W        W18651  14.656   0.356  10.730  0.2065  0.0466  0.0524
 2843W        W18652   6.534  13.317  10.399 -0.1086 -0.1329  0.2849
 2844W        W18653   9.161   0.446  12.193  0.3920  0.1641 -0.0669
 2845W        W18654  13.838  10.943   4.520  0.3514  0.1769  0.0983
 2846W        W18655  13.969  18.972   3.458 -0.0290 -0.3526 -0.0642
 2847W        W18656  10.089   3.117  12.593  0.2328 -0.1760 -0.3178
 2848W        W18657   6.547   3.253   0.808  0.2498  0.2179  0.1258
 2849W        W18658   0.589  13.706   2.180  0.2523  0.1345  0.0210
 2850W        W18659   5.270   2.045  10.565 -0.1268 -0.0802 -0.0120
 2851W        W18660   9.080  10.515   1.192  0.0099 -0.1849 -0.3561
 2852W        W18661   2.026   3.460  12.230  0.0207  0.2480 -0.0879
 2853W        W18662   6.567   6.900  11.266 -0.0977 -0.4045 -0.0431
 2854W        W18663  17.984   4.322  11.484  0.0249  0.3456  0.5142
 2855W        W18664   9.982  14.867   1.606 -0.1098 -0.1256  0.0241
 2856W        W18665   9.288   9.232  11.789  0.6020 -0.2407  0.0837
 2857W        W18666   7.511   3.879  14.438  0.1195  0.4260  0.1140
 2858W        W18667  18.374  10.504  11.692  0.1138 -0.0728 -0.4321
 2859W        W18668  17.946   4.693   6.108  0.0184 -0.0699  0.0957
 2860W        W18669  15.161  16.376  13.584 -0.0013  0.0658  0.4335
 2861W        W18670  18.976  18.322   5.914 -0.1814 -0.0642  0.1607
 2862W        W18671   4.052  10.259  14.080  0.2430 -0.0243 -0.2282
 2863W        W18672  18.609  14.661   5.606 -0.4090  0.3051 -0.3506
 2864W        W18673   0.692  13.656   2.737 -0.3973 -0.0021  0.0315
 2865W        W18674   4.502   2.262  13.825  0.2720  0.0231  0.4857
 2866W        W18675  18.217  14.901  11.927  0.0503  0.3375  0.2085
 2867W        W18676  13.650  12.895   2.603 -0.1988 -0.1828  0.4533
 2868W        W18677  18.204  12.463   1.776  0.0649  0.2463 -0.0782
 2869W        W18678  10.729   5.566  15.092 -0.1641 -0.1805 -0.1918
 2870W        W18679   0.289  17.159  11.612  0.0309  0.1191  0.0419
 2871W        W18680  11.600   2.857  10.761 -0.1745 -0.1125  0.1929
 2872W        W18681   0.101   6.684  11.213  0.2620  0.1703 -0.1042
 2873W        W18682  13.448   4.561   0.789  0.0995  0.2885  0.2590
 2874W        W18683  17.756   3.000  12.453  0.1176 -0.0928 -0.2222
 2875W        W18684  15.214  16.124   5.051  0.2631 -0.1356 -0.0980
 2876W        W18685   4.932   8.229  12.281 -0.1655  0.2311 -0.0712
 2877W        W18686   0.675   1.238  10.234 -0.1163 -0.0323 -0.1951
 2878W        W18687   9.570  11.093  10.546 -0.1750  0.2458 -0.1127
 2879W        W18688  15.910   7.281   2.440  0.0568 -0.1817 -0.0788
 2880W        W18689  15.508   5.458  13.657 -0.3647  0.1738 -0.0466
 2881W        W18690  15.868  12.217   1.299  0.1164  0.0320 -0.0786
 2882W        W18691   2.806  11.673  14.739 -0.1768 -0.0685  0.1095
 2883W        W18692  16.933  14.279   3.276 -0.2021  0.0227  0.1494
 2884W        W18693   5.092   4.826   5.269  0.0162 -0.1597 -0.1201
 2885W        W18694   8.867   2.323  13.702 -0.3463 -0.1341  0.0060
 2886W        W18695   0.501   8.751  15.145 -0.3571  0.0581 -0.0916
 2887W        W18696  18.183  17.812   3.431 -0.1153  0.2997  0.1045
 2888W        W18697   6.521   5.299   1.676 -0.1865 -0.1296 -0.1374
 2889W        W18698   7.595  10.041  13.812 -0.1354  0.0968 -0.0152
 2890W        W18699  10.319  18.497   2.542 -0.0990 -0.1112 -0.1551
 2891W        W18700  17.134   3.942   2.163  0.4929  0.0162 -0.1969
 2892W        W18701  12.739  16.049   3.699  0.3033  0.2581 -0.0214
 2893W        W18702   2.875   1.196   4.532  0.1365  0.2056  0.1993
 2894W        W18703  16.245   1.235  13.065 -0.4748 -0.2200 -0.0680
 2895W        W18704  14.648   7.900  13.483 -0.0560 -0.0230 -0.1288
 2896W        W18705   4.313  13.115   0.074 -0.2172 -0.2991 -0.3582
 2897W        W18706   6.797  10.873  10.157 -0.0435  0.1530 -0.4355
 2898W        W18707  11.400   3.002   4.962  0.2154  0.0727 -0.4695
 2899W        W18708  12.853  12.558   1.318  0.2765 -0.2525  0.1575
 2900W        W18709   4.132   2.771  11.891  0.2455  0.0569  0.0317
 2901W        W18710  12.175  16.119   1.324 -0.2517  0.1280  0.1617
 2902W        W18711  13.053  14.418  12.172 -0.4827  0.0893 -0.0054
 2903W        W18712  17.788   3.869  12.849  0.0209 -0.3438  0.0673
 2904W        W18713   6.508  15.464   4.217 -0.1853 -0.1140  0.1022
 2905W        W18714   5.500  17.144   2.513  0.1657 -0.4272 -0.1574
 2906W        W18715  18.654  12.070   4.610 -0.0716 -0.0728  0.1942
 2907W        W18716   6.389  13.362  11.917 -0.0790  0.0872  0.1117
 2908W        W18717  12.031   8.848   4.867  0.2731  0.0505  0.1508
 2909W        W18718  12.244   2.932  15.184 -0.2744  0.3926 -0.2352
 2910W        W18719  10.459   0.291  11.219  0.1188  0.1542 -0.1527
 2911W        W18720  14.862   8.867  10.764 -0.0515 -0.1214 -0.1735
 2912W        W18721  16.523   4.035   2.899 -0.0213 -0.1248  0.2500
 2913W        W18722   5.851  10.634   2.332  0.0999 -0.0183 -0.0169
 2914W        W18723  10.334  18.998  15.015  0.0171  0.2664  0.0488
 2915W        W18724   7.123  16.231   0.237  0.1515  0.1804 -0.0256
 2916W        W18725   6.764   0.298   0.904  0.2284  0.3519 -0.3689
 2917W        W18726  14.739   7.416  11.783  0.1810 -0.0123 -0.0750
 2918W        W18727   4.861  12.144   3.548  0.3368  0.0023 -0.4414
 2919W        W18728  18.749  15.159  13.439  0.4943  0.2378  0.0281
 2920W        W18729  14.415   4.160  11.707 -0.0251  0.0410  0.0807
 2921W        W18730   0.293   9.439  11.035 -0.2941 -0.0270 -0.1046
 2922W        W18731   2.798  18.482  12.968 -0.1788 -0.0508 -0.1548
 2923W        W18732  15.738  11.394   3.632  0.2851  0.1438  0.1090
 2924W        W18733  11.072  14.421  13.533 -0.3151 -0.4291  0.0923
 2925W        W18734  11.688  13.187   4.600 -0.1929  0.3064 -0.1925
 2926W        W18735  10.083  18.947  14.387  0.0317  0.2794  0.2616
 2927W        W18736  18.418   4.936  11.961 -0.1398 -0.1713  0.1082
 2928W        W18737   2.027  17.164   3.417  0.1825  0.0938  0.0716
 2929W        W18738  12.199  16.754   4.923  0.0431 -0.1288  0.2127
 2930W        W18739   1.149   4.106  13.161 -0.2553  0.0606 -0.0481
 2931W        W18740   8.671   6.801   0.541  0.0443 -0.1242  0.3249
 2932W        W18741   8.481  16.366  11.639 -0.3446  0.2529  0.0060
 2933W        W18742  10.110  17.188   4.750 -0.0603 -0.0963  0.1347
 2934W        W18743   6.515  11.839   2.600  0.3228 -0.0199  0.0186
 2935W        W18744  18.049  12.385  13.917  0.4222  0.2190  0.0598
 2936W        W18745   6.474  15.432   2.829  0.0934 -0.0639 -0.0670
 2937W        W18746   6.311  11.623  11.616 -0.1540 -0.0160  0.0563
 2938W        W18747   8.726  18.842  13.536  0.3219 -0.0651  0.1468
 2939W        W18748   3.877   4.565  12.918 -0.1387 -0.2054 -0.0340
 2940W        W18749  17.248  17.092  11.035 -0.0361  0.2044  0.2576
 2941W        W18750   7.756  16.931   3.409  0.1724 -0.1230 -0.0581
 2942W        W18751   5.383   4.559   9.954  0.1476  0.0242 -0.0634
 2943W        W18752   3.536   3.725  10.927 -0.2912  0.1296  0.0510
 2944W        W18753   9.852   3.181   0.601  0.1374 -0.0379 -0.1198
 2945W        W18754   1.954   8.914   1.160 -0.2984  0.0568  0.2291
 2946W        W18755  15.264  10.762   2.401  0.2393  0.0152  0.0143
 2947W        W18756   1.744  16.239   0.965 -0.0175  0.3245  0.0613
 2948W        W18757   6.825  17.847   3.842  0.0112 -0.2097 -0.2192
 2949W        W18758  17.717  11.107   4.162 -0.0123  0.1915 -0.3589
 2950W        W18759  16.555   1.900   5.660 -0.2436 -0.0760 -0.3065
 2951W        W18760   7.003  13.829   2.234 -0.2721  0.2118 -0.0711
 2952W        W18761  17.616   1.849   3.648 -0.0423 -0.2350  0.1705
 2953W        W18762   2.622   2.007  11.226  0.3511  0.1951 -0.1407
 2954W        W18763   3.145   2.994   2.910  0.0615 -0.0826 -0.1671
 2955W        W18764   7.456   3.372  14.390 -0.0125  0.2399  0.0153
 2956W        W18765   6.051  15.155  15.225  0.1404  0.0597 -0.1880
 2957W        W18766  15.237  17.896   4.284  0.1157  0.0433 -0.0653
 2958W        W18767   2.597  15.396  10.698  0.0416  0.4076 -0.1439
 2959W        W18768   1.591  12.919  10.150  0.2073  0.0514 -0.0365
 2960W        W18769  18.904   6.977   1.698  0.1539 -0.1296  0.0182
 2961W        W18770  10.406  15.826   4.557  0.3026  0.3604  0.0388
 2962W        W18771   8.047  12.004   1.283  0.4323  0.0980 -0.3434
 2963W        W18772   2.869  15.394   1.022 -0.1525 -0.1432  0.0315
 2964W        W18773  15.382   0.189  13.183 -0.0006  0.0238 -0.0973
 2965W        W18774   4.859   1.754   4.158  0.0136 -0.2879  0.1304
 2966W        W18775   4.404   0.953   4.534 -0.0146  0.0259  0.2892
 2967W        W18776   9.404   6.410  13.050  0.1721 -0.0747  0.1586
 2968W        W18777  17.371   5.664   3.909 -0.1154  0.0267  0.0540
 2969W        W18778  15.703  15.138  14.591 -0.0118 -0.1649 -0.0491
 2970W        W18779  18.655   6.018  15.032 -0.1294  0.2829 -0.0324
 2971W        W18780  18.551   4.842  12.473  0.3449  0.1127 -0.3243
 2972W        W18781  10.858   3.480   4.388  0.2541  0.0725  0.3336
 2973W        W18782   8.727   7.370  11.846  0.0723 -0.1276 -0.1302
 2974W        W18783  12.748   7.233  12.914 -0.0387 -0.0282 -0.5209
 2975W        W18784   2.253  17.486   3.734  0.2770 -0.3131  0.0459
 2976W        W18785  18.304   4.842   9.886 -0.2042  0.1172  0.2283
 2977W        W18786   7.910  14.091  13.029  0.1239  0.1457  0.0033
 2978W        W18787   2.598   3.376   1.635 -0.0458 -0.3213 -0.1466
 2979W        W18788  12.011   8.625   3.073 -0.1951  0.1137 -0.2723
 2980W        W18789   8.251   2.855  11.110  0.1783  0.1920 -0.0694
 2981W        W18790   4.307  17.705  14.078 -0.1693  0.3438 -0.4829
 2982W        W18791  10.203   2.823  10.901 -0.3624 -0.1980  0.0863
 2983W        W18792  18.575  10.317   2.251  0.2161 -0.0309 -0.1942
 2984W        W18793   2.263   9.474   2.689  0.2265  0.0759 -0.1408
 2985W        W18794   8.957  15.344   1.263  0.0151 -0.1654  0.2254
 2986W        W18795  14.483   9.248  10.579  0.6148 -0.1588  0.2342
 2987W        W18796   8.651   1.940  14.436  0.0150 -0.1565  0.0796
 2988W        W18797   6.095  18.915   0.460  0.0248 -0.1440 -0.3165
 2989W        W18798   3.448   2.259   1.974  0.0380 -0.1395 -0.0135
 2990W        W18799   5.068  11.298   0.112 -0.3245  0.0037 -0.0172
 2991W        W18800  12.121   2.617  14.825 -0.2359  0.0456 -0.0941
 2992W        W18801  10.846   3.322   1.123  0.1022 -0.1437  0.0515
 2993W        W18802  16.258  10.059   0.632 -0.0029  0.3895 -0.1939
 2994W        W18803   3.873  11.865  12.632  0.4809 -0.0636  0.0072
 2995W        W18804  16.499   8.350  13.545 -0.3278 -0.0838  0.1705
 2996W        W18805  15.772   3.036   5.857  0.0803 -0.3497 -0.0642
 2997W        W18806  14.744  18.562  11.176 -0.0457 -0.5138 -0.2022
 2998W        W18807  18.450  14.697   0.709 -0.3207 -0.1189  0.3450
 2999W        W18808  15.537   4.825   0.503  0.1905 -0.0147 -0.0412
 3000W        W18809  10.164   5.295  11.877 -0.2602 -0.0858 -0.1424
 3001W        W18810  10.660  10.379   5.776  0.0700 -0.0729  0.4832
 3002W        W18811  12.273  12.044  11.944  0.1549 -0.1062 -0.1742
 3003W        W18812   4.344  18.742  14.894 -0.0025 -0.2883 -0.3375
 3004W        W18813  13.180  12.555   3.118  0.3094 -0.2385  0.1340
 3005W        W18814   3.566  13.753   9.405 -0.1217  0.1427  0.0166
 3006W        W18815  17.286  13.466   4.866  0.0136  0.2045 -0.0134
 3007W        W18816  14.880   9.645   3.680  0.4356  0.2962  0.0593
 3008W        W18817  17.092   5.365   0.685  0.1414 -0.0264 -0.1071
 3009W        W18818  15.446   3.363  14.141  0.3151 -0.0732 -0.0426
 3010W        W18819   1.436   1.439   0.232  0.0963 -0.1614 -0.2068
 3011W        W18820   6.663  14.417  11.629  0.0440  0.2762 -0.1233
 3012W        W18821  19.026   0.552   1.749  0.1180 -0.1889  0.1023
 3013W        W18822  10.398  15.124   3.546 -0.0902 -0.0460 -0.2476
 3014W        W18823   0.573   2.446   1.015  0.3403  0.0104  0.0035
 3015W        W18824   6.017   5.404   2.499 -0.0069 -0.1089 -0.0076
 3016W        W18825   6.475   6.433   5.458 -0.0244 -0.0477 -0.0590
 3017W        W18826  16.337  15.749   0.157  0.1438  0.1100 -0.1346
 3018W        W18827  14.658   3.943  12.462  0.1412  0.3092  0.2177
 3019W        W18828   8.091  15.381  12.073  0.0042  0.2652  0.0615
 3020W        W18829  16.368   3.893   6.211 -0.0610 -0.1717 -0.0688
 3021W        W18830   6.213  18.313   2.696 -0.2963  0.0978  0.1879
 3022W        W18831  16.787   1.444  14.094  0.2604  0.1263  0.0397
 3023W        W18832  13.673  11.403  11.554 -0.0858  0.1080  0.0894
 3024W        W18833  16.569   8.465   2.369  0.2211  0.2413 -0.0391
 3025W        W18834   8.692  13.486   1.683  0.0078  0.0742 -0.0708
 3026W        W18835   2.755   4.031  12.027  0.3529 -0.3140 -0.4457
 3027W        W18836  18.092   7.284   1.166  0.0102  0.1162 -0.3203
 3028W        W18837   6.442  12.192   2.988  0.2855 -0.2633  0.2275
 3029W        W18838  13.174  14.332   3.831  0.1935  0.1502 -0.0081
 3030W        W18839   9.639   1.704   2.829 -0.0575 -0.0777 -0.1036
 3031W        W18840   6.474  12.193  14.379  0.0174 -0.3476  0.0044
 3032W        W18841  10.237  17.110   0.147 -0.1013  0.0710 -0.0608
 3033W        W18842   8.549   2.428  14.429  0.3864  0.5474 -0.0380
 3034W        W18843  16.270   7.635  15.151  0.0347 -0.0251  0.1162
 3035W        W18844   0.903   4.885   3.437 -0.3941 -0.1839  0.4379
 3036W        W18845   7.725  14.863  13.387  0.1600  0.0718 -0.1923
 3037W        W18846   0.552   9.452   4.919  0.1533 -0.0110  0.1824
 3038W        W18847   6.733   4.134   0.137  0.0315  0.0829  0.1229
 3039W        W18848   2.616  13.515   3.388  0.2286  0.0571  0.0196
 3040W        W18849   4.109  15.351   5.247 -0.0969 -0.2219  0.4627
 3041W        W18850  18.387  16.888  13.983 -0.4818  0.0479 -0.4623
 3042W        W18851   9.514   6.254  10.906  0.0680 -0.0642 -0.3431
 3043W        W18852  10.124   9.687   3.374  0.0904 -0.3701 -0.3309
 3044W        W18853   7.884   7.275  12.065 -0.5262 -0.1779  0.0736
 3045W        W18854   1.116   3.039  12.156  0.1044 -0.2569 -0.2652
 3046W        W18855   4.480   7.473  13.592 -0.0344 -0.2695  0.2557
 3047W        W18856   5.844  14.146   9.886  0.0553  0.2707 -0.0560
 3048W        W18857  15.739  12.843  14.731 -0.1372  0.0518 -0.0891
 3049W        W18858   6.427  17.101  13.551 -0.0749  0.2120 -0.2034
 3050W        W18859   3.902   3.655   0.904 -0.3015 -0.2160  0.0583
 3051W        W18860   0.374   8.642  13.489 -0.1606 -0.0393 -0.0355
 3052W        W18861   9.440   7.660   0.522  0.1389 -0.1600 -0.0098
 3053W        W18862   6.387   5.786   1.618  0.0756  0.0773 -0.1865
 3054W        W18863  11.008  18.175   1.304 -0.0668 -0.0972  0.0957
 3055W        W18864  16.128   4.234   1.145 -0.0672  0.1541  0.1337
 3056W        W18865   9.944  10.672  12.386  0.1178  0.0762 -0.1297
 3057W        W18866  16.607  18.073   5.445 -0.0730 -0.0664  0.3307
 3058W        W18867  14.883   0.928  12.378 -0.1416  0.0113 -0.4580
 3059W        W18868   9.934   7.723   0.732  0.0985  0.1778 -0.1248
 3060W        W18869   8.094   8.985   3.060  0.2225 -0.0256  0.3022
 3061W        W18870   1.129  12.893  12.498 -0.1042 -0.0826  0.0647
 3062W        W18871   0.776   3.314  10.887  0.2699 -0.1403 -0.1800
 3063W        W18872  15.654   0.360  10.695  0.0674  0.1086 -0.1300
 3064W        W18873   8.715   4.039  11.338  0.0696 -0.3797 -0.1711
 3065W        W18874  17.001  17.470  13.919 -0.0481  0.1564  0.1506
 3066W        W18875  14.957   4.051  12.935 -0.0804 -0.0467  0.1673
 3067W        W18876  11.241  18.239   3.751 -0.2058  0.1352 -0.0635
 3068W        W18877   3.927   4.995  11.288 -0.1423  0.1949  0.1991
 3069W        W18878   5.841  15.624   2.912  0.3038  0.2542  0.0272
 3070W        W18879  12.753  16.368   4.178  0.1182 -0.1887  0.4126
 3071W        W18880  11.536  11.207  14.084  0.1448  0.2451 -0.2998
 3072W        W18881   0.229   1.258  10.533 -0.3899  0.1290 -0.1160
 3073W        W18882   8.568  16.599   4.966 -0.0939 -0.1626  0.3380
 3074W        W18883  18.712   6.391   4.936 -0.1948 -0.1492 -0.1132
 3075W        W18884   8.045  16.181   1.603  0.0605  0.2022  0.0967
 3076W        W18885   2.631   9.595  14.454 -0.3025 -0.3851  0.2527
 3077W        W18886   8.797  10.771  14.791 -0.1717 -0.0037  0.2109
 3078W        W18887   4.740  17.753  10.693 -0.1898  0.0434 -0.0197
 3079W        W18888  14.286  15.327   4.563 -0.0460  0.1973  0.2750
 3080W        W18889  14.731   5.903   3.145 -0.0629  0.1454  0.0534
 3081W        W18890  14.115  11.206   4.857  0.1295  0.1844 -0.0770
 3082W        W18891  14.939  12.899   1.220 -0.0669  0.5501  0.1164
 3083W        W18892  11.900   4.136  10.762  0.0363  0.3890  0.0424
 3084W        W18893   7.120   8.051   1.046 -0.0484 -0.2707  0.0224
 3085W        W18894  15.611   1.933   2.946 -0.0193 -0.2344 -0.0034
 3086W        W18895   6.221   1.496   0.631  0.2861  0.1714  0.4051
 3087W        W18896  15.548  11.132   4.019 -0.0198 -0.3256  0.0333
 3088W        W18897  18.911  17.940  15.229 -0.0153  0.2825  0.0124
 3089W        W18898   7.437  14.795  12.616 -0.0731 -0.0581  0.1424
 3090W        W18899   9.439   4.432  13.616 -0.1036 -0.3981 -0.3021
 3091W        W18900  17.044  16.254  11.733 -0.2476 -0.0171  0.2986
 3092W        W18901   0.044   8.016   0.958  0.0385  0.0487 -0.1316
 3093W        W18902  15.905   6.229   2.929 -0.2704  0.1065 -0.0388
 3094W        W18903   7.476  18.781  12.157  0.1071 -0.0180 -0.2632
 3095W        W18904   0.719  11.488   3.027 -0.1891  0.2341  0.3989
 3096W        W18905   5.178  15.193  11.693 -0.1200  0.2055 -0.1481
 3097W        W18906   6.496  15.218  13.041  0.2614  0.1596  0.2575
 3098W        W18907   4.974   9.613   4.545  0.2485 -0.0374  0.0091
 3099W        W18908   6.913   1.158  13.746  0.0748  0.1776  0.1330
 3100W        W18909  18.089   6.118   5.440 -0.0252 -0.0372  0.1443
 3101W        W18910   2.312   1.613   0.832 -0.3169 -0.0628 -0.0260
 3102W        W18911  18.834   6.643  13.310  0.0738 -0.1902 -0.1336
 3103W        W18912  10.159   4.264  13.073  0.1041  0.2057 -0.1937
 3104W        W18913   3.920   5.265  11.911 -0.1416 -0.2622 -0.3742
 3105W        W18914   8.187   3.101   4.238 -0.3039 -0.5738 -0.3112
 3106W        W18915  15.032  12.377   5.548  0.2418  0.1794 -0.0029
 3107W        W18916   8.587   9.994   2.012 -0.1147  0.0282 -0.0029
 3108W        W18917  17.592  14.981  10.076  0.2030 -0.1548 -0.4757
 3109W        W18918   4.863  16.142   0.899  0.0190 -0.0724 -0.0526
 3110W        W18919  17.486  15.320  15.086 -0.2480  0.0862 -0.1747
 3111W        W18920  18.685  14.720   0.291 -0.2029  0.2865 -0.1600
 3112W        W18921  17.101  10.984   1.506 -0.1403  0.3350 -0.1781
 3113W        W18922   7.559   7.420  12.955 -0.2258 -0.1238  0.2306
 3114W        W18923   6.508   8.778  10.473  0.0189  0.2627  0.0980
 3115W        W18924  12.159  15.020  15.025  0.0164 -0.0552 -0.0173
 3116W        W18925  16.755  10.641  12.524  0.0161 -0.1152 -0.1952
 3117W        W18926  11.530   4.218   1.437  0.0012 -0.0450  0.0310
 3118W        W18927  12.400   4.705   2.897 -0.0487 -0.3274 -0.2066
 3119W        W18928   9.331   1.251   0.669 -0.4618 -0.1965  0.1771
 3120W        W18929   7.138   0.688   1.348 -0.0322  0.1548 -0.0830
 3121W        W18930  12.204  10.589   5.167  0.1656 -0.1546 -0.0227
 3122W        W18931   2.345  16.171   4.019  0.2933  0.3533 -0.2114
 3123W        W18932   1.305   7.380   0.851 -0.1180 -0.2078  0.4846
 3124W        W18933  17.114   8.593   3.592 -0.0832 -0.1001  0.1911
 3125W        W18934  13.549  16.289   5.046 -0.2002  0.2934  0.0962
 3126W        W18935  18.121   0.129  10.915  0.1299 -0.0996  0.0707
 3127W        W18936  14.940  18.371   0.139  0.0674 -0.4102 -0.0146
 3128W        W18937  13.399  15.287  12.308 -0.0400  0.4182 -0.0377
 3129W        W18938  13.353   9.081  12.387  0.0892  0.1984 -0.1300
 3130W        W18939   5.314  14.348  15.238 -0.1658  0.0713  0.3195
 3131W        W18940   9.639  14.899   0.703  0.2018 -0.2015  0.1098
 3132W        W18941   4.427   4.836  12.711 -0.0777 -0.0441 -0.3141
 3133W        W18942  13.663  11.364   4.753 -0.0191 -0.1191 -0.2378
 3134W        W18943   4.205  16.278  13.572 -0.2796  0.2558  0.0655
 3135W        W18944  18.650  18.393  15.215 -0.0566 -0.2614 -0.1981
 3136W        W18945   1.211  13.521  15.215  0.1362 -0.1842  0.3382
 3137W        W18946  11.081   4.293   3.395 -0.3202  0.7057  0.2450
 3138W        W18947   8.008   4.793  11.766  0.0488  0.0943 -0.1486
 3139W        W18948  13.995   3.060  13.661 -0.1235 -0.1389 -0.2891
 3140W        W18949  16.180  15.101  14.522 -0.2172  0.1258 -0.0426
 3141W        W18950   9.317   2.646   0.184 -0.2481  0.1499  0.0796
 3142W        W18951  13.822  10.201   0.610 -0.3475  0.1689  0.0774
 3143W        W18952  14.211   4.574  11.587 -0.1700 -0.3302  0.1046
 3144W        W18953  14.863   2.800   0.712 -0.1280 -0.2930 -0.0969
 3145W        W18954  14.153   5.793  10.958 -0.2072  0.4989 -0.1561
 3146W        W18955  13.930  11.641   5.111 -0.0135 -0.0648 -0.2427
 3147W        W18956   5.120   1.792   0.464 -0.3849 -0.0350  0.1325
 3148W        W18957  16.107   3.739   3.302 -0.6940 -0.3614 -0.1425
 3149W        W18958   1.246   9.264  13.139 -0.0366  0.0471 -0.0359
 3150W        W18959  12.186  18.600  13.245  0.0125  0.1857 -0.0281
 3151W        W18960   8.852   2.438  12.375  0.2020  0.4353 -0.0302
 3152W        W18961   2.699  14.659   3.811 -0.0192  0.1524  0.2371
 3153W        W18962   6.691   7.897  14.305 -0.0211  0.3584  0.1647
 3154W        W18963   4.323   0.280  12.044 -0.0083  0.3228  0.0191
 3155W        W18964   3.724   3.929  13.371  0.1336  0.1293 -0.3807
 3156W        W18965   3.286   4.945  12.579 -0.1630  0.1537  0.0635
 3157W        W18966   7.134  10.249  14.070  0.1823  0.0045  0.1204
 3158W        W18967   4.915   9.893  13.631  0.0838 -0.0379 -0.5099
 3159W        W18968   6.721  12.629   1.071  0.1162 -0.2924 -0.1301
 3160W        W18969  16.548  12.988   2.203  0.0785  0.0088 -0.1760
 3161W        W18970  10.113  14.496   0.320 -0.1604  0.1203 -0.0643
 3162W        W18971   9.033  10.051  10.496  0.1294  0.0633  0.1153
 3163W        W18972   7.593  16.991   1.839 -0.0983  0.3347 -0.1009
 3164W        W18973   4.188   4.149   1.691 -0.1457 -0.2819  0.0416
 3165W        W18974   7.784   1.799   3.883  0.2421 -0.1494 -0.5582
 3166W        W18975   5.706  11.140  12.287 -0.3189  0.0288  0.1009
 3167W        W18976   1.927   1.319  12.957  0.1197 -0.0656 -0.0339
 3168W        W18977   2.452  18.905   2.924 -0.1496 -0.0547  0.6140
 3169W        W18978   3.030   9.514  11.727 -0.0013  0.2151  0.0488
 3170W        W18979  19.036  10.678  14.309 -0.0703 -0.1244 -0.0535
 3171W        W18980   5.569   3.299  10.054 -0.1354  0.1458 -0.0624
 3172W        W18981   6.232   3.839  11.186  0.0207  0.0463 -0.0571
 3173W        W18982  17.443   6.232   3.715 -0.0511  0.0101  0.1849
 3174W        W18983  11.989  14.040  10.324  0.0690  0.1002 -0.0867
 3175W        W18984   2.779  14.460  12.910 -0.1299  0.2680  0.3451
 3176W        W18985  18.094   8.355   3.600  0.2017 -0.3303  0.2316
 3177W        W18986   3.756   4.194   2.168 -0.0763  0.0412 -0.1353
 3178W        W18987   1.426   1.423   1.381 -0.0408 -0.3527  0.1541
 3179W        W18988   5.216  18.555  11.776  0.3168 -0.2619 -0.0110
 3180W        W18989  10.913   2.076  12.672 -0.4290  0.0737 -0.2684
 3181W        W18990  17.730   2.843   0.677 -0.1016  0.1198 -0.2803
 3182W        W18991  15.197   8.590   0.265 -0.0034  0.1531 -0.0869
 3183W        W18992   7.009  13.749   0.270  0.0165 -0.1355  0.0344
 3184W        W18993  13.318   3.650   5.167 -0.2892  0.0695 -0.1441
 3185W        W18994   1.815   4.840   2.473 -0.1105  0.3394  0.0007
 3186W        W18995   6.163  14.308   9.475 -0.0095  0.0895 -0.0081
 3187W        W18996   1.901  13.974   2.353 -0.1580  0.4549  0.1760
 3188W        W18997   9.881   1.371  13.230  0.1185 -0.2409 -0.1730
 3189W        W18998   7.646   3.691   1.395  0.2666  0.0164 -0.0703
 3190W        W18999  11.424   9.559   0.528  0.3300  0.2882  0.1504
 3191W        W19000  17.482  14.467  13.883 -0.0230  0.2792  0.1400
 3192W        W19001   0.628   4.037  12.963  0.2628 -0.2124 -0.0838
 3193W        W19002   2.371   6.903  13.614  0.0486  0.1128 -0.0984
 3194W        W19003   4.206  14.355   4.236 -0.1724  0.0137  0.2297
 3195W        W19004  15.905   6.377  13.392 -0.0415  0.3160 -0.0667
 3196W        W19005  14.650  18.784   4.497 -0.1561 -0.0302  0.0561
 3197W        W19006   8.362   1.483   9.123  0.0628 -0.1656 -0.0711
 3198W        W19007  13.108  11.906   3.060  0.1569  0.0320  0.2887
 3199W        W19008  18.873  10.126   1.467  0.0099 -0.2580  0.0930
 3200W        W19009  13.486   9.456  13.711 -0.3958 -0.0952 -0.2577
 3201W        W19010   0.439   0.413  12.948  0.3212  0.1238  0.0466
 3202W        W19011   7.462  12.335  14.071 -0.0440 -0.1655 -0.1344
 3203W        W19012  16.268  10.151  11.395  0.3346 -0.1781  0.1032
 3204W        W19013  14.816  12.373   1.461  0.0939  0.0242 -0.0372
 3205W        W19014   5.881   4.805  10.006 -0.0684  0.1543 -0.0421
 3206W        W19015   3.766   1.478  12.371  0.1057 -0.1507 -0.1628
 3207W        W19016   9.156   3.489   4.263 -0.0789  0.0847 -0.0043
 3208W        W19017  18.979   0.382   4.959 -0.0049 -0.0529 -0.0581
 3209W        W19018   8.641  15.872  14.940 -0.0973 -0.1176  0.2615
 3210W        W19019  10.639   5.254   4.648  0.1982 -0.3594  0.1039
 3211W        W19020  15.248  11.059  11.704  0.1201  0.0594  0.1120
 3212W        W19021   9.996  18.606   1.595 -0.1790 -0.4245 -0.0696
 3213W        W19022  15.543  11.291  11.345 -0.1795  0.3263 -0.0023
 3214W        W19023   5.733   9.866  10.379 -0.1947  0.0141  0.1785
 3215W        W19024   3.108  14.699  14.204  0.2104 -0.2452  0.0977
 3216W        W19025   1.444   7.414   2.262 -0.0532  0.0256 -0.3434
 3217W        W19026   2.191  11.146   4.458  0.3086  0.0594  0.1081
 3218W        W19027  15.167   3.647   1.657  0.0494  0.0779 -0.0900
 3219W        W19028   3.872  14.650  10.379  0.1542 -0.1149 -0.2269
 3220W        W19029  12.598   3.364  15.252  0.1916  0.0505 -0.0583
 3221W        W19030   0.802   6.492  13.036 -0.0123  0.2846  0.2435
 3222W        W19031   6.901   2.605  11.044  0.1323 -0.0120 -0.0767
 3223W        W19032   7.995  17.410  11.399 -0.0273 -0.0716  0.0113
 3224W        W19033   9.805  11.955  12.897 -0.1700 -0.3147 -0.1314
 3225W        W19034  15.374  11.029   2.798 -0.0055  0.2997 -0.1334
 3226W        W19035  12.469  11.415   2.951  0.0050 -0.0806 -0.2227
 3227W        W19036  16.971   4.897   0.949 -0.3839  0.3197  0.0151
 3228W        W19037  15.847  13.793   1.755 -0.1583  0.0048 -0.3444
 3229W        W19038   6.308   0.164   3.019 -0.3138  0.0064 -0.2061
 3230W        W19039   5.359   5.563   3.626  0.1400  0.2258  0.4548
 3231W        W19040  13.638  18.535   1.420 -0.1471 -0.0351 -0.0788
 3232W        W19041  13.047  15.519  14.518  0.1005  0.1823 -0.0330
 3233W        W19042   6.325   8.215  10.620 -0.1281 -0.2151 -0.0792
 3234W        W19043   3.401   4.818  12.099  0.1584 -0.1475  0.0644
 3235W        W19044   1.476  14.306   3.662  0.1104  0.0678 -0.4618
 3236W        W19045   3.069   7.667   9.274  0.0270 -0.0400 -0.0328
 3237W        W19046  12.787   5.134  14.002  0.1210 -0.3541  0.1571
 3238W        W19047  13.640  13.199  10.375  0.2321  0.1020  0.1318
 3239W        W19048   3.758  10.810  10.762 -0.1201  0.0333  0.3582
 3240W        W19049  16.170  10.941   4.457 -0.1440  0.1167  0.2393
 3241W        W19050   1.029   5.715  14.311  0.0735  0.2653  0.1189
 3242W        W19051  11.577   7.678  10.754 -0.2228  0.1868  0.0954
 3243W        W19052  17.731   9.386   4.543 -0.0534  0.0520  0.1965
 3244W        W19053  10.572   5.375  11.632  0.1875  0.2220 -0.0181
 3245W        W19054  10.489   4.870  13.026 -0.1031  0.2815  0.4104
 3246W        W19055   1.108  16.177  12.039  0.0913 -0.1816  0.4689
 3247W        W19056  15.414   4.371   2.438 -0.1477  0.2454  0.0135
 3248W        W19057  11.443   5.270   5.978  0.0534 -0.0292 -0.1500
 3249W        W19058   1.613   4.277   1.301  0.1327 -0.0514 -0.1403
 3250W        W19059  17.851  15.017   0.084  0.1597 -0.1342 -0.3004
 3251W        W19060   7.382   2.213   4.745  0.0570 -0.1733 -0.0596
 3252W        W19061  17.435  16.826  12.684  0.1142 -0.1032  0.1928
 3253W        W19062  17.392   8.633  14.379  0.0101 -0.1968 -0.2484
 3254W        W19063  15.491  13.749   5.432  0.1932  0.4934 -0.0910
 3255W        W19064  14.098   7.030   3.153 -0.0582  0.2559 -0.0283
 3256W        W19065  11.245  18.598  14.295 -0.0341  0.2322 -0.2873
 3257W        W19066   8.214   5.669   1.207  0.0404  0.0271  0.1751
 3258W        W19067  11.084   9.364  12.537  0.0731  0.3858 -0.0880
 3259W        W19068  14.962   8.974  11.850  0.0310  0.1452  0.2904
 3260W        W19069  11.067   7.528  13.100 -0.2735  0.1998  0.2824
 3261W        W19070  11.502   7.896  11.619  0.1240 -0.0289  0.2383
 3262W        W19071  18.616  13.654   2.476 -0.2172  0.0142  0.0711
 3263W        W19072   6.193   8.273   0.996 -0.1165  0.4462  0.1471
 3264W        W19073   1.904  18.623   4.262  0.4744  0.2827  0.3488
 3265W        W19074  15.081  19.007   2.423 -0.0425 -0.1610  0.1033
 3266W        W19075   2.741  11.825   2.949 -0.1159 -0.0677 -0.1259
 3267W        W19076   9.226  17.394   0.231  0.0978  0.2116  0.1404
 3268W        W19077   1.845   8.417   2.397  0.2275 -0.0207  0.4124
 3269W        W19078   7.891   9.679   1.490  0.2163 -0.2392 -0.0426
 3270W        W19079  15.208  13.244   2.743 -0.1902  0.1001  0.3257
 3271W        W19080  14.801   7.044   0.128 -0.3473 -0.2825  0.4317
 3272W        W19081   9.252   8.469  11.608  0.2312 -0.1198  0.0174
 3273W        W19082  11.463   0.447   0.019 -0.5583  0.0922  0.0170
 3274W        W19083   5.863   1.631   4.220  0.0955  0.1686 -0.0945
 3275W        W19084   3.661   1.814  14.846  0.1869  0.0791 -0.0086
 3276W        W19085  17.779   7.741  13.936  0.3885 -0.1497  0.1947
 3277W        W19086   2.329  11.775  14.794  0.0628  0.2276 -0.0492
 3278W        W19087  15.544   6.920   2.619  0.0304  0.0666  0.3509
 3279W        W19088  11.610  16.983  11.044  0.0071 -0.0711  0.0673
 3280W        W19089  12.332  12.300   3.786 -0.2705  0.1049 -0.0332
 3281W        W19090   3.745  17.150   2.734 -0.3136  0.1293  0.1491
 3282W        W19091  11.156  13.804  10.142  0.1747  0.2620  0.3787
 3283W        W19092  11.859  15.377  13.650  0.1939  0.2086  0.0292
 3284W        W19093  18.623  14.264  14.990 -0.5129 -0.0243  0.2893
 3285W        W19094   0.448  13.272  14.332  0.0221 -0.1186  0.0312
 3286W        W19095  17.985   8.378   4.046  0.1504 -0.0173 -0.3118
 3287W        W19096   2.470  16.440   4.413 -0.0488 -0.3587  0.2025
 3288W        W19097   7.350   0.514   2.663  0.2327  0.0393  0.1048
 3289W        W19098   2.393   6.896  15.283  0.2003  0.0401  0.1859
 3290W        W19099   7.693   8.689   0.024  0.2864  0.2135  0.0445
 3291W        W19100   9.778   6.001  13.071 -0.0681  0.1427  0.0474
 3292W        W19101   2.316   7.099  14.673 -0.1384  0.0960 -0.0768
 3293W        W19102  15.201   5.125   0.247  0.1265 -0.0026 -0.2412
 3294W        W19103  17.384   1.409   3.563 -0.1569 -0.2470  0.0203
 3295W        W19104   0.330   4.512  12.249 -0.0983 -0.0673  0.2155
 3296W        W19105  13.447   1.136  12.209 -0.2084  0.2930  0.1599
 3297W        W19106   5.915  17.320   3.200 -0.0449 -0.2884 -0.1513
 3298W        W19107  15.526   5.641   4.797 -0.2009 -0.1033 -0.4130
 3299W        W19108  12.962   8.419   2.881 -0.3014  0.0018 -0.0822
 3300W        W19109  11.162  16.717  11.341  0.0326 -0.2129  0.3078
 3301W        W19110   2.183   9.798  11.823  0.1022 -0.2833 -0.0051
 3302W        W19111  14.118  10.055   1.889  0.0067 -0.0761 -0.0150
 3303W        W19112  11.594   6.456   3.027  0.1500 -0.1097  0.0907
 3304W        W19113   6.642   6.018   3.075  0.0173 -0.1765 -0.2166
 3305W        W19114  16.031  13.653   0.041  0.2283 -0.0815 -0.0414
 3306W        W19115   4.549  17.989  14.926 -0.2821 -0.1721 -0.1312
 3307W        W19116  11.443  15.328  12.509 -0.1670 -0.3179 -0.2690
 3308W        W19117  11.439   1.677   5.339  0.1861  0.1253  0.0220
 3309W        W19118  12.672   3.213   5.329 -0.0484  0.0047  0.1459
 3310W        W19119  16.723  17.585   1.578  0.1185 -0.3015 -0.0195
 3311W        W19120   6.728   6.449  10.060  0.0747 -0.2545 -0.1076
 3312W        W19121  12.671  13.985  15.056  0.3754  0.1196 -0.0314
 3313W        W19122  15.837  12.339  13.052  0.2183  0.3479 -0.0794
 3314W        W19123  14.451   1.822   3.733 -0.2863 -0.0948 -0.0557
 3315W        W19124  12.538  13.769  11.539 -0.1866 -0.5067 -0.1323
 3316W        W19125  11.576   1.245  14.645 -0.1751 -0.0977  0.0875
 3317W        W19126  10.596  10.586  13.824  0.0974 -0.2106  0.0961
 3318W        W19127   7.015  12.689   0.631 -0.0934  0.0739  0.4069
 3319W        W19128  10.177  15.910  11.023  0.0878 -0.2237  0.0350
 3320W        W19129   1.950   2.229   3.744 -0.3175  0.0304 -0.0127
 3321W        W19130  16.333   5.149   0.062 -0.0047 -0.2406  0.4772
 3322W        W19131  18.643  13.919  13.354  0.2045  0.0638 -0.0652
 3323W        W19132  13.551   8.105  13.369 -0.2116 -0.0629  0.0738
 3324W        W19133  17.228   4.274  12.637 -0.1487  0.0919  0.0313
 3325W        W19134  13.836  11.340   2.684 -0.1860  0.0099 -0.0436
 3326W        W19135   1.539   8.996  10.521  0.0584  0.0127  0.2601
 3327W        W19136   9.414  10.191   0.019 -0.0341 -0.3620  0.0112
 3328W        W19137  14.829  10.106  11.854 -0.1436 -0.0533 -0.0916
 3329W        W19138   2.612  18.653   0.179 -0.1096  0.0655 -0.1451
 3330W        W19139   7.673  13.365  10.488  0.1733  0.0876  0.1100
 3331W        W19140   0.230  18.913   1.050  0.4300 -0.2359  0.1593
 3332W        W19141   5.672  17.605   0.644  0.1309  0.4526  0.1273
 3333W        W19142  16.503   5.039  14.326  0.3709 -0.2227 -0.1777
 3334W        W19143  12.383  13.735   5.023  0.0560  0.0642 -0.1700
 3335W        W19144   8.106   7.779  15.191  0.0520  0.3258 -0.2454
 3336W        W19145  14.078   4.463   3.481  0.2917 -0.0527  0.4606
 3337W        W19146   9.005  18.487   5.210  0.5363  0.0516 -0.2080
 3338W        W19147   8.427   7.624  13.876  0.1927  0.0365 -0.0092
 3339W        W19148   1.048   4.831  13.394 -0.0896 -0.2373  0.1386
 3340W        W19149  14.892   5.310   1.603  0.1074 -0.1434  0.1799
 3341W        W19150   8.037  11.131  14.607  0.0494 -0.6060 -0.0204
 3342W        W19151  10.009   6.012   5.748 -0.0084  0.1884  0.0714
 3343W        W19152  14.234  12.374   2.852  0.0498  0.1211  0.1425
 3344W        W19153  16.792   8.969   3.018  0.1316 -0.0781 -0.1075
 3345W        W19154   0.371   2.139  10.768 -0.1564 -0.2485  0.0078
 3346W        W19155   0.179  16.252   1.184 -0.1791  0.0582 -0.0854
 3347W        W19156  15.939  14.897   2.445 -0.2064  0.3012 -0.2231
 3348W        W19157   8.772  14.919   4.612  0.4537  0.1560 -0.3747
 3349W        W19158  17.674  16.638   2.382 -0.0921  0.2797  0.1146
 3350W        W19159   3.219   9.088   4.426 -0.1286 -0.0961 -0.4939
 3351W        W19160   9.217  14.724  12.037 -0.0057  0.0368  0.2723
 3352W        W19161  17.040  16.098   3.740  0.2634  0.0281 -0.0772
 3353W        W19162  17.925  18.410  12.159 -0.1682  0.0545  0.0114
 3354W        W19163  12.046  14.461  11.971 -0.3084 -0.1642  0.0118
 3355W        W19164  16.096   7.308   1.565  0.4637  0.1866 -0.0431
 3356W        W19165  13.315  14.814  13.022  0.1058 -0.0380  0.1968
 3357W        W19166   0.959  14.230  13.319  0.0127  0.0276  0.1734
 3358W        W19167   8.841  18.416  12.119  0.1285 -0.1348  0.0958
 3359W        W19168  18.299   8.615   4.720  0.1206 -0.1209  0.0248
 3360W        W19169  10.605   8.120  11.507  0.0162 -0.2554 -0.1968
 3361W        W19170   5.985  18.077   4.099 -0.0714  0.1074 -0.0664
 3362W        W19171   5.627  13.919  13.336  0.1034 -0.4366 -0.0703
 3363W        W19172  17.799   3.541  12.478  0.1781  0.1027  0.0794
 3364W        W19173  10.356   5.918   0.710  0.0423 -0.1696 -0.2505
 3365W        W19174   5.768  11.392   4.448 -0.1377  0.0159 -0.1378
 3366W        W19175   9.439  16.612  10.583  0.0263  0.2192  0.0913
 3367W        W19176   0.035  14.621   5.764  0.1630  0.2750 -0.0928
 3368W        W19177   5.626  12.118   2.392  0.0570  0.1284  0.2218
 3369W        W19178  16.555   0.777  10.453  0.4733  0.0124  0.0667
 3370W        W19179   4.166   7.261   3.636  0.1654  0.0715 -0.2314
 3371W        W19180  14.686   7.768  13.934  0.2038  0.0728 -0.0548
 3372W        W19181  18.685   5.281   1.169  0.2542 -0.0467  0.1074
 3373W        W19182  14.370   0.784   0.384  0.2246  0.0065  0.0208
 3374W        W19183   4.969   2.778  12.452 -0.1688 -0.1172 -0.1273
 3375W        W19184  13.758  11.739   1.962  0.0196 -0.0180 -0.2155
 3376W        W19185   1.595  14.667  11.063  0.2354 -0.2847 -0.1860
 3377W        W19186   1.901   6.804   0.352  0.2731 -0.2846 -0.4908
 3378W        W19187   1.476  14.393   0.250  0.1367  0.2249  0.0658
 3379W        W19188   5.872  10.116   3.034  0.0735  0.2594  0.1572
 3380W        W19189  12.451   1.474   3.776 -0.2378  0.0112  0.2100
 3381W        W19190   9.808  16.035  12.024 -0.3616 -0.0693 -0.0267
 3382W        W19191  14.938   3.584  11.082 -0.2011 -0.3044  0.0173
 3383W        W19192   8.297   4.807   1.051  0.0026 -0.1174  0.1505
 3384W        W19193  12.087   5.939   0.935  0.3950 -0.0329 -0.1099
 3385W        W19194   2.192  14.919   2.176 -0.0120  0.0016 -0.0012
 3386W        W19195  15.193   3.408   2.889  0.3172 -0.0656  0.0179
 3387W        W19196  16.244   6.718   0.380 -0.0823  0.1742 -0.2702
 3388W        W19197  18.305  13.139   1.006  0.3478  0.2742  0.0292
 3389W        W19198  16.809   5.914  14.214 -0.1456 -0.2091 -0.0557
 3390W        W19199   4.431   9.016  12.834  0.0867  0.0587  0.1056
 3391W        W19200  11.283   3.960   1.057  0.0072  0.1630  0.0918
 3392W        W19201   1.975   6.937  13.331  0.2157 -0.1215 -0.0430
 3393W        W19202   6.890   3.878   4.842 -0.4029  0.2498  0.1558
 3394W        W19203   1.506   5.076   2.843 -0.2449  0.0582 -0.3677
 3395W        W19204   2.855   8.179   2.714 -0.4273 -0.1744  0.0697
 3396W        W19205  13.907   6.217   5.324 -0.1362  0.0026 -0.1336
 3397W        W19206   1.996  13.031  12.346 -0.1666 -0.1952  0.0212
 3398W        W19207  12.230   6.304  13.297 -0.0380  0.1996 -0.0700
 3399W        W19208   9.730   4.729  11.251 -0.2553  0.0532 -0.1690
 3400W        W19209  10.139  14.387   1.294 -0.0958 -0.4008 -0.0683
 3401W        W19210  13.484  15.411  15.071 -0.1303 -0.3362 -0.1878
 3402W        W19211  15.191   4.885   3.013 -0.0900  0.2031  0.3328
 3403W        W19212   5.557  15.376   0.085 -0.1112 -0.2424 -0.0431
 3404W        W19213   6.347  11.854   3.406 -0.1958 -0.0305  0.0871
 3405W        W19214   1.976  18.244   1.596 -0.0183 -0.1635  0.3933
 3406W        W19215  12.621   7.603  12.125 -0.0277 -0.2066 -0.1134
 3407W        W19216  17.195   4.401  14.797  0.2017  0.0412 -0.1244
 3408W        W19217   9.075   6.218  11.239  0.1025 -0.0176  0.0430
 3409W        W19218   7.795  11.765  12.580  0.0228 -0.2793  0.0993
 3410W        W19219   8.272  10.429  10.407  0.0499  0.4340  0.1362
 3411W        W19220   5.107  11.541   4.431 -0.0522  0.4498 -0.3941
 3412W        W19221   0.700   5.886  14.715  0.2986  0.1170 -0.0648
 3413W        W19222  17.417  10.842  11.351 -0.3165  0.0536  0.0694
 3414W        W19223  13.311   0.447  11.053  0.0703 -0.0706 -0.2248
 3415W        W19224   8.334   8.188  13.655 -0.1229  0.0665 -0.1314
 3416W        W19225  14.583  13.191  12.052 -0.0601 -0.3207  0.2739
 3417W        W19226  18.211  13.536   4.196 -0.1103 -0.0353  0.1432
 3418W        W19227   3.454   1.614  13.587 -0.1176 -0.0430  0.2557
 3419W        W19228  12.025   0.393   4.917 -0.2748  0.0796 -0.0024
 3420W        W19229  17.993   6.801   2.096  0.2569  0.0992 -0.3065
 3421W        W19230  12.096   5.309  10.221 -0.1509  0.2596  0.2000
 3422W        W19231  11.763  17.926  12.762  0.2114 -0.1520  0.2425
 3423W        W19232   8.510   2.366   5.370 -0.0315  0.0547 -0.0984
 3424W        W19233   4.402  10.372   2.348 -0.0179 -0.0446 -0.5026
 3425W        W19234   9.614  12.366   1.124  0.2684  0.0158  0.0090
 3426W        W19235   0.540  10.158   4.580 -0.3805 -0.0368 -0.0615
 3427W        W19236  14.995  10.943  13.104 -0.0231  0.0919 -0.0844
 3428W        W19237   6.631   7.853  10.974 -0.1287 -0.1540 -0.1575
 3429W        W19238  16.929   2.791   1.017 -0.2668 -0.2922  0.0867
 3430W        W19239  13.171   0.629   0.149 -0.1005 -0.2839 -0.0385
 3431W        W19240   5.621  16.498   3.161 -0.1559  0.0306 -0.0631
 3432W        W19241   7.176   3.778   3.840 -0.3361 -0.1465  0.0757
 3433W        W19242   7.565   6.233   1.079 -0.1050 -0.1296  0.2949
 3434W        W19243  12.212  18.622   5.632 -0.1157 -0.1161 -0.0215
 3435W        W19244   4.653   5.907  10.698 -0.2751 -0.0214  0.1166
 3436W        W19245   4.141  18.279  11.042  0.3218 -0.1821  0.3088
 3437W        W19246  16.786   5.932  14.792 -0.5213 -0.1289  0.2282
 3438W        W19247   3.199   3.755   1.853 -0.0040 -0.1665 -0.1534
 3439W        W19248  11.408   7.551  12.226 -0.0000 -0.0169  0.4476
 3440W        W19249  16.383  16.376   2.399  0.2727  0.0563  0.0631
 3441W        W19250   3.744   1.173  14.023 -0.2212 -0.1684 -0.1354
 3442W        W19251  13.487  16.831   1.639  0.3294 -0.0738  0.1227
 3443W        W19252   2.579   3.609  15.199  0.1182 -0.1584 -0.2821
 3444W        W19253   6.578   5.882  11.997  0.0774  0.2192 -0.0929
 3445W        W19254  14.763   9.149   4.413  0.0042 -0.2580 -0.1658
 3446W        W19255  12.966   4.553   0.965  0.0536  0.3998 -0.1847
 3447W        W19256  11.234  13.603   3.908  0.1041  0.0774  0.1087
 3448W        W19257   3.504  11.502  14.102  0.0825 -0.1239  0.1637
 3449W        W19258  10.678  16.877  15.162  0.0804 -0.3312 -0.0292
 3450W        W19259   3.207  14.116  12.840 -0.0230  0.1180 -0.1137
 3451W        W19260  14.742  10.735  11.630  0.1649  0.3538 -0.1052
 3452W        W19261  15.417  13.898  11.838 -0.0235  0.1034 -0.0669
 3453W        W19262   6.093  13.766  14.358 -0.0465  0.0663  0.0154
 3454W        W19263  10.242  13.332  14.472 -0.1637 -0.2080 -0.1228
 3455W        W19264   9.716   3.799  12.058  0.1979  0.2722  0.1503
 3456W        W19265   0.852   1.567   4.459  0.1506 -0.2054  0.0744
 3457W        W19266  10.045   0.889   2.505 -0.4030  0.0494  0.0580
 3458W        W19267  15.417  15.602  13.832  0.1118 -0.0214  0.1308
 3459W        W19268   3.004   3.483  15.093  0.1413 -0.0147  0.0669
 3460W        W19269   9.267   3.405  15.266  0.1588 -0.0582 -0.1504
 3461W        W19270  10.132  12.373  14.861  0.2658  0.1491  0.0003
 3462W        W19271  12.010   9.682   0.994  0.0313 -0.2876 -0.2281
 3463W        W19272  17.219   7.199  12.534 -0.2380 -0.3109 -0.0600
 3464W        W19273  15.346  12.072   1.436 -0.0523 -0.1431  0.0455
 3465W        W19274   4.440  17.916  11.157 -0.1413 -0.2387  0.1947
 3466W        W19275   1.424   5.307   1.889 -0.0264  0.0189 -0.1326
 3467W        W19276   9.577  13.018   3.512  0.1981 -0.0813  0.0442
 3468W        W19277  11.072   8.573   1.386  0.0863 -0.1411  0.3333
 3469W        W19278   2.585   9.838   2.365  0.1856  0.0492  0.3852
 3470W        W19279   0.828  12.284   0.854 -0.3367  0.0292 -0.1929
 3471W        W19280   3.772   0.147   0.657 -0.0892  0.3347  0.0047
 3472W        W19281  11.691  18.229  14.315  0.1130 -0.0497  0.0851
 3473W        W19282   8.202  12.966  11.249 -0.1939 -0.0204  0.0454
 3474W        W19283  11.077   3.331  14.508  0.4765  0.2360 -0.1819
 3475W        W19284   5.258   6.628   1.628  0.0245  0.0319 -0.1057
 3476W        W19285  15.491   7.540  10.988  0.1796 -0.3211 -0.0278
 3477W        W19286   5.235  10.558  14.361  0.4060  0.0866 -0.0966
 3478W        W19287   7.857  15.576   2.678  0.4464 -0.2236  0.1065
 3479W        W19288   3.700   6.240   1.147  0.1790  0.3931  0.0118
 3480W        W19289   6.867   0.135  13.705  0.2365 -0.1730  0.0567
 3481W        W19290  12.673   9.002  13.786 -0.1907 -0.0048  0.1898
 3482W        W19291  10.618   6.566   3.132 -0.1947 -0.0222  0.2034
 3483W        W19292  16.921  16.612  12.480  0.0724  0.1124 -0.2761
 3484W        W19293   2.033   3.786   4.617  0.2974 -0.0439 -0.1677
 3485W        W19294  18.127  15.171  11.561 -0.1086  0.0362  0.0158
 3486W        W19295  11.350  15.377  15.074  0.2681  0.0655  0.0044
 3487W        W19296   1.103   9.849   1.493 -0.0060 -0.0273 -0.2386
 3488W        W19297   4.606   9.728   3.680  0.0568 -0.0396  0.0357
 3489W        W19298  11.297  11.140  11.608 -0.3237 -0.0938  0.0376
 3490W        W19299   0.579  10.076  10.679  0.0041  0.2152  0.0713
 3491W        W19300   9.172  18.011   5.264  0.1617  0.0466  0.1308
 3492W        W19301  14.461   5.094  12.028  0.1678  0.0508  0.0386
 3493W        W19302  14.640  10.909  14.931  0.1591 -0.2483 -0.3483
 3494W        W19303   6.009  10.938   9.794  0.1389 -0.0981 -0.0747
 3495W        W19304   9.754   4.522  14.519 -0.1155  0.1806 -0.1245
 3496W        W19305  16.737   3.790   0.966 -0.1317  0.0427 -0.1454
 3497W        W19306  18.069   8.222   3.111 -0.1070 -0.1814  0.2426
 3498W        W19307  16.944   4.586   1.469 -0.2904 -0.0865  0.0530
 3499W        W19308  15.647   7.184  12.866  0.1487  0.1052 -0.2168
 3500W        W19309   0.923   8.260   3.564  0.0225  0.0445  0.0409
 3501W        W19310   0.324  12.649   3.772 -0.0365  0.0233 -0.1963
 3502W        W19311   3.227  11.379  14.773 -0.1932 -0.0172  0.0600
 3503W        W19312   5.409   3.285   3.417  0.2126 -0.2801 -0.1684
 3504W        W19313   3.945  13.617  12.564  0.2406  0.0120  0.3195
 3505W        W19314  17.840  18.445  14.741 -0.2086 -0.1338 -0.5134
 3506W        W19315   6.043  10.379  10.358 -0.3513  0.3385 -0.1917
 3507W        W19316  18.504  16.201  11.648 -0.3313 -0.1899  0.2626
 3508W        W19317   3.859  15.767  12.544  0.1751  0.0205 -0.2325
 3509W        W19318  14.198  16.536   1.251 -0.3383 -0.1049 -0.1078
 3510W        W19319   0.529  15.389  15.188  0.1237  0.0937 -0.2388
 3511W        W19320   6.394  17.097   2.595 -0.2160 -0.1030  0.0638
 3512W        W19321   6.489  10.119  13.038 -0.3074  0.1506  0.1522
 3513W        W19322  13.100  12.391   4.996 -0.0976  0.0571 -0.1503
 3514W        W19323  12.557  11.884  10.891 -0.0592  0.0532 -0.0721
 3515W        W19324   9.491  11.572  10.380 -0.0109  0.1723 -0.2071
 3516W        W19325   2.498   0.806   2.125  0.3838 -0.0612  0.0906
 3517W        W19326  13.878   2.753   2.119 -0.2580 -0.0314 -0.1404
 3518W        W19327   6.236   8.631  10.916  0.2552 -0.1439 -0.3142
 3519W        W19328  12.124  12.770  14.248  0.1486 -0.1397  0.0330
 3520W        W19329   1.586  13.682   4.333  0.2856 -0.3897  0.1031
 3521W        W19330  10.556   4.726  14.851  0.0312  0.3700 -0.2582
 3522W        W19331  18.238   4.114  12.979 -0.1177  0.4134  0.1742
 3523W        W19332  11.006  14.449  11.838  0.0257 -0.0068 -0.0595
 3524W        W19333   3.227  18.475  11.740  0.0565  0.3688  0.2717
 3525W        W19334  18.319  15.094  11.046 -0.2216 -0.0367  0.0348
 3526W        W19335   6.906   1.496  14.501  0.0054 -0.1787 -0.2062
 3527W        W19336   0.570   2.121  14.923  0.0967  0.1801 -0.1629
 3528W        W19337   5.120  15.638  14.112  0.4380 -0.0055 -0.0478
 3529W        W19338   4.795  13.984  12.806  0.2039  0.1263 -0.0558
 3530W        W19339   2.485   0.055  15.248  0.4210  0.0632 -0.0285
 3531W        W19340   5.743  11.303   4.948  0.2659 -0.0245  0.0567
 3532W        W19341   9.077   1.335   5.298  0.0927 -0.3783  0.0955
 3533W        W19342   3.145   5.221  12.965  0.3385 -0.0577 -0.0482
 3534W        W19343  15.813   7.047   4.454 -0.2179 -0.0758  0.1087
 3535W        W19344  13.585   0.766  11.747  0.3994 -0.1300  0.2487
 3536W        W19345   3.312  11.734   0.824  0.1438  0.0260 -0.2749
 3537W        W19346  15.498  13.183   3.767 -0.0626 -0.0709  0.0860
 3538W        W19347  15.383   0.770  14.630  0.0130 -0.0991 -0.0235
 3539W        W19348  10.912  17.734  14.000  0.1072 -0.0756  0.0524
 3540W        W19349  11.269  12.206  14.335 -0.1652 -0.1419 -0.1146
 3541W        W19350  13.923   8.474   2.819  0.2419  0.0167 -0.0759
 3542W        W19351  18.211   1.697   9.548  0.3402 -0.0073  0.1163
 3543W        W19352  14.873   7.008   1.212  0.1951  0.2792  0.0550
 3544W        W19353   3.935   0.412   4.427 -0.2246  0.0363 -0.1073
 3545W        W19354   9.110  14.749  14.421  0.0206 -0.0298 -0.1707
 3546W        W19355   4.117  14.663  14.196 -0.1820 -0.0631 -0.1566
 3547W        W19356   6.999   2.563  13.454 -0.3515  0.0360  0.1089
 3548W        W19357   0.439  14.011   2.516 -0.0205 -0.1349 -0.1949
 3549W        W19358   1.142  11.876  12.040 -0.1360 -0.1678 -0.0842
 3550W        W19359   3.148   1.182  13.929  0.0595 -0.1276  0.1010
 3551W        W19360  16.481   5.479   3.676 -0.2254  0.2874 -0.0299
 3552W        W19361   2.431   7.635   2.277  0.2119  0.2585 -0.1363
 3553W        W19362   5.596  11.472   0.108 -0.2107  0.1599  0.0706
 3554W        W19363   1.466  14.088  13.450  0.1143 -0.0761 -0.0136
 3555W        W19364  11.338  14.736   0.361 -0.0210 -0.3311 -0.0034
 3556W        W19365  11.783   1.260  12.081 -0.3761 -0.0370  0.0299
 3557W        W19366   6.473   4.484   4.035 -0.0007 -0.2309 -0.0396
 3558W        W19367  10.827  10.620   4.893  0.2979  0.1634  0.1842
 3559W        W19368  18.101   3.441   2.499 -0.2012 -0.5658  0.2421
 3560W        W19369   0.720   4.556   3.068  0.3567  0.2626 -0.0322
 3561W        W19370  13.494   2.231   0.988  0.1414 -0.2651 -0.1804
 3562W        W19371   1.106   1.674   0.737 -0.0992 -0.0056  0.2081
 3563W        W19372   9.625   1.462   1.164 -0.1855 -0.2491 -0.2383
 3564W        W19373   3.755   2.717   0.636 -0.1605 -0.3074 -0.0492
 3565W        W19374   1.273  12.167  12.728 -0.3203  0.1692  0.2033
 3566W        W19375   9.836  11.759   2.329  0.0851 -0.2769  0.0993
 3567W        W19376  17.485   6.337   1.441 -0.0820 -0.4507 -0.0348
 3568W        W19377   3.058  11.463   2.405 -0.0680 -0.0735  0.0235
 3569W        W19378   9.590   3.975  13.979  0.0962  0.0287  0.1713
 3570W        W19379  11.847   4.408  11.205 -0.5062  0.0292  0.0858
 3571W        W19380  14.078   1.013  11.959 -0.1730 -0.0421 -0.1528
 3572W        W19381   4.880  15.895   0.385  0.1375 -0.0038  0.1124
 3573W        W19382   9.821   4.273   2.131 -0.1099  0.3252 -0.0438
 3574W        W19383   5.532  18.739  12.840 -0.1949  0.1944  0.1829
 3575W        W19384  13.787   1.823  10.704  0.1532 -0.0389 -0.2318
 3576W        W19385  18.827   4.816  11.117  0.0275 -0.1043 -0.1834
 3577W        W19386  17.783   9.965   5.238 -0.4189 -0.1143  0.0031
 3578W        W19387   6.226  14.352  13.481 -0.0403 -0.2230 -0.1623
 3579W        W19388  17.464   8.637  10.305 -0.0968  0.0677 -0.2899
 3580W        W19389   9.384  17.510  14.210  0.1953  0.0703  0.0127
 3581W        W19390  12.041   7.529  10.568  0.0918 -0.2239 -0.3622
 3582W        W19391   0.994  11.744   5.151 -0.0882  0.2617  0.2448
 3583W        W19392  15.623  11.600   4.798  0.3955 -0.1109  0.1387
 3584W        W19393   7.816  10.084   0.535 -0.0672 -0.5809 -0.2855
 3585W        W19394  15.973  16.636  15.259  0.0929  0.0422 -0.0340
 3586W        W19395   5.500   0.205  15.244 -0.1142  0.5006 -0.0447
 3587W        W19396   4.096  18.130   2.012  0.0074 -0.0620  0.1282
 3588W        W19397  16.197   2.339   1.680 -0.0510 -0.0237 -0.3380
 3589W        W19398   6.954  14.869   9.362 -0.3104  0.1671 -0.1299
 3590W        W19399   9.081  14.666   2.373  0.0224 -0.3699  0.0049
 3591W        W19400   9.028  16.926  14.094  0.3220 -0.1917 -0.0412
 3592W        W19401  12.161   3.347   0.211  0.1480 -0.0027  0.1195
 3593W        W19402  14.113  18.443   5.776  0.0029 -0.0074  0.2163
 3594W        W19403   8.667   1.282   0.055  0.4038 -0.1045 -0.3345
 3595W        W19404   7.442  14.565  12.088  0.2320  0.2248 -0.2400
 3596W        W19405   1.437   1.447  14.582  0.0050 -0.2272  0.0129
 3597W        W19406  15.358   9.229  14.727 -0.0108 -0.4846 -0.1260
 3598W        W19407   0.107  13.022   2.363  0.3296  0.1841 -0.2918
 3599W        W19408   4.226  17.896   1.338  0.3770  0.2006 -0.0399
 3600W        W19409   9.638  12.519   2.626  0.4216  0.0614 -0.2732
 3601W        W19410   3.474  18.773  13.077  0.0783  0.0905  0.0669
 3602W        W19411  10.429   6.563   3.598  0.0214  0.0649 -0.0032
 3603W        W19412   7.372  10.316  10.884 -0.0076 -0.0910  0.3009
 3604W        W19413   3.698  13.833   0.254  0.0189 -0.0143  0.0895
 3605W        W19414  15.043  11.807  15.059  0.0195  0.2051  0.1979
 3606W        W19415  15.149   9.958  12.278  0.0594 -0.0618 -0.0474
 3607W        W19416   2.800   9.384  12.737  0.1481  0.0992 -0.1762
 3608W        W19417   3.879   2.901  13.394 -0.0548  0.0366  0.0360
 3609W        W19418  14.599  15.110  12.796 -0.0999 -0.2728  0.0305
 3610W        W19419  18.175   9.997   0.223 -0.4613 -0.0708  0.1239
 3611W        W19420   2.421   4.440  12.189  0.0484 -0.0652  0.1133
 3612W        W19421   3.961   8.675   5.437 -0.0133 -0.2971  0.2537
 3613W        W19422   5.578  11.786  13.658  0.2427 -0.3641  0.1320
 3614W        W19423  10.315  14.360  14.294 -0.0983 -0.1011 -0.2412
 3615W        W19424   2.326   3.160   4.320  0.6696 -0.0388  0.1237
 3616W        W19425   3.244   4.325   4.067  0.2189  0.1707 -0.3452
 3617W        W19426   1.343   5.710  13.227 -0.1857 -0.0847  0.2996
 3618W        W19427  13.414  18.851  14.443 -0.2959 -0.3945  0.2695
 3619W        W19428   4.122  13.553  15.218  0.2027 -0.2632 -0.1852
 3620W        W19429   3.698   3.243   1.052 -0.1380 -0.6006 -0.0637
 3621W        W19430  10.732   9.848  15.077 -0.1953 -0.0295 -0.3802
 3622W        W19431  16.398  11.182  15.218 -0.0841 -0.1765  0.0497
 3623W        W19432  16.749  10.252   2.511 -0.0361 -0.0924 -0.0517
 3624W        W19433  18.341  11.175  11.839  0.0257  0.0038 -0.1556
 3625W        W19434   1.092   2.469   3.657 -0.0430  0.3579 -0.1267
 3626W        W19435  11.970  16.466  15.158 -0.0559  0.1251 -0.0123
 3627W        W19436  10.403   5.769  12.088  0.0163  0.4287 -0.2255
 3628W        W19437  14.226  18.560   0.706  0.1665 -0.0327  0.1328
 3629W        W19438  15.477  17.856  11.624 -0.0733 -0.2355  0.0154
 3630W        W19439  16.770  14.073   0.696 -0.1166 -0.2365  0.2467
 3631W        W19440   2.708  14.541   3.314 -0.1101  0.1582 -0.5111
 3632W        W19441   3.813   0.204   5.018  0.2212  0.0366 -0.1876
 3633W        W19442  13.721  13.790  14.759 -0.1496 -0.1909 -0.2508
 3634W        W19443   1.752  14.736   4.759 -0.3321 -0.2375  0.0696
 3635W        W19444  17.277   1.381  10.566  0.0648 -0.3774  0.1730
 3636W        W19445  12.142   1.097   3.699 -0.2948  0.1926 -0.4010
 3637W        W19446   8.700  16.545   0.759 -0.1299 -0.1119  0.0438
 3638W        W19447  14.425   5.834   0.890  0.0004  0.1765 -0.1688
 3639W        W19448  15.184   4.162   0.161 -0.3264  0.3836  0.2145
 3640W        W19449   6.469   5.232  13.239 -0.0821  0.3945  0.1009
 3641W        W19450  13.142   1.441   4.817  0.0056 -0.1880  0.0337
 3642W        W19451   8.605   7.072  13.829  0.2148 -0.0041 -0.2845
 3643W        W19452  17.435   5.127   3.684  0.3262 -0.2264 -0.0734
 3644W        W19453   7.411   1.940  11.596 -0.1115  0.0876 -0.1627
 3645W        W19454  11.561   9.483  12.395 -0.0009  0.0083 -0.0978
 3646W        W19455   8.483  13.961  13.798  0.0057 -0.0899  0.1732
 3647W        W19456  11.035   8.513  10.538 -0.0521  0.0589 -0.0416
 3648W        W19457   8.254  18.274  11.702  0.2922  0.1096 -0.2198
 3649W        W19458   9.092   0.819   5.438 -0.1538 -0.0124 -0.0719
 3650W        W19459  11.655   3.982   3.196  0.1278 -0.1468  0.1221
 3651W        W19460  13.324   6.738   0.353  0.2706  0.4925 -0.2034
 3652W        W19461  12.045   9.546   5.490  0.0877  0.3250  0.1722
 3653W        W19462   5.176  19.018   3.408  0.1745  0.1814 -0.2237
 3654W        W19463   7.553  12.167  11.933 -0.1000  0.0535  0.3115
 3655W        W19464   0.438   4.103   4.331  0.1272 -0.0003  0.3258
 3656W        W19465  19.017   5.215   5.489  0.0215  0.0150 -0.1723
 3657W        W19466   9.789   5.810   2.415  0.3757 -0.1151  0.4063
 3658W        W19467  14.204   3.013  14.200  0.1640  0.2477  0.1399
 3659W        W19468  11.306   7.930  14.281 -0.4545 -0.2916 -0.3025
 3660W        W19469  10.087  18.923   4.306  0.3023 -0.0550  0.2405
 3661W        W19470  11.340   8.621   2.289 -0.1805  0.0154  0.2281
 3662W        W19471  14.912   9.497  10.539 -0.1207 -0.3972  0.0085
 3663W        W19472  10.347  17.937  12.800 -0.0406  0.4423 -0.0531
 3664W        W19473  16.633   6.942   4.151  0.3893 -0.0760  0.3434
 3665W        W19474   5.171   7.183   5.289 -0.0786 -0.0280 -0.1081
 3666W        W19475   2.767   4.071  12.964 -0.1043  0.0118  0.0482
 3667W        W19476  14.174  10.153  15.042 -0.3902  0.0620 -0.1254
 3668W        W19477  12.488  17.899  14.919 -0.1114  0.2956 -0.0255
 3669W        W19478  18.137  16.605   0.982  0.1039  0.0738 -0.2445
 3670W        W19479  17.410  13.593  14.492  0.3476 -0.0280 -0.1712
 3671W        W19480  17.471  13.091   3.804  0.2521 -0.0896 -0.0181
 3672W        W19481  17.413  15.126   3.205 -0.1474  0.3204 -0.2229
 3673W        W19482   0.522   7.856   5.546 -0.0625 -0.2806  0.0970
 3674W        W19483   9.574   2.327   4.430  0.3387 -0.0051  0.3123
 3675W        W19484  17.011  16.991   0.793 -0.0257 -0.1799 -0.1453
 3676W        W19485  13.632   7.262  14.602  0.0419 -0.1930 -0.3157
 3677W        W19486   8.034   2.466   2.726 -0.0761  0.0822 -0.1357
 3678W        W19487   0.573  13.042  13.837  0.0805  0.0149  0.1451
 3679W        W19488   3.953   3.108  12.155 -0.0874 -0.2031  0.0633
 3680W        W19489   9.283  12.451  13.432  0.1227 -0.0402  0.0912
 3681W        W19490   9.539  18.668   1.754  0.0668 -0.0297 -0.2396
 3682W        W19491   5.080  11.809  13.499  0.3730  0.2488  0.1400
 3683W        W19492  15.812  18.369   3.514 -0.2801  0.0297  0.0576
 3684W        W19493   0.239   9.496  12.851  0.1958 -0.0031  0.0804
 3685W        W19494  10.761   5.443   3.748  0.1818 -0.2145 -0.0203
 3686W        W19495   4.178   6.458  15.280 -0.0887  0.1873 -0.0664
 3687W        W19496  17.423   8.391   0.716  0.2820  0.5234  0.1997
 3688W        W19497   6.891   7.464  10.741  0.0048  0.1919  0.1526
 3689W        W19498   5.433  12.842   1.825  0.0443  0.2985 -0.0174
 3690W        W19499   1.048   7.892   2.183 -0.0697 -0.3165 -0.1453
 3691W        W19500   9.499  11.008   2.911 -0.0729  0.0408  0.2445
 3692W        W19501   1.598  11.628   4.138  0.3912  0.0765 -0.2209
 3693W        W19502  18.636  12.550  14.044 -0.0279  0.1633  0.0191
 3694W        W19503   7.641  11.640  13.735  0.2280 -0.0012 -0.5289
 3695W        W19504  14.613  12.074  13.399 -0.2728 -0.1347 -0.0695
 3696W        W19505   6.931  12.213   2.809 -0.1002 -0.0458  0.3597
 3697W        W19506   0.592   4.692  12.612  0.0145  0.1207 -0.0135
 3698W        W19507   5.967  11.319  14.335 -0.1545  0.0252 -0.0531
 3699W        W19508   4.767  14.628  13.997  0.0234  0.0477 -0.1908
 3700W        W19509   8.757  16.346  10.654  0.2881 -0.0732  0.2767
 3701W        W19510   6.522   7.644   2.960 -0.0663  0.1879 -0.0299
 3702W        W19511   7.122   7.025   1.519 -0.0507 -0.0651  0.3384
 3703W        W19512  18.553  12.334   0.665 -0.3197 -0.2808  0.2889
 3704W        W19513   0.857  17.269   3.480  0.0213  0.0195  0.3967
 3705W        W19514   0.887   5.346  11.204 -0.0971  0.0304  0.1582
 3706W        W19515   7.489   4.847   0.301  0.0756  0.0120 -0.0659
 3707W        W19516   4.988  13.768   2.394  0.0753 -0.1743 -0.0699
 3708W        W19517   8.329   0.310  15.112 -0.2339 -0.1913 -0.1171
 3709W        W19518  10.943  14.740   1.130 -0.3955  0.1084  0.1858
 3710W        W19519  10.812  10.355  10.778 -0.0054  0.1107 -0.1798
 3711W        W19520  10.925   7.628  11.232  0.0387  0.3116 -0.1433
 3712W        W19521   5.785  18.795  13.780 -0.0369  0.0765  0.2417
 3713W        W19522   2.702  17.859   4.047  0.2099  0.1357  0.3591
 3714W        W19523  13.476  15.396  13.688 -0.3173 -0.0394 -0.2303
 3715W        W19524   2.056   9.680   1.360 -0.3959  0.1363 -0.0443
 3716W        W19525  10.252   3.511   4.236 -0.3332  0.1763  0.2955
 3717W        W19526  11.624  12.670   2.097  0.0318  0.1214 -0.0942
 3718W        W19527  18.304  11.307   4.931  0.2286 -0.2254  0.0200
 3719W        W19528   0.814  13.218   0.617  0.1964 -0.0231  0.1487
 3720W        W19529   6.492   7.707   1.450  0.2306  0.1177  0.1451
 3721W        W19530   3.512   4.618   4.471  0.0796 -0.0586  0.1309
 3722W        W19531   3.188  17.855  15.274  0.0348 -0.0902 -0.0823
 3723W        W19532  13.029   2.844  10.765  0.1057  0.0562 -0.0719
 3724W        W19533  11.452  11.373   4.262 -0.0747 -0.2209 -0.0451
 3725W        W19534  13.077  10.672  11.873  0.1963 -0.1877  0.1604
 3726W        W19535   7.187  11.462   0.254 -0.1253 -0.0740  0.1718
 3727W        W19536   9.776  10.468  15.042 -0.0989 -0.0399 -0.0277
 3728W        W19537  10.041   5.355   2.363  0.1058  0.0367  0.1047
 3729W        W19538   3.573   4.446   0.414 -0.0609  0.5192 -0.0438
 3730W        W19539   7.819   1.491  12.052  0.0094 -0.1696 -0.0861
 3731W        W19540  12.417   4.194  13.618 -0.2353  0.0109 -0.4357
 3732W        W19541   5.464   6.233  13.544 -0.1085  0.2036  0.4139
 3733W        W19542  16.401   7.614  13.608  0.0879  0.1110  0.1870
 3734W        W19543  15.037   8.950  11.336  0.1671  0.1295  0.3872
 3735W        W19544   3.755  11.102   0.971  0.1345 -0.1652  0.0346
 3736W        W19545   6.507  18.043  13.538  0.2183 -0.1327 -0.1128
 3737W        W19546  11.107   8.235  13.461 -0.1931  0.0826  0.3997
 3738W        W19547  16.959   2.051   0.162 -0.0750 -0.1124 -0.1132
 3739W        W19548   3.428  15.754   2.745 -0.2719  0.2651 -0.0217
 3740W        W19549   6.916  13.258   0.962  0.2292  0.0047 -0.2718
 3741W        W19550   8.989  18.236  13.116 -0.1354 -0.0736  0.1085
 3742W        W19551   1.294   7.439  14.003  0.1922  0.0385 -0.0066
 3743W        W19552   0.156   1.930  13.632 -0.3267 -0.3696 -0.1890
 3744W        W19553  11.607   1.649   3.571  0.0482 -0.0130  0.1727
 3745W        W19554   9.886   6.029   0.808  0.0496 -0.2495 -0.0851
 3746W        W19555   8.107   6.313   2.114  0.0063 -0.2725 -0.0517
 3747W        W19556  12.567   0.698  13.838  0.0807  0.2021  0.2943
 3748W        W19557  13.413   0.151   5.088  0.3291 -0.5696 -0.1246
 3749W        W19558   0.843  17.745  15.038  0.0149  0.3038 -0.0521
 3750W        W19559   4.585  17.634  12.082  0.0988 -0.0719 -0.2160
 3751W        W19560   6.683   5.339  14.616  0.0017 -0.0214 -0.0360
 3752W        W19561  15.153  12.256   2.321 -0.0689  0.1518  0.0296
 3753W        W19562   1.319   8.781   4.619 -0.1353 -0.0383  0.0881
 3754W        W19563   4.709  14.697   2.740 -0.0400  0.0746  0.0511
 3755W        W19564   1.575  16.721   2.329  0.1910  0.3046 -0.2390
 3756W        W19565  17.319  10.363   5.098  0.0965 -0.0336  0.0288
 3757W        W19566  17.798   1.138  11.981  0.0161  0.1821  0.1582
 3758W        W19567   3.775   8.453  14.241 -0.3254 -0.1055  0.0840
 3759W        W19568  16.837   5.887  13.363  0.0123  0.3311 -0.0358
 3760W        W19569   0.081   2.794  12.939 -0.2604  0.1164 -0.2955
 3761W        W19570  16.532   0.514   0.322 -0.1719 -0.1019  0.0041
 3762W        W19571  18.483   1.298  12.936 -0.2790  0.0588 -0.1315
 3763W        W19572  12.977  11.164  15.224  0.1534  0.2525  0.0131
 3764W        W19573  18.809   7.579   0.015  0.0306 -0.0113 -0.0334
 3765W        W19574   2.067  13.744   4.131  0.3380  0.0322 -0.0697
 3766W        W19575   8.707   3.695  13.985 -0.0030 -0.1922 -0.5103
 3767W        W19576  16.909  10.472   1.818  0.1368  0.0204  0.0108
 3768W        W19577   0.787  15.868  11.082  0.2147 -0.0285 -0.1392
 3769W        W19578  13.690   2.183   4.890 -0.1921  0.0234  0.0355
 3770W        W19579   5.624   7.725  14.969  0.1953 -0.1234  0.2438
 3771W        W19580   7.077   8.978  14.911 -0.2268  0.1159 -0.0961
 3772W        W19581   3.908   4.742   3.002  0.2055 -0.3079  0.1690
 3773W        W19582  13.604   7.965   4.477 -0.0772  0.0994  0.0072
 3774W        W19583   2.664   6.168   1.479 -0.3962  0.1122 -0.1598
 3775W        W19584  13.348  11.225  14.207 -0.0506 -0.0722 -0.2771
 3776W        W19585   5.959  11.540  13.493 -0.0670  0.1198  0.0600
 3777W        W19586   5.975  10.153  10.819 -0.0463  0.2216 -0.1735
 3778W        W19587  13.149  11.582   4.189 -0.4008  0.0685  0.3227
 3779W        W19588  13.805   1.240  13.985  0.2890 -0.0320  0.1320
 3780W        W19589  15.407   5.086  11.507  0.0847  0.1695  0.1156
 3781W        W19590   7.963  17.574  15.262  0.1618  0.2635  0.1183
 3782W        W19591   3.649   8.637   3.981 -0.2038  0.3167  0.2629
 3783W        W19592   5.584   6.795  14.827 -0.2355  0.2767 -0.3414
 3784W        W19593  14.129  11.584   3.892 -0.2291 -0.0585  0.1778
 3785W        W19594  17.058   6.717   2.983 -0.1393  0.0536  0.1237
 3786W        W19595  14.670  11.558  13.177  0.0220 -0.2990 -0.4539
 3787W        W19596  17.390  10.306   1.688 -0.2344  0.0451  0.1425
 3788W        W19597  15.073   6.983   2.153 -0.0879 -0.2976 -0.2973
 3789W        W19598  17.838   7.100   4.648  0.2005 -0.3727  0.1032
 3790W        W19599  17.813  17.713   1.627  0.0914  0.1080 -0.1232
 3791W        W19600  15.686   2.695   0.813 -0.1041 -0.1678 -0.0896
 3792W        W19601   3.613   7.899  11.493 -0.2677  0.2754 -0.1422
 3793W        W19602  18.500  10.964   3.838  0.2315 -0.0937 -0.1292
 3794W        W19603   3.374  18.821  13.913 -0.0161  0.0221  0.2708
 3795W        W19604   8.307  16.085  10.672 -0.0089  0.0691  0.0346
 3796W        W19605   4.934  11.348   3.170 -0.1301  0.3617  0.2623
 3797W        W19606   5.696   7.460   3.931 -0.1034 -0.0525 -0.0358
 3798W        W19607  15.405   9.630   3.010  0.0038 -0.1253 -0.2580
 3799W        W19608   9.054  12.989   0.061  0.3163  0.0724  0.1234
 3800W        W19609  12.397   3.720  12.275  0.0206 -0.1863  0.0872
 3801W        W19610  13.762  16.824  12.891  0.0906  0.0409 -0.1424
 3802W        W19611  18.165   6.815   4.947  0.2173  0.0537 -0.4018
 3803W        W19612  13.431   9.551   1.574  0.0096 -0.1750  0.1281
 3804W        W19613   1.579   7.624   3.848  0.3150  0.0016 -0.2434
 3805W        W19614  10.706  14.091  15.144 -0.4238  0.2935  0.1246
 3806W        W19615  16.869  12.799  11.009  0.1062  0.0670  0.0508
 3807W        W19616  14.862  18.453  11.707  0.0593 -0.0916 -0.0181
 3808W        W19617  14.878  16.099  11.965  0.0967 -0.1782  0.0760
 3809W        W19618   7.862  15.858  10.466  0.2765 -0.1500 -0.0311
 3810W        W19619  13.890   9.477  14.464 -0.1280  0.0153 -0.2035
 3811W        W19620   9.368  12.635   0.191  0.2485  0.0714  0.0955
 3812W        W19621   5.228   3.580   2.425 -0.0731 -0.1621 -0.4004
 3813W        W19622   5.349   8.022   1.008  0.0334  0.1994  0.0854
 3814W        W19623   4.192   8.801  11.860 -0.0558 -0.3444  0.1299
 3815W        W19624   7.686   1.435   4.303 -0.2988  0.0226 -0.1252
 3816W        W19625   4.309  16.435   1.314  0.1362  0.3275 -0.2840
 3817W        W19626  15.569   8.225   1.433 -0.1712 -0.0248  0.1751
 3818W        W19627   1.307  16.765   4.739  0.1746 -0.1632  0.4204
 3819W        W19628   6.084   0.601   2.203  0.0036  0.1028  0.2069
 3820W        W19629  16.698  17.733  13.605  0.1803 -0.1722 -0.1587
 3821W        W19630   2.133  10.219  11.619  0.0973 -0.3212 -0.0849
 3822W        W19631   5.282   5.093  12.250  0.0913  0.2479 -0.1815
 3823W        W19632   6.417   9.268   3.056  0.2732  0.0493  0.1815
 3824W        W19633  16.753   5.202   5.041  0.3042 -0.0459  0.1400
 3825W        W19634   6.155  14.035   0.473 -0.0024 -0.0892 -0.1579
 3826W        W19635   0.560  15.345  10.951 -0.1524  0.0641 -0.0435
 3827W        W19636   5.546  13.073  12.601 -0.2611 -0.1312  0.2546
 3828W        W19637  12.908  18.608  13.762  0.0792 -0.1840  0.1730
 3829W        W19638   9.211   9.879   3.330  0.1969  0.1735 -0.2548
 3830W        W19639   9.253   8.440   3.804  0.1764 -0.1274  0.1168
 3831W        W19640  10.810   4.495  14.416  0.1958 -0.0937 -0.1769
 3832W        W19641  17.347   7.769   3.571 -0.2288  0.1713 -0.1810
 3833W        W19642   2.797   9.721  13.626  0.0139 -0.1340 -0.1935
 3834W        W19643   4.635  17.652   3.246 -0.0664 -0.1333 -0.0845
 3835W        W19644  18.843  10.612  12.503  0.1895 -0.5010  0.0067
 3836W        W19645  16.714   5.821   3.260  0.2994 -0.3189 -0.0450
 3837W        W19646  18.077  14.419  15.127  0.3491 -0.0642  0.0980
 3838W        W19647   4.006  10.200   4.868  0.0114  0.2548 -0.0134
 3839W        W19648   3.057  13.196   3.388  0.0781  0.1229  0.1303
 3840W        W19649   8.124   3.311   9.654  0.3158 -0.1002 -0.1970
 3841W        W19650  11.231   6.122   4.715  0.1789 -0.1917 -0.1125
 3842W        W19651  13.563  14.068  13.488 -0.5924  0.2181  0.0214
 3843W        W19652   8.774   6.932  12.961 -0.2831  0.0855  0.1232
 3844W        W19653  10.799   0.870  11.824  0.0146 -0.1189  0.2665
 3845W        W19654   7.388  14.070  12.079  0.0192 -0.0667  0.0458
 3846W        W19655   6.892   8.624  11.533 -0.3260  0.1381 -0.1308
 3847W        W19656  11.096   2.351   6.179 -0.3533  0.1434  0.0804
 3848W        W19657   3.400  15.048  13.815 -0.2823  0.0217 -0.1315
 3849W        W19658   2.980   3.706   4.599 -0.3055  0.0979 -0.0465
 3850W        W19659  18.382  11.697  12.879 -0.4333  0.0885 -0.0242
 3851W        W19660   2.285   3.178  10.898  0.3965  0.0197 -0.3639
 3852W        W19661  10.421  11.099  13.182  0.0998  0.0813 -0.0594
 3853W        W19662  13.398  11.290   1.130 -0.1311  0.0448  0.0709
 3854W        W19663  11.513  13.950  15.241  0.0165 -0.0668 -0.1070
 3855W        W19664  12.761   2.352   5.082  0.0674  0.3514  0.0736
 3856W        W19665  14.965  18.112  13.530  0.0364  0.3494  0.1386
 3857W        W19666   1.649   0.830  11.647  0.1734 -0.0680 -0.0169
 3858W        W19667   2.917  16.865  12.576 -0.2845  0.1024 -0.2075
 3859W        W19668  14.572  11.210  13.524 -0.1036 -0.1437  0.2774
 3860W        W19669  10.860   2.056  11.023  0.2956  0.1840  0.3234
 3861W        W19670  14.032  10.158  13.693  0.1023  0.0165 -0.0611
 3862W        W19671  13.902   7.165  15.082  0.0249 -0.1403  0.0181
 3863W        W19672   0.088  17.407   2.172  0.1272  0.0565 -0.0529
 3864W        W19673  18.411   2.346   0.092 -0.0464 -0.1594 -0.0060
 3865W        W19674   6.227   7.299  12.097 -0.0823  0.0742  0.1431
 3866W        W19675  12.420  12.891   2.151 -0.1001 -0.0904 -0.3290
 3867W        W19676   0.917  15.799   1.386  0.1830  0.1338  0.1708
 3868W        W19677   3.933   1.355   2.349 -0.0968 -0.1671  0.0476
 3869W        W19678  10.125   6.824   0.875 -0.2004 -0.1065  0.0177
 3870W        W19679   5.554  10.044   3.467 -0.2370 -0.0789  0.0524
 3871W        W19680   6.434   8.092  11.696 -0.0774 -0.0240  0.3302
 3872W        W19681   0.819  17.938   0.827  0.0025 -0.2493 -0.0278
 3873W        W19682  17.330  17.218  10.504  0.0615  0.0654  0.1378
 3874W        W19683  13.423  14.865  14.072 -0.0932  0.1539 -0.2202
 3875W        W19684  10.624  18.891   2.691  0.1477 -0.1819  0.0986
 3876W        W19685   7.304   9.462  10.926  0.2641  0.2447 -0.0355
 3877W        W19686   1.381   6.151  10.105  0.2535 -0.1109 -0.2309
 3878W        W19687   5.977   9.450   3.637 -0.0446 -0.3171 -0.1051
 3879W        W19688   1.510  16.508  10.832 -0.1990  0.1749 -0.0904
 3880W        W19689  16.632  11.885  13.827 -0.1717 -0.4158  0.0772
 3881W        W19690   9.670   3.828  14.571  0.3385 -0.2186  0.0327
 3882W        W19691  12.439  15.932  10.855 -0.0799 -0.3400  0.0501
 3883W        W19692   2.542   7.812   0.080 -0.1167 -0.0344 -0.1545
 3884W        W19693  10.350   1.661   3.630  0.0934  0.3242 -0.0310
 3885W        W19694  17.597  16.346  14.787  0.0708 -0.0485 -0.1433
 3886W        W19695   6.298   5.383  12.439  0.0173  0.1581  0.1543
 3887W        W19696   2.552  15.715   3.804 -0.0057 -0.4065  0.0529
 3888W        W19697  11.894  10.437   2.999 -0.0632  0.0702 -0.0624
 3889W        W19698   3.085  17.023   0.156 -0.1600  0.0410 -0.1566
 3890W        W19699  17.951  17.740  13.605  0.0641  0.0073  0.0698
 3891W        W19700   2.917  17.125  13.033 -0.3230 -0.0995  0.0950
 3892W        W19701  14.734   4.206  13.411 -0.1599  0.1700  0.3183
 3893W        W19702  11.937   1.208   5.562  0.2848  0.0668 -0.2886
 3894W        W19703   7.215  16.815   0.866 -0.3053 -0.1703  0.2378
 3895W        W19704  12.382   3.990  12.721 -0.0736  0.2310 -0.0065
 3896W        W19705  14.259   1.387   2.841  0.2209  0.0270 -0.4299
 3897W        W19706  17.739  18.095   3.192  0.2986  0.1818 -0.1085
 3898W        W19707  10.636  11.092  14.101  0.0378  0.1170  0.1917
 3899W        W19708  11.477   4.483   1.832  0.0816 -0.1101  0.3213
 3900W        W19709  13.785  12.814  10.083  0.0555  0.2840 -0.0777
 3901W        W19710  18.953   5.694  14.287  0.0954  0.0810 -0.0644
 3902W        W19711  18.799  13.257   3.708  0.5620 -0.1872 -0.1728
 3903W        W19712  15.897  15.232  11.625 -0.3189 -0.0487  0.2187
 3904W        W19713   0.578  17.296   4.589 -0.1152  0.0445  0.0452
 3905W        W19714   6.322   8.087   3.765 -0.0313  0.0520  0.1655
 3906W        W19715   5.058   6.804  10.702 -0.1457 -0.0629 -0.1929
 3907W        W19716  10.417  16.620   0.551  0.5569 -0.0879 -0.0759
 3908W        W19717  11.963  16.656  10.675 -0.2799 -0.0352  0.0280
 3909W        W19718  12.607  16.785  14.750 -0.1777  0.2181  0.1361
 3910W        W19719   7.409   8.205   1.467 -0.0544  0.0539  0.0815
 3911W        W19720  12.398   8.892  13.411 -0.1831  0.0103 -0.4269
 3912W        W19721   3.537   9.002  12.943  0.2754 -0.0641 -0.1605
 3913W        W19722   6.089   7.511   2.295 -0.3791 -0.0139  0.1971
 3914W        W19723   2.462   2.766  11.825 -0.1624 -0.1199  0.0139
 3915W        W19724   4.964  18.095  14.687  0.0021  0.2106 -0.0740
 3916W        W19725  11.063   7.069  12.841 -0.0973  0.1282  0.2318
 3917W        W19726  11.514   5.735   4.896  0.1581 -0.0740 -0.0492
 3918W        W19727  13.498   5.272   4.545  0.0942  0.0041  0.1607
 3919W        W19728  17.304   9.798  15.147 -0.1148  0.2420 -0.2941
 3920W        W19729  16.994   7.135  14.018 -0.1545  0.1400  0.0619
 3921W        W19730   1.212   0.955  10.421  0.0225 -0.2356  0.0737
 3922W        W19731   5.655   0.646  13.268  0.0108 -0.0393 -0.1220
 3923W        W19732   3.385   2.559  11.820 -0.2558 -0.0435 -0.2919
 3924W        W19733   5.521   7.092  10.504  0.1679  0.3287 -0.0375
 3925W        W19734  12.760   9.426  11.420  0.1832  0.0791 -0.0470
 3926W        W19735  10.121  14.077  10.757 -0.3095 -0.1990  0.2134
 3927W        W19736   5.460  13.616  14.758  0.1850  0.0165  0.1250
 3928W        W19737  12.523   7.357   5.681  0.0488 -0.1998  0.1867
 3929W        W19738  14.148  13.220   1.830 -0.3579  0.1188 -0.0854
 3930W        W19739   8.864   5.037  10.681 -0.1128 -0.0854 -0.2425
 3931W        W19740   1.141  11.053  13.856 -0.1203  0.3859 -0.0284
 3932W        W19741   6.989  11.337   3.118 -0.2595 -0.0236  0.1616
 3933W        W19742  19.023   9.892   2.465  0.0979 -0.0230  0.1210
 3934W        W19743   9.800   0.635  10.682 -0.0031 -0.1814  0.0319
 3935W        W19744  10.280  16.242  12.295 -0.0419  0.1125  0.0386
 3936W        W19745   2.692  12.612  14.416  0.0279 -0.2257  0.1275
 3937W        W19746   4.032   3.446   0.068  0.2433  0.2043 -0.0573
 3938W        W19747   6.465   3.632   4.200  0.3890  0.3044 -0.2486
 3939W        W19748   6.990  15.242  11.759 -0.0446  0.0027 -0.1160
 3940W        W19749   0.133  17.746  12.227  0.3477  0.3262 -0.2615
 3941W        W19750  10.359   1.906  12.386 -0.0791 -0.1120  0.0859
 3942W        W19751   2.702  14.125   0.840  0.2567 -0.0590  0.1911
 3943W        W19752   7.671   1.473   2.126 -0.0894  0.1721 -0.0612
 3944W        W19753   5.605  14.816  14.098 -0.3965  0.1916 -0.0645
 3945W        W19754   3.012   3.217  14.632 -0.0557  0.0370  0.1926
 3946W        W19755  15.917   3.694   5.313 -0.0146 -0.0488 -0.1289
 3947W        W19756   6.599  12.803   3.335  0.1211 -0.0935 -0.2479
 3948W        W19757  16.796   6.071   4.461 -0.0024 -0.2018 -0.0216
 3949W        W19758   0.408   7.927   1.324  0.0254  0.1206  0.1029
 3950W        W19759  12.177   4.534   6.215 -0.0611  0.2530  0.1598
 3951W        W19760   4.731  12.802  10.959 -0.1383  0.1695 -0.2145
 3952W        W19761  13.499   7.680   1.177 -0.1284 -0.3100  0.2994
 3953W        W19762   1.880  14.572   3.415 -0.0146  0.1194  0.0796
 3954W        W19763  13.112   1.012   2.573 -0.2067  0.1464 -0.4042
 3955W        W19764  17.140   0.765  14.274  0.4018 -0.3531  0.0934
 3956W        W19765   5.597   4.854   9.597 -0.1267 -0.3162 -0.2612
 3957W        W19766   9.625  17.535  13.371  0.0313 -0.1740 -0.1966
 3958W        W19767   1.907  16.350   2.085 -0.0747 -0.2612  0.1486
 3959W        W19768  18.205   4.078  11.974  0.2656  0.0607 -0.1334
 3960W        W19769   2.394   2.621   0.847 -0.1733 -0.0629  0.1602
 3961W        W19770  13.146   4.749   5.425  0.2031  0.0215 -0.0541
 3962W        W19771  11.167   9.349  10.810  0.1241 -0.1922  0.4469
 3963W        W19772  17.300  15.115   2.306 -0.1572 -0.1535 -0.2402
 3964W        W19773  14.004   4.358  13.814  0.2175  0.1448 -0.1408
 3965W        W19774   1.725  18.275  11.228 -0.0920  0.0950 -0.3069
 3966W        W19775  17.791   0.382  12.711  0.2089  0.1279  0.0474
 3967W        W19776   8.759  17.317  13.451  0.2514  0.2535 -0.1420
 3968W        W19777   4.987   2.327  13.639  0.1409 -0.3333  0.0764
 3969W        W19778  16.031   9.532  12.975 -0.0403 -0.2137 -0.0068
 3970W        W19779  14.134  15.202   2.897 -0.1628  0.0807  0.0114
 3971W        W19780   1.090   4.074   1.733 -0.0098  0.1715  0.2942
 3972W        W19781   2.982  17.780   2.217 -0.0432  0.2790  0.2868
 3973W        W19782   0.847   4.471  13.098  0.2515 -0.1539  0.0314
 3974W        W19783  12.530  16.055  13.661  0.3946 -0.0376  0.0494
 3975W        W19784  15.044   1.177  11.511 -0.1884 -0.1545  0.1801
 3976W        W19785  18.183  12.092   0.784  0.0153  0.0796  0.0399
 3977W        W19786   9.329  11.099   4.282 -0.1321 -0.4359  0.0386
 3978W        W19787   2.218  10.899  12.375  0.0261 -0.2182 -0.2587
 3979W        W19788  12.842   5.292   1.168  0.0509  0.0161  0.1545
 3980W        W19789   9.461  15.135   3.479 -0.2782 -0.2517 -0.0659
 3981W        W19790  16.200   8.669  13.855 -0.1242 -0.2534  0.2487
 3982W        W19791  10.539  12.345   4.819 -0.2668  0.1700  0.0577
 3983W        W19792  14.891   7.164   5.139  0.2509 -0.0795  0.4595
 3984W        W19793   9.851  17.693   1.434  0.4986 -0.0753  0.2795
 3985W        W19794   0.883   3.488   0.952  0.0710  0.0637 -0.2011
 3986W        W19795  11.353   8.271  12.585  0.4099 -0.2865 -0.0926
 3987W        W19796  11.428  14.589  14.676 -0.1634 -0.0554  0.1301
 3988W        W19797   1.317   6.983  13.888  0.2233  0.0372 -0.1338
 3989W        W19798  16.392   3.640   1.773  0.2485  0.3419 -0.0675
 3990W        W19799   9.184   3.874  11.497  0.0466 -0.2717 -0.1732
 3991W        W19800   3.943  14.791  10.910 -0.2462  0.1695 -0.0866
 3992W        W19801   1.488  13.060   2.837  0.2411  0.0191  0.1861
 3993W        W19802  11.917   4.629   2.623  0.1084 -0.1273  0.1076
 3994W        W19803  15.981   5.693   2.752  0.1426  0.1156 -0.1056
 3995W        W19804   3.528   7.979  14.375 -0.2693 -0.0541  0.0092
 3996W        W19805  11.783  18.559   1.460 -0.1907  0.0659 -0.1999
 3997W        W19806   9.176   2.407  10.856 -0.0311  0.1769 -0.0016
 3998W        W19807  16.238  17.813   4.693  0.2452 -0.2568  0.0673
 3999W        W19808   0.321  12.685   0.113  0.3193 -0.2121 -0.1015
 4000W        W19809   5.218  15.379  13.645 -0.0610 -0.4540 -0.1489
 4001W        W19810   9.592  10.670   0.563 -0.1080  0.2118 -0.3343
 4002W        W19811  12.575  15.260   2.822 -0.2057  0.0943  0.0210
 4003W        W19812   8.121   1.965   4.255 -0.1660  0.2480 -0.0425
 4004W        W19813   9.996  11.978  13.966  0.0629  0.2097 -0.0160
 4005W        W19814  16.336  10.093   2.887  0.2945 -0.1065  0.0112
 4006W        W19815  11.871  12.428  11.201 -0.1526  0.0789  0.0836
 4007W        W19816   0.516   7.584  14.624  0.0077 -0.0670 -0.2146
 4008W        W19817   5.760  18.916   2.834  0.3186  0.0571  0.1458
 4009W        W19818  14.904   8.997   2.397  0.2193  0.1852 -0.0866
 4010W        W19819  12.807   9.190   4.662 -0.1525  0.0536 -0.0041
 4011W        W19820  10.456  10.639  10.595 -0.2185 -0.2613  0.0360
 4012W        W19821  12.688   0.503   3.987 -0.0114 -0.0477 -0.1703
 4013W        W19822  14.241  15.190  14.494 -0.2026 -0.2010  0.3905
 4014W        W19823   5.895   1.874   0.503 -0.1250 -0.1016 -0.1420
 4015W        W19824  16.604   6.882  12.060 -0.3530  0.1570 -0.2056
 4016W        W19825  12.239   1.456   1.224 -0.0969  0.1326 -0.1145
 4017W        W19826   0.011   8.076  11.253  0.0010  0.1764 -0.2541
 4018W        W19827   8.212  13.067  12.540  0.1952  0.1167  0.1497
 4019W        W19828  11.581   4.364   3.557 -0.0054 -0.0728 -0.0311
 4020W        W19829   9.223  15.054   0.453 -0.1865  0.1063  0.0377
 4021W        W19830  10.387  16.446  14.317  0.1401  0.1669  0.0156
 4022W        W19831  13.307  10.236  12.557 -0.3320 -0.1485  0.2083
 4023W        W19832   5.432  16.181   2.312 -0.0722 -0.2204  0.0928
 4024W        W19833  13.273  15.793  11.862  0.2089 -0.1460  0.2089
 4025W        W19834  10.721  16.234  11.947 -0.0458 -0.0136  0.1660
 4026W        W19835  12.490  15.754  12.180  0.1494  0.1404  0.1100
 4027W        W19836   2.110   1.303   5.544  0.1082  0.0547  0.0069
 4028W        W19837  16.104  17.054  12.553 -0.1343 -0.0758  0.0069
 4029W        W19838   5.523  10.924   1.416 -0.2748 -0.1342 -0.4073
 4030W        W19839  15.220  11.955   5.289  0.1194 -0.0249  0.0819
 4031W        W19840   1.855  16.434  13.611 -0.0619 -0.0029  0.3018
 4032W        W19841  13.939   8.785  14.519  0.3176 -0.0725  0.3329
 4033W        W19842   6.372   4.660  11.344 -0.0726 -0.5609  0.1674
 4034W        W19843   7.861   5.582  10.693 -0.0974  0.2484 -0.2675
 4035W        W19844   2.333  11.507   1.579  0.0027 -0.0495 -0.3520
 4036W        W19845  14.564  14.102  12.905  0.2747 -0.2978 -0.2548
 4037W        W19846  16.979  12.773   2.889 -0.2864 -0.0267  0.2041
 4038W        W19847  14.463  16.610   0.358  0.0503  0.1702  0.0675
 4039W        W19848  12.756   7.913   4.950  0.1723  0.0485 -0.0032
 4040W        W19849  10.882  18.758   2.172 -0.0574 -0.2591 -0.0191
 4041W        W19850  16.806   6.237  12.860 -0.0654  0.3052  0.1372
 4042W        W19851  17.209  12.373   4.138 -0.1084 -0.1609  0.1452
 4043W        W19852   8.865   6.485   1.496  0.0688 -0.4082  0.0082
 4044W        W19853   6.014   9.330  12.797 -0.1791 -0.4150  0.2349
 4045W        W19854   2.722   2.998   4.610 -0.0132  0.0759 -0.4501
 4046W        W19855   6.557   0.380   2.489 -0.2581 -0.1947  0.0149
 4047W        W19856  10.241  14.449  13.212  0.0802  0.3892  0.1392
 4048W        W19857  10.753   3.373  12.444  0.0247  0.2145 -0.2860
 4049W        W19858   1.446   7.895   1.832  0.1322 -0.0730 -0.0907
 4050W        W19859   4.457   2.552   2.806 -0.1068  0.2103 -0.2087
 4051W        W19860   7.108   5.867   1.252  0.0726 -0.1892  0.0656
 4052W        W19861   8.660  12.843  12.894 -0.1725  0.1758 -0.1463
 4053W        W19862   4.939   6.670   2.563 -0.4043 -0.2105  0.0445
 4054W        W19863  18.850   4.273  11.045 -0.1043  0.0565 -0.1793
 4055W        W19864   2.757   2.431  10.923  0.1043  0.0766 -0.1098
 4056W        W19865   0.674   9.505   4.438 -0.5106  0.2645  0.0541
 4057W        W19866   6.577   7.722  12.028 -0.2613 -0.1902 -0.0257
 4058W        W19867   9.979   4.054  10.583 -0.1354 -0.0709  0.0304
 4059W        W19868   3.948   8.122  11.096  0.0447 -0.1342  0.1965
 4060W        W19869  14.492   4.316   2.632 -0.2707 -0.2836  0.0619
 4061W        W19870  11.460  14.012   4.061 -0.2504 -0.4576 -0.1705
 4062W        W19871   6.842  17.781   3.275  0.0344  0.2760 -0.2524
 4063W        W19872  11.071  13.162  13.515 -0.2990  0.0560  0.0485
 4064W        W19873  11.474   0.113   0.418  0.0544 -0.0970 -0.1945
 4065W        W19874  17.828  16.482  11.390  0.1099  0.0724  0.0013
 4066W        W19875  10.714  13.677   3.431  0.0937  0.0189 -0.2826
 4067W        W19876   7.606  12.190   9.929  0.0396  0.3505  0.3633
 4068W        W19877  16.874   3.655   5.439  0.0416  0.5307  0.4073
 4069W        W19878   1.555   9.967   4.331 -0.0946 -0.1307 -0.3203
 4070W        W19879   9.242  15.948  13.342 -0.1930 -0.0100 -0.0142
 4071W        W19880  15.193  12.281   1.861  0.2811 -0.0900 -0.0314
 4072W        W19881  14.681   5.589  14.736  0.0959 -0.2236  0.0394
 4073W        W19882  10.337  10.611   1.090 -0.0043 -0.3165 -0.2255
 4074W        W19883  14.035  16.426   4.722  0.2957 -0.2629 -0.0268
 4075W        W19884  11.321  19.018   2.386  0.0496 -0.2517 -0.1227
 4076W        W19885  12.398  16.497   0.398  0.1017 -0.4868 -0.1478
 4077W        W19886  13.155  17.041  13.148  0.1325 -0.1076  0.3347
 4078W        W19887  17.142   6.267   2.720  0.1144 -0.2199  0.0012
 4079W        W19888   1.274   7.467   4.319  0.1388 -0.2006 -0.0257
 4080W        W19889   5.058  18.059  13.775 -0.0658  0.1297  0.2983
 4081W        W19890  16.234   8.528   1.292  0.1711  0.3023 -0.1729
 4082W        W19891   9.964   9.973  11.949  0.2021  0.0322 -0.3360
 4083W        W19892  13.011   7.676   4.620  0.1591 -0.0171  0.2755
 4084W        W19893   4.859  10.636   9.826  0.0855  0.0597 -0.0871
 4085W        W19894   0.692  13.362   3.909 -0.0797  0.0423  0.4164
 4086W        W19895  15.378  10.754  13.359  0.3343 -0.1641  0.1136
 4087W        W19896  18.707   6.647   3.195 -0.0630 -0.1320  0.2515
 4088W        W19897   3.806   3.997  14.512  0.0151 -0.0324  0.2433
 4089W        W19898   4.346  17.723   1.835 -0.1749  0.0258 -0.0590
 4090W        W19899   8.218   0.467   2.007  0.0634  0.3586  0.0093
 4091W        W19900  15.848  14.704  14.594  0.0523  0.0162  0.2038
 4092W        W19901   5.773  10.989   3.333  0.0612  0.1616 -0.1358
 4093W        W19902  11.891  15.782   0.961 -0.0889 -0.0800  0.1693
 4094W        W19903   7.373   0.714  14.281  0.0309  0.2119 -0.1336
 4095W        W19904   6.447   6.254   0.177 -0.1722  0.3633  0.2598
 4096W        W19905  17.433  16.854   2.709 -0.0705 -0.4289 -0.4434
 4097W        W19906   7.343   6.512   2.726 -0.1525 -0.0392  0.2277
 4098W        W19907   3.115   5.586   3.687  0.5203  0.0662  0.1966
 4099W        W19908   4.348  16.938  13.373  0.0951  0.2539  0.1633
 4100W        W19909  13.345   6.182   1.316 -0.0058 -0.2995 -0.1028
 4101W        W19910  17.437   5.904   4.674 -0.0843  0.3445  0.1226
 4102W        W19911   3.889   5.801  11.140  0.1810 -0.0537  0.1899
 4103W        W19912   2.472  11.174  10.348  0.3405 -0.3933 -0.0855
 4104W        W19913  14.773  14.150   0.135  0.1091  0.2535  0.1280
 4105W        W19914   0.198   8.718   4.725  0.1783 -0.0060  0.2219
 4106W        W19915  10.272  16.983   1.392 -0.0108 -0.2988 -0.4345
 4107W        W19916   5.516  14.426   0.891 -0.1429 -0.0439  0.1553
 4108W        W19917   4.115   8.638  11.276  0.0030  0.0812 -0.4319
 4109W        W19918   0.123   2.304   1.727 -0.3143 -0.0047  0.1364
 4110W        W19919  11.754   2.078  12.555 -0.0810 -0.4453  0.1245
 4111W        W19920  13.762  16.617   1.023  0.0911  0.0798  0.0026
 4112W        W19921   2.964  10.866   5.507 -0.2331 -0.1328  0.1395
 4113W        W19922  16.058  17.906   1.322 -0.0256 -0.1847  0.3796
 4114W        W19923   0.184  10.562  12.175 -0.2236  0.1171 -0.3612
 4115W        W19924   2.448  17.720  13.881  0.1085 -0.0853  0.0959
 4116W        W19925   1.563   0.794   0.381  0.1105  0.1470 -0.2109
 4117W        W19926   0.713  18.951   0.982 -0.3930 -0.1359  0.0800
 4118W        W19927   4.913   0.166  13.505 -0.1247 -0.0823 -0.2955
 4119W        W19928   0.000   9.953   4.189 -0.5666  0.0583  0.0257
 4120W        W19929  11.875   1.476   3.975  0.0340  0.1957 -0.0961
 4121W        W19930   8.628   1.491  11.521 -0.1640  0.1606  0.2389
 4122W        W19931   5.534  13.098  14.858 -0.0052 -0.2186  0.1084
 4123W        W19932   9.139  10.664   4.323 -0.0984 -0.1617 -0.0670
 4124W        W19933   7.757   9.099  10.897  0.0323  0.1707  0.3104
 4125W        W19934  10.313   1.838  11.834  0.1537 -0.0928 -0.0539
 4126W        W19935   8.467   8.885   1.784 -0.0639 -0.3304  0.1094
 4127W        W19936   0.446   6.090  13.177  0.0068  0.0475  0.0077
 4128W        W19937   5.785   6.664  14.284  0.2067 -0.1087  0.0379
 4129W        W19938  14.937  17.403  12.738  0.1884 -0.1168  0.0317
 4130W        W19939  10.251   9.746  15.071 -0.3421 -0.0630 -0.0454
 4131W        W19940  17.731   4.915   4.699  0.0454 -0.2539  0.1980
 4132W        W19941   2.057   2.651  13.099 -0.1054 -0.0536 -0.2006
 4133W        W19942   5.162  18.806   1.039 -0.0102  0.2891 -0.1791
 4134W        W19943  10.932   0.865   5.015 -0.1686 -0.1866  0.2022
 4135W        W19944  15.110   8.437   2.357 -0.0110  0.5797  0.1430
 4136W        W19945  12.950  15.105   1.888 -0.1513 -0.0428  0.0741
 4137W        W19946   5.147  14.388   1.216 -0.2863  0.0511  0.1289
 4138W        W19947   8.278   3.375   2.913 -0.1706 -0.2160 -0.0232
 4139W        W19948  10.774   3.515  11.830  0.1402 -0.1655 -0.3851
 4140W        W19949   9.365  18.018  14.305  0.2911 -0.3661 -0.3336
 4141W        W19950   7.015  12.799   9.652 -0.0835  0.0278 -0.1210
 4142W        W19951  17.434  18.502   4.371 -0.2936 -0.1311 -0.0206
 4143W        W19952   6.442   1.601  14.574  0.0400 -0.0938  0.2044
 4144W        W19953   7.830   9.836  11.493 -0.0341  0.2130  0.1021
 4145W        W19954   6.537  12.612   9.112  0.0321 -0.1069  0.0850
 4146W        W19955  17.019   0.071  11.481 -0.1063  0.0232  0.0361
 4147W        W19956   2.637  14.388  14.412 -0.2124  0.1497 -0.0423
 4148W        W19957  13.782   8.807   5.843 -0.0757  0.0005  0.1341
 4149W        W19958  17.303   3.966   6.052 -0.2248 -0.0688 -0.4024
 4150W        W19959  11.847   7.126   1.771 -0.0406  0.0278  0.0046
 4151W        W19960   9.125  12.716  11.641  0.2880  0.0776 -0.1139
 4152W        W19961  12.765   1.398  15.161 -0.2378  0.0579 -0.3984
 4153W        W19962  14.179  15.016  11.613 -0.3277  0.0935  0.0662
 4154W        W19963  16.156  16.579  13.308  0.0111  0.0176 -0.0151
 4155W        W19964  12.789  10.622   0.811 -0.0871 -0.2411  0.2118
 4156W        W19965   0.864   9.629   2.930  0.1904 -0.0902 -0.0118
 4157W        W19966  18.174   2.844   5.850  0.0787  0.1492  0.4207
 4158W        W19967   7.331   2.072  14.829 -0.1409  0.1626  0.1120
 4159W        W19968  14.714  18.773   1.036  0.3492  0.2525 -0.2267
 4160W        W19969   7.537   3.686   2.202  0.1620  0.0174  0.0626
 4161W        W19970   9.811  17.949  12.951  0.1211  0.0930 -0.2971
 4162W        W19971  18.306   7.284  10.912 -0.0109  0.0754 -0.0662
 4163W        W19972   1.160  10.101  11.424 -0.0236  0.0801 -0.0286
 4164W        W19973   2.460   0.683   4.384 -0.3076 -0.1912  0.0349
 4165W        W19974  17.026  17.107   0.163  0.0910  0.0899 -0.4398
 4166W        W19975  11.948  16.097  10.881 -0.0961  0.0285  0.2692
 4167W        W19976  14.302   6.849  14.227  0.0368  0.1749  0.0430
 4168W        W19977   0.132   5.084   1.333  0.0399 -0.0101  0.2131
 4169W        W19978   9.809   2.984   9.051 -0.1887 -0.0237  0.1420
 4170W        W19979   0.158   2.519  13.378  0.1526 -0.3655 -0.0349
 4171W        W19980   6.708  16.799  11.359  0.1300 -0.0304  0.0788
 4172W        W19981  12.504   1.396  14.742 -0.0516  0.0783  0.0871
 4173W        W19982  11.156   6.105   5.199 -0.0121  0.1763 -0.0358
 4174W        W19983   6.401  14.324  12.067 -0.5029  0.2904 -0.1933
 4175W        W19984   4.257  17.301   2.346 -0.2364 -0.1736 -0.0795
 4176W        W19985   9.169   5.543  13.931  0.0081  0.1522  0.1834
 4177W        W19986  13.879  17.771   4.371 -0.1171 -0.1815  0.1797
 4178W        W19987   8.587   4.769   1.460  0.1876  0.3651 -0.1603
 4179W        W19988  17.473   7.749   0.435 -0.0697  0.0024 -0.1442
 4180W        W19989   9.178   4.520  14.005  0.2511 -0.2097 -0.4571
 4181W        W19990   9.897   1.431  14.141  0.0294 -0.0573 -0.2582
 4182W        W19991   2.294  11.258  14.156  0.0566  0.4480 -0.0446
 4183W        W19992   1.344  11.698  13.179 -0.2496 -0.0004 -0.3574
 4184W        W19993  16.905   3.841  10.962  0.0860 -0.1235 -0.0988
 4185W        W19994  15.233   9.779   4.003  0.1307 -0.1005 -0.1087
 4186W        W19995   0.944   6.097  13.317  0.0666  0.1400 -0.0606
 4187W        W19996   8.162  18.559   0.341 -0.0577  0.0997 -0.2389
 4188W        W19997   7.175   1.405   4.350 -0.1110 -0.1549  0.0075
 4189W        W19998  18.535   3.269   2.713  0.0378 -0.1680 -0.0585
 4190W        W19999   1.247  15.914   3.486  0.1823  0.2705  0.0445
 4191W        W20000   6.383  14.459   0.711 -0.1473 -0.0227  0.0360
 4192W        W20001  15.293   2.904  13.305 -0.2415 -0.0862  0.1313
 4193W        W20002  11.682   5.196  15.195  0.1635 -0.0093  0.1883
 4194W        W20003  16.067   4.436  11.548  0.3235  0.2450  0.1353
 4195W        W20004   2.237   1.494  11.362 -0.1387 -0.1057  0.1515
 4196W        W20005   0.682  11.417  11.278 -0.3401  0.2807  0.0186
 4197W        W20006   7.213  15.464   3.049 -0.0960 -0.1280 -0.2628
 4198W        W20007  15.340   1.363  13.813  0.1026  0.2819  0.0235
 4199W        W20008  13.159  10.886   1.070 -0.1039 -0.0270 -0.0633
 4200W        W20009   0.225   1.580  13.209 -0.1857  0.3366 -0.0710
 4201W        W20010  10.195  13.722   3.278  0.0012  0.1206  0.0163
 4202W        W20011   2.129  18.749   0.150 -0.1580  0.0692 -0.0032
 4203W        W20012  17.531   4.491  12.123 -0.0963  0.0533  0.4257
 4204W        W20013   8.454  18.474   2.498 -0.0276 -0.1929  0.3491
 4205W        W20014   8.811   0.603  10.500 -0.0877 -0.0144  0.1736
 4206W        W20015   5.283   1.247  14.554 -0.1426  0.0368  0.0949
 4207W        W20016  14.382  12.561  10.962  0.1604 -0.2103  0.1390
 4208W        W20017  11.549   2.191   5.008 -0.2252 -0.1635  0.0032
 4209W        W20018   3.055   7.681   0.933 -0.3158  0.1018  0.0167
 4210W        W20019  12.964   0.195  11.643  0.0532  0.3675  0.1434
 4211W        W20020   3.287   2.814  14.447  0.1253 -0.0470  0.2939
 4212W        W20021  17.425  15.965  13.180  0.2460 -0.2843  0.0090
 4213W        W20022   4.823   7.036   2.942 -0.1523 -0.0104 -0.5269
 4214W        W20023  12.885   0.323   0.700  0.1009 -0.0325  0.1318
 4215W        W20024   8.717  18.540   3.623  0.2702  0.0865  0.2240
 4216W        W20025   1.812   3.108  10.112  0.0001  0.3387 -0.0361
 4217W        W20026  14.152   6.830   1.980 -0.0597  0.2891  0.2241
 4218W        W20027   9.761  11.545  12.033  0.1155 -0.2656  0.2462
 4219W        W20028   6.441   1.450  13.580  0.0562 -0.3012  0.0537
 4220W        W20029  18.350  13.144   3.924 -0.5091  0.1108  0.0207
 4221W        W20030  12.848  18.034   2.887 -0.2165  0.0835  0.0652
 4222W        W20031  13.910  11.490  12.581 -0.0495  0.2358 -0.0965
 4223W        W20032   7.676  12.000  14.986  0.0808 -0.0841 -0.0031
 4224W        W20033  13.569  10.383   1.880  0.0297 -0.0629  0.1917
 4225W        W20034   2.344   3.820  10.207  0.1328  0.0581 -0.1624
 4226W        W20035  12.818  14.121  13.569  0.2307 -0.2880  0.0760
 4227W        W20036   5.031   2.937   5.016  0.0513 -0.0037 -0.1055
 4228W        W20037  17.191   8.913   1.173 -0.3838  0.0215  0.2005
 4229W        W20038   1.328   9.768  13.359 -0.1279  0.2466  0.1319
 4230W        W20039  18.704   9.523   1.428 -0.1027 -0.2078 -0.0046
 4231W        W20040   1.929   7.262   3.634  0.2398  0.0251  0.1796
 4232W        W20041   0.770  14.049  13.993  0.1228  0.1607  0.1630
 4233W        W20042  13.417   9.666  11.269 -0.0775  0.2322  0.0630
 4234W        W20043   4.566  15.287   1.296 -0.3141  0.1398 -0.2386
 4235W        W20044   9.677   4.521   1.179 -0.2941  0.3537 -0.4743
 4236W        W20045   0.479  11.287   5.670  0.0994 -0.0685 -0.0287
 4237W        W20046   8.852   5.030  13.676  0.2708 -0.1119  0.0908
 4238W        W20047  18.577  16.870  10.984 -0.0518  0.4201  0.0419
 4239W        W20048   2.521  13.117   1.471 -0.1332 -0.2911 -0.1034
 4240W        W20049   9.842  12.655   0.393  0.2672 -0.0467  0.0417
 4241W        W20050  11.057  11.955  10.921  0.2949 -0.3365  0.4121
 4242W        W20051   7.989   0.907  13.926 -0.2355  0.2180  0.5664
 4243W        W20052   5.804  16.358   2.023 -0.3179  0.3036  0.2235
 4244W        W20053  11.298   1.770   2.726 -0.1631 -0.1223  0.2058
 4245W        W20054  10.588  12.067  11.586 -0.5235 -0.2248 -0.1847
 4246W        W20055   8.330   6.810  14.238 -0.1814 -0.0491  0.4096
 4247W        W20056   6.973   5.026  12.061 -0.2934  0.2262  0.0373
 4248W        W20057   9.015   2.470  14.622 -0.0123  0.1962 -0.2239
 4249W        W20058   0.085   7.238  14.466  0.2107 -0.0780 -0.1566
 4250W        W20059   2.169  15.578  11.385  0.1937 -0.1027 -0.1510
 4251W        W20060   0.626   3.074  11.914 -0.1760 -0.1590 -0.1210
 4252W        W20061  16.110   2.065   3.367  0.0237 -0.0460  0.0788
 4253W        W20062   1.037   0.004   5.119  0.1875 -0.5441  0.1205
 4254W        W20063  11.478   1.505  13.968  0.2547  0.3571  0.0926
 4255W        W20064  14.341   8.954  14.180  0.2684 -0.1315 -0.4171
 4256W        W20065  11.318  16.081   2.800  0.2338  0.1989 -0.2528
 4257W        W20066   3.812   1.150  11.996 -0.3626 -0.0035 -0.2625
 4258W        W20067   8.654   2.754   0.591 -0.0700 -0.1009  0.2495
 4259W        W20068  15.350  17.462   3.347 -0.3373 -0.1918  0.4129
 4260W        W20069  18.616  14.027   5.070  0.0033 -0.1879  0.0887
 4261W        W20070  10.820   2.841   4.974  0.1433 -0.2252 -0.0087
 4262W        W20071  10.626  12.999   2.657 -0.0374 -0.0247 -0.1771
 4263W        W20072  16.134   8.323  13.114 -0.0046  0.0151  0.1886
 4264W        W20073  11.444  16.061   1.530 -0.3804  0.2909  0.3097
 4265W        W20074  15.426   8.429  11.328 -0.0917  0.1018  0.1308
 4266W        W20075  14.557  18.145   2.520 -0.0791 -0.0827  0.0087
 4267W        W20076   2.688  16.386  12.540  0.1055 -0.2177  0.4607
 4268W        W20077  12.333   2.732   0.357 -0.2271  0.0611 -0.1888
 4269W        W20078  16.373  17.429  12.396  0.2755  0.2437  0.2436
 4270W        W20079   2.473   0.200   3.717  0.0519 -0.0009 -0.0256
 4271W        W20080  10.914   7.615   2.422  0.0930 -0.0296  0.2328
 4272W        W20081   2.691   7.426  11.335 -0.2973 -0.2983  0.2140
 4273W        W20082   1.765  16.400  11.426  0.2028 -0.1037 -0.3108
 4274W        W20083  16.750   2.854   2.700 -0.2208  0.0005  0.0106
 4275W        W20084   5.269  15.800   2.075  0.0630 -0.1085  0.2276
 4276W        W20085   6.371   2.187  14.580 -0.2903 -0.0613 -0.0521
 4277W        W20086   8.212  12.421   1.013 -0.0781 -0.1471  0.0874
 4278W        W20087   3.359   3.000   4.192 -0.1641 -0.3431 -0.2927
 4279W        W20088  17.310  15.937   6.125  0.0751 -0.2233 -0.2223
 4280W        W20089   0.151  16.435   1.755 -0.0510 -0.1131  0.0656
 4281W        W20090   8.371   8.618   5.822  0.0003 -0.0463  0.1412
 4282W        W20091   2.767   7.187   1.948  0.4043 -0.1394 -0.0275
 4283W        W20092  10.093   1.560   1.345  0.3458 -0.1501 -0.4030
 4284W        W20093   2.286   1.865   4.387 -0.3123  0.0318  0.2709
 4285W        W20094   5.459   9.137  10.902  0.0926 -0.0880  0.0495
 4286W        W20095   2.759  18.568   0.640 -0.0192 -0.1173  0.3420
 4287W        W20096   4.817   4.901  12.080  0.2374  0.1959  0.0706
 4288W        W20097  15.586   4.011   4.960  0.1133  0.0798  0.1628
 4289W        W20098  13.780   2.852   2.738  0.0281 -0.1336 -0.1741
 4290W        W20099  12.246   6.948   4.979 -0.2184 -0.1399 -0.3921
 4291W        W20100   6.768  16.542   1.588  0.2230 -0.2043 -0.1542
 4292W        W20101   1.832  17.953   2.145  0.0855 -0.1548 -0.3464
 4293W        W20102  13.969  14.513   1.118  0.2633 -0.0875 -0.1899
 4294W        W20103  18.088  14.186   5.048  0.0532  0.0612 -0.0429
 4295W        W20104  12.106   2.525  12.492 -0.1376  0.1138  0.3413
 4296W        W20105   5.591   8.476  12.829  0.0031 -0.1254 -0.0449
 4297W        W20106  14.693  11.139  10.860  0.1406  0.3202 -0.1760
 4298W        W20107  13.468  16.488  13.477 -0.1333 -0.2192 -0.2829
 4299W        W20108   5.179  13.743   1.916  0.1161  0.0373 -0.1246
 4300W        W20109  12.887   2.261   3.460 -0.1441 -0.2157 -0.0005
 4301W        W20110   8.189  17.578  12.800 -0.0261  0.0817  0.0872
 4302W        W20111   0.776   7.969  14.804 -0.0112  0.2035 -0.2142
 4303W        W20112   0.087   6.876  10.777 -0.2328  0.1118 -0.1337
 4304W        W20113   4.750  13.543   1.420  0.3109 -0.0138  0.1054
 4305W        W20114   0.894   9.144  11.836 -0.0877 -0.0739 -0.1929
 4306W        W20115   8.232  13.282   1.823  0.3140  0.3152  0.0617
 4307W        W20116   1.830  18.746   0.740 -0.2196  0.0219 -0.0383
 4308W        W20117   3.585   8.739  15.250 -0.0008 -0.1445 -0.0762
 4309W        W20118   0.294   4.705   1.027  0.0771 -0.2096 -0.1880
 4310W        W20119   0.709   2.963   0.962  0.3400  0.2043  0.1877
 4311W        W20120   8.100  14.888   1.262 -0.2142  0.3356 -0.0393
 4312W        W20121  16.671   1.371  12.852 -0.0729  0.0509  0.0859
 4313W        W20122  17.547  17.160  13.071  0.1141 -0.2108  0.3457
 4314W        W20123  13.944  16.031  11.261 -0.0092 -0.1079  0.1418
 4315W        W20124   4.186  12.075  10.920 -0.1213  0.2368 -0.0721
 4316W        W20125  15.002   0.789   3.269  0.0652 -0.3828 -0.0378
 4317W        W20126   9.753   2.359   2.639  0.1016  0.1832 -0.1878
 4318W        W20127   3.407   3.785   4.905 -0.1998 -0.1291  0.2903
 4319W        W20128   8.261  16.799  14.818  0.0456  0.1311  0.4166
 4320W        W20129  18.341  14.896  12.409  0.2206  0.0921 -0.2084
 4321W        W20130  16.866   2.705   2.203 -0.3907  0.1467 -0.1490
 4322W        W20131   3.261  15.519  14.060  0.0862  0.3055  0.0192
 4323W        W20132  13.854  18.000  12.112  0.0968 -0.0154 -0.0780
 4324W        W20133  10.822  16.609   0.234 -0.0310 -0.0315 -0.1220
 4325W        W20134  17.136  17.688  13.022 -0.1623 -0.0046  0.1492
 4326W        W20135  18.340  16.607   3.737  0.1932 -0.0360 -0.1619
 4327W        W20136  10.828   4.581  15.248 -0.0068  0.0254  0.0568
 4328W        W20137  13.131   3.662   3.814  0.4165 -0.1811  0.2698
 4329W        W20138   2.754  15.210   3.838  0.0217  0.0111  0.1398
 4330W        W20139   3.174   2.704  13.805  0.0629  0.3489  0.1378
 4331W        W20140  14.042  10.542   2.757  0.0509 -0.1788  0.2071
 4332W        W20141   9.740  10.304  12.818  0.0420  0.1263 -0.0371
 4333W        W20142   0.652   6.512   2.699  0.1005  0.0567 -0.0312
 4334W        W20143   4.865  17.004  11.549  0.2769 -0.0837 -0.2117
 4335W        W20144  15.599   0.808  10.462 -0.2837 -0.0273  0.1496
 4336W        W20145   7.162  17.623   4.957 -0.0262  0.1327  0.2030
 4337W        W20146  13.810   1.357  14.461  0.0755  0.2694  0.1457
 4338W        W20147  14.539   1.539   1.557  0.1686  0.0540 -0.3110
 4339W        W20148  12.871   9.374   2.613 -0.1215 -0.1681  0.0818
 4340W        W20149  12.886  16.642  13.151  0.1310  0.2594  0.2584
 4341W        W20150  16.509  10.424   3.796 -0.3091  0.1511 -0.0098
 4342W        W20151   8.611   6.428   2.342 -0.1546 -0.0880 -0.2402
 4343W        W20152   2.219  15.396   2.181 -0.1645  0.0351 -0.0956
 4344W        W20153   7.891  17.492   2.678  0.2637  0.5178  0.0564
 4345W        W20154   4.203  12.625   9.841 -0.3052  0.1308  0.1084
 4346W        W20155   4.333   3.591  14.531  0.2145  0.3116  0.1728
 4347W        W20156   2.634  12.759   4.121  0.2907  0.2320 -0.0245
 4348W        W20157   1.171  11.413   3.885  0.1490  0.0066  0.1306
 4349W        W20158  12.190  18.177  14.267 -0.0606 -0.0149  0.0334
 4350W        W20159  18.256   4.351  12.426 -0.2372  0.3460  0.1107
 4351W        W20160   4.741  14.815   5.270  0.1013 -0.0905 -0.1327
 4352W        W20161  13.925  10.929  12.507  0.0560  0.1661  0.2245
 4353W        W20162   4.345  12.562   1.653 -0.1548 -0.1827 -0.0913
 4354W        W20163  16.671   2.747  13.134 -0.1299 -0.2047  0.0690
 4355W        W20164  15.883  18.000  13.632 -0.0528 -0.3279  0.0405
 4356W        W20165  18.863  11.584   4.806  0.2309 -0.2583  0.1851
 4357W        W20166  10.398   8.408   0.383  0.5146  0.0575 -0.0274
 4358W        W20167   7.980   5.029   2.353 -0.2356 -0.1312  0.1158
 4359W        W20168   8.510   2.300   2.382  0.0870  0.2087  0.0651
 4360W        W20169  17.850  13.780  13.821 -0.0023  0.1267  0.0911
 4361W        W20170  12.240   4.522   5.315  0.1566  0.3166  0.4169
 4362W        W20171  16.131  16.303   5.223 -0.1370  0.0622  0.1590
 4363W        W20172  12.019  12.609  11.833 -0.4896  0.2394  0.0506
 4364W        W20173  17.857   2.000   1.821 -0.1146  0.1008  0.0024
 4365W        W20174   7.588  18.088   0.016  0.0510 -0.0277  0.4377
 4366W        W20175  13.099  12.005  14.842  0.2175 -0.2610 -0.0727
 4367W        W20176   8.566   0.426  10.899  0.1788 -0.1174 -0.0924
 4368W        W20177   0.545  13.546   5.154  0.1621 -0.0594  0.0046
 4369W        W20178   0.161   0.029   3.629  0.0611 -0.4324 -0.1927
 4370W        W20179  14.909  16.372   3.825  0.1158 -0.0347  0.2132
 4371W        W20180  14.798  12.845   5.312 -0.3264  0.0893 -0.0418
 4372W        W20181  12.483   3.403   3.405  0.2734 -0.1127  0.0763
 4373W        W20182  10.706  15.158   3.126 -0.1964 -0.0063  0.3714
 4374W        W20183  17.452  14.000  14.167 -0.2167  0.2082 -0.1621
 4375W        W20184  14.963  12.935  12.201 -0.1724  0.2596 -0.1487
 4376W        W20185   6.889   7.329   3.472  0.0359  0.1659  0.2563
 4377W        W20186   4.169  16.028   4.179  0.2577 -0.1582 -0.4283
 4378W        W20187   2.504  16.569  15.014  0.1286 -0.0899  0.2309
 4379W        W20188   8.705   0.131   4.874 -0.1217 -0.0028  0.1180
 4380W        W20189   9.465   6.526   0.809  0.1137  0.2224  0.1312
 4381W        W20190   2.498   8.077  11.448 -0.0490 -0.0334  0.0364
 4382W        W20191   0.714  18.499   0.712  0.1348 -0.1476  0.1925
 4383W        W20192   0.672   5.409   5.090  0.0577 -0.1402  0.0056
 4384W        W20193  16.410  16.858   2.139  0.2040 -0.3403  0.3155
 4385W        W20194  18.786   5.212   2.453 -0.2170 -0.2294  0.1523
 4386W        W20195  18.892   0.152  11.579 -0.1099  0.2322  0.1500
 4387W        W20196  17.704  15.577   4.521  0.3616  0.1992 -0.2955
 4388W        W20197   6.141  10.095  14.350  0.0543 -0.2783 -0.1400
 4389W        W20198  18.995   5.951   0.884  0.0500 -0.1509  0.2093
 4390W        W20199  15.486  10.323   2.228  0.0728  0.1020  0.1880
 4391W        W20200   0.437  15.371   1.666  0.1988  0.0763  0.1318
 4392W        W20201   0.005  16.405  11.712 -0.1290 -0.0679  0.1112
 4393W        W20202  11.227   3.493   1.515  0.1041  0.2877 -0.1951
 4394W        W20203   9.293   2.720  13.484 -0.0201 -0.0935  0.2251
 4395W        W20204   2.110   9.384  14.788  0.2637 -0.0852  0.2336
 4396W        W20205   5.473   5.690  10.585  0.1234  0.0344 -0.3917
 4397W        W20206  13.220  16.145  11.166 -0.1803  0.1878  0.1259
 4398W        W20207   0.477  12.825   1.309  0.1340 -0.0489 -0.0584
 4399W        W20208  12.332   6.087   3.211  0.1066 -0.4449 -0.0102
 4400W        W20209   1.511  15.967   1.391  0.2010 -0.0442 -0.0741
 4401W        W20210  17.811   9.813   3.108 -0.1765 -0.0676  0.0715
 4402W        W20211  17.787  18.766  10.911 -0.3597  0.2285 -0.2254
 4403W        W20212  18.574  18.774  14.447  0.1623  0.1055 -0.0383
 4404W        W20213  18.950  11.107   1.332  0.1407  0.0093  0.2292
 4405W        W20214   1.638   9.126  11.200 -0.0279 -0.2184  0.0094
 4406W        W20215   2.847   7.127   0.310  0.1395 -0.2063  0.1761
 4407W        W20216   7.349  10.620   0.398  0.4746 -0.1940  0.2140
 4408W        W20217  14.997   1.399  12.643  0.0193  0.5249  0.1647
 4409W        W20218  14.057   7.361   2.074 -0.1016 -0.0137 -0.0307
 4410W        W20219  17.553   6.035  11.910  0.0823 -0.2490  0.1928
 4411W        W20220   2.454   9.030   2.779  0.0932  0.1848 -0.2711
 4412W        W20221   2.705  14.452  11.954  0.0221 -0.0655  0.0763
 4413W        W20222   0.807   8.991  14.764  0.0160  0.1509  0.0678
 4414W        W20223   5.993  11.760  13.918  0.0220 -0.0457  0.1058
 4415W        W20224   6.927   6.563   3.927  0.0248 -0.1699  0.1495
 4416W        W20225  15.710   7.013   1.476  0.0370 -0.5112 -0.1266
 4417W        W20226   8.336   9.325  14.311  0.2339  0.1502  0.1448
 4418W        W20227  12.363  14.228  13.223  0.1118 -0.1175  0.3009
 4419W        W20228   0.148   3.828   2.046  0.0021  0.0100  0.2698
 4420W        W20229   2.506  10.647   0.635 -0.0174 -0.0791  0.1023
 4421W        W20230  18.540  12.949   0.498 -0.2019 -0.3078  0.0575
 4422W        W20231   8.824  13.902  10.833 -0.0171 -0.2998 -0.1609
 4423W        W20232  15.883  14.313   1.698 -0.2976  0.0371  0.0030
 4424W        W20233   9.675   7.762   2.960 -0.0451  0.2953  0.0858
 4425W        W20234  13.398   8.016   1.557 -0.0906  0.0856  0.1558
 4426W        W20235  17.067   1.680  12.793  0.0870 -0.1356 -0.0315
 4427W        W20236   4.903   4.808  14.353  0.2926  0.0111  0.1130
 4428W        W20237  12.239  11.486   3.419  0.3517  0.1525 -0.0101
 4429W        W20238  18.636   1.346   5.577 -0.0049 -0.1373  0.0931
 4430W        W20239   0.657   1.836  11.099 -0.0860 -0.0765 -0.0440
 4431W        W20240   2.397  16.558   1.751  0.1409  0.3842  0.1795
 4432W        W20241  11.310  11.128  11.105  0.4034 -0.0446  0.2320
 4433W        W20242  11.208   3.005  14.148 -0.1671 -0.3658  0.1875
 4434W        W20243   5.945   7.300   0.270  0.1887 -0.0869  0.1193
 4435W        W20244   4.095  11.446   0.133  0.1376  0.1573  0.3196
 4436W        W20245  16.786   7.504   2.682  0.0397 -0.0452  0.3183
 4437W        W20246   1.150  10.590  13.886  0.1700 -0.3618 -0.1357
 4438W        W20247  17.087   7.609  10.685 -0.1488  0.1155  0.0743
 4439W        W20248   1.388   8.725  11.520 -0.1550  0.0805 -0.0559
 4440W        W20249   7.639  17.632   4.904  0.2526  0.1703  0.2704
 4441W        W20250  12.732  11.154   4.779 -0.1030 -0.0994  0.0583
 4442W        W20251  16.792   7.038   1.163 -0.1498  0.1366 -0.5135
 4443W        W20252  17.512   0.853   5.879 -0.0959 -0.0153 -0.3178
 4444W        W20253   6.136  10.241   4.241  0.0961  0.0979  0.2681
 4445W        W20254  10.235  17.015  14.438  0.2615 -0.0075  0.0070
 4446W        W20255   5.233   3.558  13.242 -0.2230  0.1833  0.4498
 4447W        W20256   3.030  17.725   4.416 -0.3374 -0.2755 -0.1219
 4448W        W20257   9.722  18.218   5.446 -0.0042  0.1250  0.0181
 4449W        W20258  16.856   2.192   5.213  0.0533  0.3768 -0.1094
 4450W        W20259  10.382  16.036  13.252 -0.2368  0.1571  0.1330
 4451W        W20260   4.889   0.661   0.556  0.1596 -0.0793  0.0792
 4452W        W20261  15.945  13.267  15.003 -0.1290 -0.3298 -0.1572
 4453W        W20262   1.247  14.561   2.194 -0.3744 -0.0508  0.0189
 4454W        W20263  14.269   2.739   2.639 -0.3409 -0.0480  0.2610
 4455W        W20264   5.200   0.254   4.408  0.1424  0.1629 -0.4012
 4456W        W20265   1.040   7.820   4.615 -0.1346  0.2830 -0.0195
 4457W        W20266  15.625   0.580  15.045  0.2684  0.0598  0.2420
 4458W        W20267   8.051   9.675  14.694 -0.1998 -0.0614  0.0556
 4459W        W20268   0.925   4.923   2.035 -0.1986 -0.0632  0.1071
 4460W        W20269   9.496   1.060  13.351  0.2116  0.1456 -0.0547
 4461W        W20270   6.257  10.942   3.935 -0.1482  0.0479 -0.0696
 4462W        W20271  15.470   3.876   5.466 -0.0707  0.2379  0.0773
 4463W        W20272   2.941  14.476  12.390  0.1974 -0.5561  0.0716
 4464W        W20273   6.725  12.274   2.038  0.0228  0.0291  0.0689
 4465W        W20274   5.930   2.168   1.416  0.2632 -0.1762 -0.0751
 4466W        W20275  15.847   7.290   3.043  0.1841  0.0668  0.0841
 4467W        W20276   5.030  16.574   1.202 -0.3192  0.2266 -0.1866
 4468W        W20277  13.942   4.617   5.916  0.1147 -0.0690 -0.1695
 4469W        W20278   9.041  17.120   1.082  0.0607  0.3778  0.0258
 4470W        W20279   6.258  11.388   4.904  0.1531 -0.0279  0.0248
 4471W        W20280   6.497   0.828   1.460 -0.0015 -0.1594  0.0098
 4472W        W20281  11.809   4.853   0.272  0.3232  0.1254 -0.0788
 4473W        W20282   8.994   7.622   3.701 -0.1334 -0.1328  0.0319
 4474W        W20283  11.014  17.221   3.211 -0.1725  0.1529  0.1377
 4475W        W20284  14.361   7.697   1.378  0.2817 -0.2310 -0.1832
 4476W        W20285  13.697  15.011   0.792  0.0218 -0.0539 -0.3042
 4477W        W20286  10.625  14.716  14.417  0.1058 -0.0501  0.1360
 4478W        W20287   8.075   6.470  11.511  0.1789  0.0225  0.0414
 4479W        W20288   7.848  13.943   1.361  0.0943  0.0499  0.0649
 4480W        W20289  11.454  17.119  13.736  0.1015 -0.0663 -0.2022
 4481W        W20290   7.584   5.526  14.353  0.2813  0.0597  0.2478
 4482W        W20291  18.049  12.599   4.276  0.1503 -0.0305 -0.1150
 4483W        W20292   8.452   3.191   3.386  0.2730 -0.0420 -0.1223
 4484W        W20293   0.924  15.885  14.977 -0.0637  0.0041  0.1866
 4485W        W20294  18.295  16.088  13.352  0.1594  0.0549 -0.2932
 4486W        W20295   1.482  11.461  11.090 -0.2547 -0.2103 -0.1162
 4487W        W20296   7.044   5.224  13.194 -0.2260 -0.1417 -0.1053
 4488W        W20297  16.356   1.946  14.605 -0.0334 -0.0758  0.3344
 4489W        W20298  12.882  13.320   4.435  0.0341  0.3844 -0.0030
 4490W        W20299   0.882  14.636  11.445 -0.2301  0.0640  0.0264
 4491W        W20300   5.243  14.906   1.501 -0.0874  0.2490 -0.0793
 4492W        W20301   0.266  11.703  11.488  0.0485 -0.0150  0.1885
 4493W        W20302  15.813   5.735   9.890  0.1393  0.0836  0.0467
 4494W        W20303   4.475   8.153  11.333  0.1608 -0.0406  0.1592
 4495W        W20304  13.195  12.866   4.111  0.0803 -0.1457  0.3163
 4496W        W20305  14.392   5.593   3.976  0.1847 -0.1200 -0.0954
 4497W        W20306   5.921  16.846   3.937 -0.0767 -0.1764  0.0374
 4498W        W20307   6.148  16.070  12.678  0.0061  0.0091 -0.0067
 4499W        W20308  14.257   3.173   5.199 -0.0077 -0.0608 -0.0705
 4500W        W20309  12.268  12.391   1.844 -0.0007 -0.0575  0.0796
 4501W        W20310   8.326  12.165   4.299  0.0930  0.3798  0.0707
 4502W        W20311  17.397  15.631   3.146 -0.1676 -0.0045  0.2157
 4503W        W20312  12.424  10.422   1.518  0.2551  0.1820  0.0838
 4504W        W20313   4.530   9.879   4.565  0.1343  0.1597  0.0432
 4505W        W20314  17.016   4.381   4.722  0.3690 -0.1528  0.0921
 4506W        W20315  15.914   4.718   2.307 -0.0142  0.1099  0.1275
 4507W        W20316   0.758  17.000   1.802 -0.0427 -0.2262  0.1191
 4508W        W20317   9.836   7.853   2.145 -0.0524  0.0869  0.1394
 4509W        W20318   8.089  12.381   9.197  0.2044 -0.0547 -0.0283
 4510W        W20319  16.729  18.618   2.546 -0.0924  0.0085  0.2288
 4511W        W20320   0.486  11.594  14.584 -0.1870 -0.0781 -0.3488
 4512W        W20321   8.003  11.424   4.757  0.1840 -0.1240 -0.0090
 4513W        W20322  18.494  17.224   2.193  0.1528  0.1795 -0.0973
 4514W        W20323   3.388   5.286  12.030  0.3039 -0.1122  0.2974
 4515W        W20324  11.896  17.924   2.074 -0.0641 -0.0318 -0.0401
 4516W        W20325   3.564   5.808  15.148  0.0708  0.0378  0.2419
 4517W        W20326   3.287  16.347  11.078  0.0112  0.3480 -0.3847
 4518W        W20327   7.876  18.113  14.859  0.0427  0.2771  0.1681
 4519W        W20328  10.149   2.304  13.853  0.2059 -0.0473 -0.3535
 4520W        W20329  11.368  15.054   5.603 -0.0644  0.0248  0.0239
 4521W        W20330   2.347  13.241   0.581 -0.2565 -0.1338 -0.1009
 4522W        W20331   8.506   9.719  13.925  0.0269 -0.1186  0.1218
 4523W        W20332   2.801  12.065  13.197 -0.1720  0.2449 -0.1905
 4524W        W20333   7.016   6.071   5.250  0.3579 -0.1139  0.1487
 4525W        W20334   0.816  14.613  12.883 -0.2225 -0.0312  0.0352
 4526W        W20335  18.754  16.153   4.677 -0.5346  0.2170 -0.1024
 4527W        W20336   2.663  11.078  11.214 -0.1082 -0.1680 -0.0569
 4528W        W20337   2.590  15.327  11.668 -0.4646  0.0702  0.1300
 4529W        W20338   1.375  16.191   3.972  0.2889  0.2327  0.2763
 4530W        W20339  13.174   2.235  12.568 -0.0147  0.3374 -0.2062
 4531W        W20340  11.497   0.794  13.507 -0.0922 -0.2225  0.2821
 4532W        W20341  15.609  11.521   0.882  0.0485  0.2774  0.1099
 4533W        W20342  12.693  15.313   0.432 -0.2174 -0.1847 -0.1374
 4534W        W20343   5.597   9.572  12.861 -0.2007  0.0610  0.2669
 4535W        W20344   9.819   7.489   2.534 -0.0264 -0.0924 -0.2022
 4536W        W20345  15.611  13.276   5.619 -0.3365 -0.1871 -0.1078
 4537W        W20346  18.344  17.242   5.676 -0.0551  0.0253 -0.1636
 4538W        W20347   6.926  12.724   1.926  0.2801  0.0907  0.1759
 4539W        W20348   2.887  18.823  14.411  0.1511  0.0071  0.2661
 4540W        W20349   5.740  19.010  12.172 -0.1761 -0.1298 -0.0774
 4541W        W20350  13.320   8.432   5.307  0.1819 -0.0240  0.1128
 4542W        W20351   3.794   7.644  11.077 -0.1035 -0.0488  0.2352
 4543W        W20352   1.025  18.069  13.765 -0.3326 -0.0953 -0.0406
 4544W        W20353   0.125  14.074   0.909  0.2362  0.0457  0.2830
 4545W        W20354   3.579  14.921  14.277 -0.0977  0.3901  0.0734
 4546W        W20355  19.029  14.045  14.677 -0.2657  0.3421 -0.3141
 4547W        W20356  14.028   7.323  14.195 -0.0210  0.0770 -0.1067
 4548W        W20357   4.927  16.009   2.429 -0.0148 -0.0674 -0.0612
 4549W        W20358  18.379   2.296  12.832  0.0870 -0.1555  0.0659
 4550W        W20359  14.958  17.398   2.180 -0.4379  0.5154  0.1820
 4551W        W20360  14.275  12.391   4.995  0.1188  0.1359 -0.0380
 4552W        W20361  11.120  16.250   5.191 -0.2114 -0.0833  0.1680
 4553W        W20362   1.442  12.986   1.372  0.2081 -0.1839 -0.1695
 4554W        W20363   5.610  13.519   0.378 -0.1473 -0.0079  0.2508
 4555W        W20364   4.595  12.322  10.582  0.3135 -0.0666  0.0090
 4556W        W20365   8.133  12.332  14.155 -0.0392 -0.2601  0.1048
 4557W        W20366  18.804  16.692   4.636 -0.3035 -0.1298 -0.0605
 4558W        W20367   6.937  16.395   3.817 -0.2416 -0.2564  0.0894
 4559W        W20368  11.370   6.158  13.054 -0.0740  0.0116  0.2393
 4560W        W20369  18.856  15.855  14.705  0.0764  0.0288  0.1900
 4561W        W20370   6.509  14.129  10.978  0.2266  0.1997  0.0204
 4562W        W20371  15.451   1.416   4.824 -0.0479  0.0320  0.2108
 4563W        W20372   5.104  10.486  13.833 -0.1379  0.0448  0.0100
 4564W        W20373  12.871   4.601   2.196  0.4532 -0.0965  0.1385
 4565W        W20374   0.607   9.782  11.129 -0.1553  0.1017 -0.1656
 4566W        W20375   2.348  10.298  10.558 -0.0268 -0.0901  0.0918
 4567W        W20376  13.906  12.845   4.804 -0.2270 -0.0896 -0.1857
 4568W        W20377   0.366  10.485  10.416 -0.2200 -0.0751  0.1790
 4569W        W20378   7.681  10.948   2.063 -0.0409  0.1944  0.0895
 4570W        W20379  11.630  16.557   3.159 -0.1721 -0.3218  0.1236
 4571W        W20380   0.347   6.179   3.442 -0.2777 -0.0559  0.0493
 4572W        W20381   1.702  13.857  10.870 -0.2742 -0.2394 -0.1256
 4573W        W20382   8.103   3.552  10.090  0.2555  0.3767 -0.0782
 4574W        W20383   1.984   6.274  14.416  0.1399  0.1875 -0.1939
 4575W        W20384   0.525   5.758  10.743  0.0157 -0.0704 -0.2859
 4576W        W20385  16.365  15.162   3.239 -0.0892 -0.2219  0.4283
 4577W        W20386  15.116   4.944   0.786 -0.0949 -0.2803 -0.2643
 4578W        W20387   4.815  16.267  13.750 -0.1793 -0.0429  0.1853
 4579W        W20388  12.792   5.267   5.530 -0.0512  0.0677 -0.0507
 4580W        W20389  10.185   2.605  12.272  0.1810 -0.1333 -0.2713
 4581W        W20390   8.263   7.740   4.455  0.0247  0.1334  0.0672
 4582W        W20391   7.045   3.337   5.480 -0.1666 -0.1400 -0.0228
 4583W        W20392   5.639  12.447   1.409  0.1867 -0.0739  0.0679
 4584W        W20393  13.655   6.605   5.368  0.0072 -0.2049  0.1372
 4585W        W20394   3.114  18.541   1.690 -0.4196  0.4063 -0.2837
 4586W        W20395   4.243   2.838   2.005 -0.1007  0.0981  0.1874
 4587W        W20396   1.086   5.466   2.202  0.1551 -0.0334  0.0353
 4588W        W20397  14.403  10.500   1.330 -0.0343  0.1698  0.1256
 4589W        W20398   4.580   5.750   3.375  0.0600 -0.2720  0.0979
 4590W        W20399  13.294   4.129   3.809 -0.2487  0.0402  0.0766
 4591W        W20400   2.425   8.461   3.476  0.0217 -0.0258  0.1427
 4592W        W20401  11.262  17.205   9.655  0.0535 -0.1848 -0.1681
 4593W        W20402   3.218   2.170   0.414 -0.0131  0.0229  0.2638
 4594W        W20403  13.352  17.375  14.690 -0.1441 -0.1067  0.0501
 4595W        W20404   0.065   5.554   1.251 -0.0392  0.0241 -0.2245
 4596W        W20405  15.592  18.110   9.896 -0.1547 -0.3344  0.0956
 4597W        W20406   6.228  16.443   4.569 -0.1400  0.0890 -0.2534
 4598W        W20407  13.318  16.251  13.049  0.1632  0.1517 -0.0402
 4599W        W20408   0.499  12.581  13.649 -0.0564  0.1378  0.4861
 4600W        W20409  14.571  12.739   5.808 -0.2779  0.2024 -0.0384
 4601W        W20410   8.171   4.370  14.048 -0.2346  0.0903  0.2580
 4602W        W20411   4.014   6.971   1.820 -0.2426 -0.0911  0.0890
 4603W        W20412  13.213  14.436  13.426 -0.0054 -0.0895 -0.6860
 4604W        W20413   3.366  11.793   0.255  0.2839  0.1414  0.0571
 4605W        W20414   2.615  10.599  12.283 -0.0777  0.3847 -0.0776
 4606W        W20415   9.292  14.694  12.789  0.1035 -0.2026  0.1356
 4607W        W20416   4.417   4.437   2.562  0.2614  0.0874 -0.0228
 4608W        W20417  14.099   6.809   4.667 -0.0766 -0.2288  0.0815
 4609W        W20418   4.475   2.402   0.372 -0.2066  0.1026 -0.0295
 4610W        W20419   5.651   0.895  14.784 -0.0151 -0.0118 -0.0740
 4611W        W20420  17.665   5.301   5.478 -0.1764 -0.0927  0.2716
 4612W        W20421   2.289   0.941  13.773  0.0257  0.2147  0.0266
 4613W        W20422   8.926   1.594  10.472  0.2691 -0.1531 -0.2515
 4614W        W20423   1.139   5.981   3.421  0.2283  0.0378 -0.1424
 4615W        W20424  18.471   7.567   0.364  0.1292  0.4977 -0.1319
 4616W        W20425   5.768   0.796   1.727  0.1706 -0.0684  0.3443
 4617W        W20426  11.151   4.961   1.118  0.1146  0.0169 -0.3505
 4618W        W20427  17.419   2.686  13.595  0.1872 -0.1613  0.1104
 4619W        W20428   1.735   0.238  10.479 -0.0345  0.1616  0.4237
 4620W        W20429  10.654   4.490  11.981 -0.0014  0.0743 -0.0163
 4621W        W20430   5.491   6.669  13.178 -0.0399 -0.2372 -0.1542
 4622W        W20431  13.006  18.410  11.162 -0.1809  0.2818  0.2471
 4623W        W20432   9.758  14.471  11.384  0.0221 -0.1584 -0.0071
 4624W        W20433   9.502   0.569   1.387 -0.0002 -0.0421  0.1766
 4625W        W20434  18.174   6.661   0.592  0.1682 -0.3053  0.0515
 4626W        W20435   5.088   6.056  14.848 -0.1530  0.5262  0.1641
 4627W        W20436   0.553   7.876  12.204 -0.0393  0.4780  0.1448
 4628W        W20437  14.452   7.295   3.450 -0.0061  0.0207 -0.0778
 4629W        W20438   5.938   6.150   4.298 -0.2486 -0.0334  0.4438
 4630W        W20439  19.023  10.650  11.708 -0.2791 -0.2602  0.0336
 4631W        W20440   4.934  10.448  12.047 -0.2270 -0.1469 -0.0037
 4632W        W20441  14.072   6.403  15.069 -0.2168 -0.2083  0.1881
 4633W        W20442   0.852  10.797  13.082  0.0886 -0.1078  0.3348
 4634W        W20443   9.530   9.337   1.658  0.1960  0.0929 -0.1596
 4635W        W20444  11.815   1.236   2.047  0.1991  0.2530 -0.0602
 4636W        W20445   5.664   5.439  14.388  0.4133  0.2592 -0.0539
 4637W        W20446   1.444   4.610  10.428 -0.0094 -0.1249 -0.0711
 4638W        W20447  17.754  18.837  14.133  0.1702  0.0769 -0.1038
 4639W        W20448  17.429   2.816   1.165 -0.1938 -0.1700  0.1074
 4640W        W20449   0.858   7.022  12.555 -0.1248  0.0290 -0.0407
 4641W        W20450   8.812  13.845  13.483 -0.1071 -0.0445  0.3259
 4642W        W20451   5.580   0.693  10.522 -0.1711 -0.3018 -0.2216
 4643W        W20452  11.500   6.306   0.606 -0.0970 -0.0903  0.0011
 4644W        W20453   9.157  14.743   5.119 -0.2008 -0.1425  0.0972
 4645W        W20454   4.818  18.210  11.381  0.0249 -0.1335  0.2713
 4646W        W20455  14.511   7.084   9.714 -0.1648  0.1528  0.1852
 4647W        W20456  16.680   5.129   9.776 -0.1986 -0.1651  0.1511
 4648W        W20457   1.438   0.173   2.008  0.2322  0.0803  0.0308
 4649W        W20458   3.823  16.456   4.898  0.0279 -0.1732 -0.0121
 4650W        W20459   7.120  12.322  11.574  0.0667  0.0849  0.0129
 4651W        W20460  14.037   3.955   4.114 -0.2584 -0.0390  0.2845
 4652W        W20461  12.367  16.892  11.518  0.1391  0.0092  0.2750
 4653W        W20462  12.816  10.045   0.865 -0.3982 -0.2157 -0.2926
 4654W        W20463  11.269  11.164  10.362  0.0593  0.3122  0.2333
 4655W        W20464   4.805   4.578   0.537  0.0300 -0.1505 -0.1136
 4656W        W20465   9.290  18.864   5.420  0.1344 -0.0273  0.0258
 4657W        W20466   0.547   5.687   2.040  0.2728 -0.1205 -0.1389
 4658W        W20467  13.552  15.240  10.819 -0.1104 -0.0247  0.1614
 4659W        W20468  12.768  14.592   0.506  0.1565 -0.0159  0.0266
 4660W        W20469  18.886  11.826   4.183  0.0455 -0.4012 -0.1202
 4661W        W20470   0.862  16.505   2.882 -0.0588  0.1221 -0.6730
 4662W        W20471  12.605  17.778  13.408  0.1220 -0.0060  0.1973
 4663W        W20472   6.005  13.244  13.672 -0.2942  0.2146  0.3342
 4664W        W20473  10.266  18.763   1.192  0.1543  0.0790  0.3797
 4665W        W20474  11.004   3.853  11.468 -0.0383 -0.3022 -0.1844
 4666W        W20475  11.943  17.262   3.122 -0.0965  0.0762  0.0599
 4667W        W20476   8.665   5.922  12.373 -0.1536 -0.2278  0.1760
 4668W        W20477   7.326  12.416   3.212  0.4597  0.1065 -0.2266
 4669W        W20478   1.614  12.228   5.553  0.4230  0.0848  0.2943
 4670W        W20479   4.600   2.993   4.121 -0.2240  0.0042  0.2052
 4671W        W20480   5.886  11.927  11.828 -0.4826 -0.2489  0.2116
 4672W        W20481  15.636  14.537  13.254  0.1676 -0.3379  0.1437
 4673W        W20482   1.651  17.010   5.001  0.1214  0.0093 -0.0745
 4674W        W20483   9.431  14.746  10.033  0.1074 -0.1384  0.1630
 4675W        W20484   5.093  15.072   0.641 -0.3059  0.1142  0.3128
 4676W        W20485   2.382  11.917   1.120 -0.1403 -0.2736  0.0392
 4677W        W20486  12.448  18.215   3.641 -0.0992  0.1495  0.1913
 4678W        W20487  10.366   5.525   0.186 -0.0551 -0.2014 -0.0420
 4679W        W20488  17.716   2.304  10.944 -0.0715 -0.2838  0.0762
 4680W        W20489  17.663  10.631   1.997 -0.0920  0.1204 -0.1436
 4681W        W20490   6.688   2.457  14.902 -0.0627 -0.1723 -0.1533
 4682W        W20491  18.135  13.339  13.766 -0.4315  0.4532 -0.1105
 4683W        W20492   7.110   7.918  11.727  0.2452  0.1642  0.0311
 4684W        W20493   9.421   8.269  13.893  0.2572  0.0918  0.1007
 4685W        W20494  12.912  11.289   1.970 -0.2627 -0.1460  0.1537
 4686W        W20495  15.731  12.924   0.885 -0.0613 -0.0720 -0.2442
 4687W        W20496   5.762   3.696  12.021  0.1203 -0.1225  0.0313
 4688W        W20497   7.256   2.312  10.297  0.1358 -0.2952  0.0123
 4689W        W20498   6.667   6.944   5.474 -0.0106  0.0955  0.3715
 4690W        W20499  16.518   5.146  11.642 -0.0758  0.2432  0.0570
 4691W        W20500  13.839   1.044  12.464 -0.2294 -0.0021  0.0733
 4692W        W20501  10.850   6.502  12.424 -0.1779  0.1553 -0.1937
 4693W        W20502   5.089   8.745   3.097  0.4095  0.0011 -0.0867
 4694W        W20503   3.472   0.420  14.784 -0.1734  0.2734 -0.0063
 4695W        W20504   4.804   4.788  13.083  0.0265 -0.3831 -0.2029
 4696W        W20505   5.820   4.116  12.756 -0.0893 -0.1334  0.3160
 4697W        W20506   3.560   8.085  14.968  0.0351  0.4030 -0.1833
 4698W        W20507   5.009  11.599   9.479 -0.1896 -0.0959  0.1678
 4699W        W20508   3.655   6.856  13.507 -0.1315 -0.3039 -0.2347
 4700W        W20509   7.937   3.029   3.166 -0.0289  0.3018 -0.0773
 4701W        W20510   4.064   9.788  13.838  0.2045  0.0389  0.1783
 4702W        W20511  12.211   7.237  11.535 -0.4804  0.0409 -0.1789
 4703W        W20512   9.078  12.242  12.098 -0.1069  0.0144 -0.0912
 4704W        W20513   0.437   3.205  14.564  0.0714 -0.0809  0.3603
 4705W        W20514  13.416   2.444   2.696  0.0041 -0.0009  0.0074
 4706W        W20515   9.928   5.622  14.522  0.4681  0.2920  0.3149
 4707W        W20516   5.922   0.137   3.958  0.1692  0.1420 -0.1970
 4708W        W20517   3.821   1.300  14.789  0.0253 -0.1398  0.2626
 4709W        W20518  13.186   1.460  13.599  0.4180  0.3105  0.2487
 4710W        W20519   5.494  10.983   0.335 -0.3092  0.0156 -0.2504
 4711W        W20520  15.175   9.656  14.476 -0.4002  0.2844 -0.1283
 4712W        W20521  11.677   4.061   2.656 -0.1971 -0.1757 -0.2684
 4713W        W20522   3.175  15.228  11.965 -0.1432 -0.1924 -0.1788
 4714W        W20523  17.621   6.363   5.583  0.1907 -0.1217  0.0770
 4715W        W20524  14.692  15.190  14.136 -0.5653  0.0141  0.2732
 4716W        W20525  16.117   2.812  14.542 -0.2070  0.2935 -0.1416
 4717W        W20526  11.088   0.871   0.022  0.4045  0.0274 -0.1347
 4718W        W20527  12.896  12.281   2.695 -0.0540  0.0851  0.2566
 4719W        W20528  15.632  14.888  13.660 -0.1777 -0.0426  0.2045
 4720W        W20529  13.502   5.372   2.926 -0.1497  0.0314 -0.2956
 4721W        W20530  18.925   0.539  10.163  0.0274  0.0071  0.0096
 4722W        W20531   5.371  10.859  13.562  0.1906 -0.0146  0.2868
 4723W        W20532  12.087  12.055  10.904  0.0454  0.0593 -0.1166
 4724W        W20533   9.275  13.476   5.348  0.0162  0.3317  0.0826
 4725W        W20534  11.717   6.345   2.499 -0.3200 -0.2042  0.1404
 4726W        W20535   5.860   0.738  12.251  0.2658  0.1211 -0.1448
 4727W        W20536   4.786  13.114  12.892  0.1812  0.0118 -0.0688
 4728W        W20537   4.808   0.811  11.133  0.0451  0.1379 -0.0525
 4729W        W20538   5.847   4.289  10.139 -0.1647 -0.3263  0.0958
 4730W        W20539  11.219   3.463  10.493 -0.1251  0.0231  0.2783
 4731W        W20540   3.392  17.871   4.882 -0.0244 -0.3033 -0.0723
 4732W        W20541   0.690   8.314  15.186 -0.1716  0.0493 -0.0483
 4733W        W20542  15.257  13.062  13.442 -0.0084  0.0699 -0.1645
 4734W        W20543  17.139   8.586   3.062 -0.0516 -0.2361 -0.1906
 4735W        W20544  11.064  10.579   4.055 -0.2222 -0.1262  0.3536
 4736W        W20545  11.155   5.769   3.716 -0.0039 -0.1503 -0.2238
 4737W        W20546  18.071  11.469  11.042  0.0927  0.4125  0.1487
 4738W        W20547   2.218  10.283   3.601  0.0961 -0.1851  0.2722
 4739W        W20548   6.257  10.409  11.266 -0.3132  0.0275 -0.0832
 4740W        W20549  18.422   6.525   5.421  0.0392  0.0990  0.0509
 4741W        W20550  10.373   1.274  13.103  0.1461  0.0844 -0.0360
 4742W        W20551  12.512   9.015   1.875  0.3195  0.0051  0.1063
 4743W        W20552   7.941   5.875  14.001 -0.1835  0.1502 -0.2224
 4744W        W20553  15.618   9.253   0.305 -0.1484 -0.3399 -0.0897
 4745W        W20554  10.494  18.713   4.238 -0.2306 -0.0156 -0.1364
 4746W        W20555  18.830  13.681   3.133 -0.2470  0.0541  0.2494
 4747W        W20556   2.163  15.762  13.877 -0.0412  0.1126  0.0636
 4748W        W20557  14.833   0.803  14.286  0.1005  0.3437 -0.0662
 4749W        W20558   5.164  14.303  12.121 -0.2244 -0.2274 -0.0242
 4750W        W20559   7.786  16.967  11.320 -0.1623 -0.3260 -0.0202
 4751W        W20560  11.626   8.151   0.866  0.1486 -0.1997 -0.2025
 4752W        W20561   9.695   3.565  13.526 -0.0323  0.1454  0.1589
 4753W        W20562   0.234  10.225  14.203  0.0279  0.0807 -0.0581
 4754W        W20563  11.305  13.938  13.600 -0.2356  0.0240  0.0029
 4755W        W20564  13.215   6.892  11.140 -0.0768  0.0825  0.2380
 4756W        W20565   2.175  15.573   2.630 -0.2004 -0.0237 -0.0584
 4757W        W20566   4.589  18.683  10.436  0.4771 -0.0610  0.1624
 4758W        W20567  17.864  15.908   3.364 -0.2542 -0.1027 -0.2016
 4759W        W20568   1.740   8.639   2.839 -0.3922 -0.2128 -0.1814
 4760W        W20569   2.437   1.953  14.564 -0.0294 -0.0454 -0.2103
 4761W        W20570   6.337   5.049   1.143 -0.1184  0.0728  0.0253
 4762W        W20571   3.288   8.906  14.372 -0.0070  0.2401 -0.0286
 4763W        W20572  17.157  13.656   2.451  0.0679 -0.1545  0.0208
 4764W        W20573  13.140   0.984   5.337 -0.1349 -0.1276  0.1195
 4765W        W20574  10.259  11.068  14.487 -0.1486  0.0529 -0.3321
 4766W        W20575  12.302   2.125  11.127 -0.1627 -0.1958  0.1397
 4767W        W20576   3.852  15.415   4.562  0.3055 -0.0410  0.2056
 4768W        W20577  11.992   9.119  13.062 -0.0730 -0.0404 -0.1612
 4769W        W20578  13.892   1.315   1.115  0.2497  0.2538  0.1944
 4770W        W20579   2.486  17.359   3.237  0.3363  0.1341 -0.0610
 4771W        W20580   7.778   5.219  12.669  0.3741  0.0731 -0.1637
 4772W        W20581   3.502   7.333  13.750  0.0314  0.2163 -0.2058
 4773W        W20582  15.027  16.068  10.909 -0.1370  0.0453 -0.1366
 4774W        W20583   7.245   2.087  13.896 -0.0338 -0.0306  0.2385
 4775W        W20584  10.991  15.715   2.620  0.1683 -0.0682  0.2500
 4776W        W20585   3.773   4.844  11.777 -0.1080  0.1118  0.1882
 4777W        W20586  12.084   9.624   3.926  0.0669 -0.1624 -0.0113
 4778W        W20587   3.404  10.009   1.185 -0.0528 -0.1210 -0.2688
 4779W        W20588  10.226   9.536  11.740 -0.0504  0.0247 -0.1761
 4780W        W20589  17.190   2.381   1.960 -0.0346 -0.1492 -0.2838
 4781W        W20590  16.273  13.055  13.502 -0.0198 -0.1431 -0.2522
 4782W        W20591  10.498  14.618   4.072  0.1219 -0.3047 -0.0629
 4783W        W20592   9.755   5.052  11.626 -0.3486 -0.1779  0.0687
 4784W        W20593  16.659   0.706  11.970 -0.1997  0.0075 -0.0387
 4785W        W20594   9.475   6.396   3.790 -0.1214 -0.0826  0.2236
 4786W        W20595   5.361  11.793   1.820  0.2467 -0.0890 -0.0220
 4787W        W20596  17.919   7.518   0.444  0.1572 -0.1375 -0.0824
 4788W        W20597   7.563  10.162  14.408 -0.0889  0.1114  0.2661
 4789W        W20598   6.646  14.951  12.051  0.1167 -0.1427  0.3962
 4790W        W20599   8.996  12.758   9.924  0.1155 -0.0441 -0.0926
 4791W        W20600   8.163   7.761   5.292 -0.0122  0.0517 -0.0810
 4792W        W20601   2.515   3.747   2.618  0.0061  0.2901 -0.3911
 4793W        W20602   4.006  16.304  10.540 -0.0789  0.1746  0.1953
 4794W        W20603   5.094   5.166  11.230  0.0309 -0.1338 -0.2841
 4795W        W20604   7.867   8.777  14.459 -0.2451 -0.2539 -0.1796
 4796W        W20605  18.010   3.238   0.640 -0.0934  0.1368 -0.1929
 4797W        W20606   8.545  14.266   1.916 -0.0030  0.1406 -0.0410
 4798W        W20607   0.143   4.882  10.786  0.0360 -0.3367 -0.2523
 4799W        W20608   3.677   3.391   5.025  0.1977  0.1360  0.0698
 4800W        W20609  11.824  11.044   2.299  0.0437  0.3911 -0.1920
 4801W        W20610  15.418  10.838  12.136 -0.1824 -0.3311  0.2642
 4802W        W20611   5.461   9.412   4.202 -0.1420 -0.2730  0.1677
 4803W        W20612   0.791   8.876   1.267 -0.1037  0.1014  0.0259
 4804W        W20613  13.961  18.131  14.993  0.1013  0.1215  0.2680
 4805W        W20614  13.872   1.737  13.217 -0.1193  0.1414  0.0484
 4806W        W20615  18.893  11.389   1.946  0.1681  0.0091  0.0733
 4807W        W20616   3.751   7.734   5.453  0.2513  0.1156  0.1473
 4808W        W20617   6.370  15.590  14.959 -0.0547 -0.1963  0.2413
 4809W        W20618  11.125   5.920  15.277 -0.0992 -0.1998  0.1365
 4810W        W20619   2.035  18.127  12.171  0.0293  0.2328  0.1359
 4811W        W20620  18.927   0.504  11.277  0.1510  0.1825  0.3150
 4812W        W20621  17.899   6.066   1.604  0.2663  0.3668 -0.0660
 4813W        W20622  12.954  11.423   2.910  0.0693 -0.0976  0.2225
 4814W        W20623   4.306   5.463  11.035  0.2697 -0.0858  0.1784
 4815W        W20624   6.360  16.831   1.446 -0.1212  0.0244 -0.1197
 4816W        W20625  17.735   4.319  14.457 -0.1861  0.0224 -0.0050
 4817W        W20626   3.052  17.885   3.472  0.0669 -0.2636 -0.3263
 4818W        W20627   6.464  12.838  10.332  0.2949 -0.0135 -0.0663
 4819W        W20628  15.775   1.058  14.722 -0.0698 -0.0925 -0.2271
 4820W        W20629   2.439   1.739   3.354 -0.0412 -0.0898  0.3126
 4821W        W20630   5.708  10.953  14.602  0.0632  0.1324  0.1220
 4822W        W20631   5.142   0.095  10.834 -0.1168 -0.1800 -0.3965
 4823W        W20632   0.685  17.419   2.966 -0.0780  0.0692 -0.0558
 4824W        W20633   0.845   5.195  12.466  0.1810 -0.2677  0.0010
 4825W        W20634  15.080  15.658   1.538 -0.0920  0.1921  0.1857
 4826W        W20635   6.346   4.000  12.749  0.3443 -0.1004  0.1630
 4827W        W20636   4.810  18.268  10.382 -0.1824  0.0057 -0.1929
 4828W        W20637  17.102   6.125   1.268  0.1093 -0.0365 -0.0463
 4829W        W20638  19.002  15.419  12.125 -0.0506 -0.3769 -0.2108
 4830W        W20639   4.590   3.264   5.182  0.3127  0.2204 -0.0380
 4831W        W20640   3.474   3.038   1.547 -0.0453  0.2413  0.0776
 4832W        W20641  17.385   1.572   4.122  0.1531  0.0678 -0.0211
 4833W        W20642   2.925  16.179  10.748  0.4477  0.0644 -0.0912
 4834W        W20643  15.483   8.526   2.856  0.0934  0.0088  0.0741
 4835W        W20644  11.535   1.563  12.480  0.0954  0.1587  0.1826
 4836W        W20645  17.083  14.827   4.848  0.2102 -0.1661  0.2611
 4837W        W20646   1.754   1.596  14.217 -0.3180 -0.0196 -0.0967
 4838W        W20647  16.880   7.995  12.607 -0.2169 -0.1404  0.1780
 4839W        W20648  11.827  10.278  13.669  0.0934 -0.1281  0.1691
 4840W        W20649  15.413   6.782  11.728  0.1445 -0.1639  0.0417
 4841W        W20650   3.189   8.575  12.082 -0.0342  0.2682  0.2619
 4842W        W20651  11.731  10.960  12.468 -0.0570 -0.0121 -0.1732
 4843W        W20652   8.799   3.824   3.708  0.1982 -0.2183  0.1092
 4844W        W20653  18.220   8.303   0.136 -0.0669  0.2913  0.1094
 4845W        W20654  12.294  11.129   0.382 -0.1092 -0.1698 -0.0454
 4846W        W20655  11.743  11.721   3.414 -0.0792  0.1442  0.1201
 4847W        W20656   6.587   1.910  14.238  0.1354 -0.3688  0.0476
 4848W        W20657   8.587  15.551  12.811 -0.2082 -0.0774 -0.0139
 4849W        W20658   4.484   1.989   5.029 -0.0138 -0.1249  0.3123
 4850W        W20659   0.234   4.480   3.026  0.3137 -0.0855  0.0157
 4851W        W20660  16.668  13.344  15.103  0.0254  0.0825 -0.3499
 4852W        W20661   0.247  10.302   9.968  0.1877 -0.0265 -0.0906
 4853W        W20662   1.242   7.062   2.005  0.0460  0.1822 -0.1442
 4854W        W20663  10.636   1.260  13.656 -0.2043 -0.2701 -0.1209
 4855W        W20664  17.747   2.754  13.111  0.1347 -0.2231  0.1337
 4856W        W20665  16.831  16.823   1.630  0.0803  0.0571  0.1959
 4857W        W20666   5.737  17.060   0.878  0.1214  0.1520  0.2470
 4858W        W20667   8.779   2.568  13.278  0.2205  0.3021 -0.1891
 4859W        W20668   7.712   8.971   4.429  0.0155 -0.1947  0.2663
 4860W        W20669  18.797   4.809   1.047  0.2001 -0.0510 -0.1289
 4861W        W20670   6.146  10.920  11.102 -0.0916 -0.3813 -0.0247
 4862W        W20671  18.806   1.954   1.523  0.0622  0.1147 -0.0022
 4863W        W20672   8.425   1.839  13.734 -0.2464  0.3125  0.1142
 4864W        W20673  16.897  11.565   4.342  0.5384  0.1380 -0.0638
 4865W        W20674   2.088  15.154  11.072 -0.0855 -0.1762 -0.1716
 4866W        W20675  13.958  16.887   1.459 -0.3363 -0.1046 -0.1667
 4867W        W20676  15.217   8.461  14.080  0.0211  0.0406  0.0275
 4868W        W20677  12.640  16.523  13.689  0.2427 -0.0712  0.0701
 4869W        W20678   4.658   4.456  14.591 -0.1644 -0.1452  0.0211
 4870W        W20679  18.445  10.544  13.446 -0.0937  0.3056 -0.1634
 4871W        W20680  15.061   1.301   3.429 -0.1410 -0.1712 -0.0106
 4872W        W20681   4.202   3.010   4.882  0.1396  0.0211  0.3406
 4873W        W20682   3.991   0.095  10.052 -0.2205  0.0704 -0.1283
 4874W        W20683  15.179  15.133   1.634  0.0951  0.3195  0.1474
 4875W        W20684  13.769   8.756   2.012  0.0297 -0.1508 -0.2711
 4876W        W20685  15.079   5.144  13.799  0.0989 -0.0878  0.2207
 4877W        W20686   0.595   8.680   0.870 -0.0486  0.1861  0.0806
 4878W        W20687   7.714   1.317  13.207 -0.3043  0.1759  0.0108
 4879W        W20688   1.847  10.081  12.205  0.2001  0.1730 -0.0341
 4880W        W20689  10.094   8.642  10.421 -0.0544 -0.0606 -0.1436
 4881W        W20690  13.630   1.225   4.524 -0.1032  0.0528 -0.1349
 4882W        W20691  19.015   7.514   0.877  0.1149 -0.3389  0.0297
 4883W        W20692   7.811   4.403  10.355 -0.1569 -0.2420 -0.0127
 4884W        W20693   8.593   1.314   1.210 -0.1200 -0.0616 -0.2530
 4885W        W20694  15.930   0.932  12.504  0.3195 -0.4200 -0.0435
 4886W        W20695   7.142  10.121   2.730 -0.0292 -0.0013  0.1432
 4887W        W20696  12.441  11.341  13.678 -0.1373 -0.2952  0.1381
 4888W        W20697   5.734  16.013   3.205 -0.1339 -0.0995  0.0680
 4889W        W20698   6.004   5.066  11.984  0.1372 -0.3273  0.0123
 4890W        W20699   3.978   5.064   1.174  0.2747 -0.1046 -0.1331
 4891W        W20700   6.830   7.120   1.093  0.1976  0.2792  0.3283
 4892W        W20701   9.667   0.253  10.339  0.1278  0.0486  0.3341
 4893W        W20702  13.528   0.522   2.957 -0.4048  0.1777 -0.1915
 4894W        W20703   1.579   5.593  11.779 -0.0541 -0.1540 -0.2021
 4895W        W20704   7.167  11.855  11.323 -0.0610  0.0878 -0.2718
 4896W        W20705   0.656   1.522  10.687  0.1586 -0.0931 -0.0588
 4897W        W20706   6.695   3.216   4.263  0.0572 -0.0183 -0.1204
 4898W        W20707  11.125   1.220  14.880 -0.1140 -0.0080 -0.1579
 4899W        W20708  10.247  18.370  13.668  0.1718  0.0441  0.1639
 4900W        W20709   1.383   7.879   0.927  0.2824 -0.1849  0.4198
 4901W        W20710  12.325  11.035   3.778 -0.1204 -0.0988 -0.1223
 4902W        W20711  11.902  13.271  13.965  0.0695 -0.3725  0.2465
 4903W        W20712   4.859  10.909  15.142 -0.1287 -0.1907  0.0654
 4904W        W20713  13.077  15.162   5.255 -0.0374  0.1241  0.0644
 4905W        W20714   9.796  10.510   4.858  0.1792 -0.1590  0.2053
 4906W        W20715  16.113  15.940   3.636  0.1426  0.1151 -0.1666
 4907W        W20716  12.463  10.839  13.483  0.0931 -0.2617 -0.3610
 4908W        W20717   9.949  18.003  10.816 -0.0132 -0.1114  0.2513
 4909W        W20718   4.021  17.597   3.198 -0.1430 -0.3437  0.0408
 4910W        W20719   7.069   6.191   0.840 -0.1167 -0.1545  0.2224
 4911W        W20720  16.130   3.445   3.962  0.0378  0.0563 -0.2975
 4912W        W20721  17.470   6.035   1.946 -0.2709 -0.0249 -0.0154
 4913W        W20722   1.503   3.402   4.983  0.0257  0.1109  0.1660
 4914W        W20723   1.802  17.608   2.538  0.3012 -0.3412 -0.2557
 4915W        W20724   0.323   0.695  10.991 -0.2668 -0.2097  0.1221
 4916W        W20725   4.090  16.851   3.053 -0.1329  0.0347  0.0598
 4917W        W20726  18.378  15.925   0.843 -0.2444  0.3075  0.1864
 4918W        W20727  10.817  11.585   4.356  0.0154  0.2008 -0.1099
 4919W        W20728  14.811  17.083   5.926  0.1124 -0.1401 -0.0130
 4920W        W20729   1.590   3.394   2.693 -0.1143 -0.3095  0.1620
 4921W        W20730   5.538  17.654  11.625  0.0625 -0.0517 -0.2826
 4922W        W20731  19.004  15.000   2.299  0.0932  0.3353  0.1479
 4923W        W20732  18.578  12.789   4.207 -0.0071  0.0066 -0.2418
 4924W        W20733   0.110  11.107   0.850 -0.0582 -0.4285 -0.0035
 4925W        W20734  15.372   9.597  15.152 -0.1259 -0.1382  0.0756
 4926W        W20735   8.894  17.841  14.529 -0.1206  0.0644 -0.0880
 4927W        W20736  12.017  13.154   0.039 -0.0487 -0.0998 -0.0642
 4928W        W20737  13.526   3.761  14.367  0.0719  0.0263  0.1791
 4929W        W20738   4.222   0.302  11.561 -0.0955 -0.1626  0.2663
 4930W        W20739  13.246  17.611   4.554  0.1637 -0.0027  0.1313
 4931W        W20740  15.720   2.199  14.089  0.2428 -0.1918  0.3637
 4932W        W20741   2.551  11.397   4.670 -0.0535 -0.2514  0.1098
 4933W        W20742  14.286   8.702  10.680 -0.0612  0.2929 -0.2560
 4934W        W20743   7.224   4.427   2.773  0.0346  0.2473 -0.1122
 4935W        W20744  18.725   7.411   2.293  0.0059 -0.1730 -0.0995
 4936W        W20745   0.009  13.169   3.190 -0.1064  0.3377  0.0242
 4937W        W20746  10.464  13.268   3.451 -0.0766 -0.2680  0.0781
 4938W        W20747  14.402  11.623  12.233 -0.1059  0.1328  0.4748
 4939W        W20748   7.182  12.128   3.640  0.2849  0.0515 -0.0456
 4940W        W20749  12.109   1.641  13.790  0.0463  0.1672  0.1078
 4941W        W20750   1.735   6.693   4.201  0.1269 -0.0290 -0.2269
 4942W        W20751   0.250   0.936   0.881  0.0951 -0.1894 -0.6688
 4943W        W20752  11.732   8.618  12.652  0.1140 -0.0413  0.1559
 4944W        W20753  16.574   2.028  10.994  0.0785  0.0867  0.1146
 4945W        W20754  10.813   8.706  12.154 -0.0234 -0.0129  0.4469
 4946W        W20755  11.981   8.101  11.847  0.2822 -0.0221  0.0089
 4947W        W20756   9.222  11.729   4.689  0.0213 -0.1674 -0.3044
 4948W        W20757   4.035  14.617   3.801  0.0279 -0.2724  0.2736
 4949W        W20758  16.475  13.645   3.911  0.1205 -0.1502 -0.2161
 4950W        W20759  17.120   1.319   0.881 -0.1331 -0.1867  0.0980
 4951W        W20760   9.172   5.189   4.653  0.4443  0.0651  0.1829
 4952W        W20761   2.472   6.135  11.219 -0.1823 -0.0888  0.0887
 4953W        W20762  18.281  14.079  14.573 -0.4723 -0.2158 -0.2714
 4954W        W20763  13.665   8.753  12.232 -0.1749 -0.1494 -0.3211
 4955W        W20764   3.224   5.874   2.583  0.0245  0.0135 -0.0720
 4956W        W20765   5.821   3.804   1.119  0.1001  0.1103  0.0002
 4957W        W20766  16.331  11.957  11.656  0.1997 -0.2734  0.0407
 4958W        W20767  13.115  11.104   1.514 -0.0007  0.1085  0.0043
 4959W        W20768   2.883  10.893  10.729  0.4942 -0.1266  0.0619
 4960W        W20769   2.843  17.315   4.051 -0.2284 -0.5260  0.2701
 4961W        W20770  18.072   2.035   5.890  0.1407  0.0807 -0.2234
 4962W        W20771  16.846   5.744   1.092 -0.1260 -0.3545  0.1590
 4963W        W20772  11.992  11.114  14.094 -0.1692  0.3441 -0.3525
 4964W        W20773  18.825   8.660  12.066 -0.0258 -0.0910  0.1555
 4965W        W20774   8.497  13.946  14.684  0.2860  0.0411  0.0310
 4966W        W20775  14.099  14.196  13.563 -0.2108  0.2784 -0.2203
 4967W        W20776   9.841   1.972  11.639  0.2899 -0.1451  0.1641
 4968W        W20777  14.990  16.941  13.671 -0.0736  0.0390  0.2100
 4969W        W20778   4.330   7.934   2.722 -0.1244  0.0624  0.0365
 4970W        W20779  13.615  14.921  11.210 -0.1901  0.1785 -0.0517
 4971W        W20780   6.005  16.795  13.800 -0.1641  0.2709  0.1900
 4972W        W20781   6.419   0.590  10.457 -0.0349  0.2875 -0.1078
 4973W        W20782  18.314   6.362   1.351  0.0460 -0.1459 -0.1160
 4974W        W20783   6.757  18.976   3.772 -0.2235  0.1441 -0.0906
 4975W        W20784  16.573  10.256  10.491  0.0235 -0.0541  0.2520
 4976W        W20785  15.636  14.505   3.835 -0.1210  0.1997  0.1225
 4977W        W20786  10.384   6.710   1.315 -0.2150 -0.2304  0.1300
 4978W        W20787  13.285  13.091   1.966 -0.0565  0.1408  0.2584
 4979W        W20788  15.087  10.986   3.726  0.1152  0.1089  0.1314
 4980W        W20789  17.217   5.816   2.504 -0.1491  0.1516 -0.0915
 4981W        W20790   0.815  13.595  14.270  0.1145  0.0871 -0.0386
 4982W        W20791  17.057   9.415   3.002 -0.0349  0.2775  0.1202
 4983W        W20792  14.553   9.279   3.899  0.1268 -0.4216 -0.0846
 4984W        W20793   5.458   6.513   4.034 -0.1439 -0.1967 -0.2078
 4985W        W20794  14.209   7.009   2.428 -0.1812  0.1786  0.1090
 4986W        W20795   2.078  16.328  14.040  0.0130  0.1099 -0.2013
 4987W        W20796   4.973   9.375   4.954 -0.0525  0.4398  0.3710
 4988W        W20797   2.176  11.232   1.954 -0.0782  0.0145  0.1563
 4989W        W20798   1.369   7.012  11.319  0.1927  0.1856 -0.0518
 4990W        W20799   1.887  18.516  14.016 -0.0570  0.1131 -0.2288
 4991W        W20800   8.177  15.991  13.598 -0.0381  0.2503  0.2448
 4992W        W20801  16.125   4.876   4.241 -0.0709  0.2223 -0.0461
 4993W        W20802  11.043  13.989   1.603 -0.0477  0.2434 -0.1632
 4994W        W20803   7.446   9.926  11.161 -0.0520 -0.1528  0.1467
 4995W        W20804   3.251  18.391  13.750  0.0892  0.1081  0.0369
 4996W        W20805  15.231   9.877  13.454 -0.0948 -0.0807 -0.1980
 4997W        W20806   3.237   8.832   3.342 -0.0163  0.0849  0.0068
 4998W        W20807  15.994   3.947   4.016 -0.4464 -0.2813  0.0813
 4999W        W20808   4.495   2.791  13.758  0.0702 -0.0870 -0.1625
 5000W        W20809   7.200  17.826  14.272  0.2118  0.0656  0.2063
 5001W        W20810   6.190   3.359   1.893 -0.2008 -0.0489  0.3116
 5002W        W20811  16.560   6.652  11.519 -0.0346  0.0158  0.0495
 5003W        W20812  16.575  15.178   4.203  0.0677  0.2234  0.1029
 5004W        W20813   7.725  13.725   4.662 -0.0019 -0.1813  0.1350
 5005W        W20814   0.426  11.757   5.170 -0.1812  0.1054 -0.1905
 5006W        W20815  17.900   1.596   3.973  0.1396  0.0269 -0.3845
 5007W        W20816  10.644   4.643   1.207 -0.0165  0.2590 -0.0965
 5008W        W20817   7.837  13.333   5.027  0.2553 -0.0489 -0.4595
 5009W        W20818  10.054   0.046   3.496  0.0615 -0.0024 -0.0124
 5010W        W20819  12.094  14.760   3.677 -0.1412  0.1486  0.1912
 5011W        W20820  17.761   6.156  12.456  0.3046 -0.1934  0.1158
 5012W        W20821  15.677  18.829  14.181 -0.0733 -0.0748  0.1494
 5013W        W20822  18.740  16.575  11.356  0.0283  0.0999  0.1908
 5014W        W20823  13.238  11.926  12.238  0.0401 -0.1931 -0.4083
 5015W        W20824  11.303   6.802   3.987 -0.2085 -0.0501  0.2660
 5016W        W20825  16.806  12.872   5.240  0.2407  0.0836  0.1444
 5017W        W20826   4.866  15.442   4.585 -0.1167 -0.2042 -0.0152
 5018W        W20827   5.147   8.653  12.005  0.1250 -0.0776 -0.1466
 5019W        W20828  18.349   3.367   1.527 -0.0219  0.3027  0.1926
 5020W        W20829   7.084  17.313  14.341  0.1807  0.1265 -0.0676
 5021W        W20830  17.861  16.616   0.074 -0.2226 -0.3815 -0.0498
 5022W        W20831   6.438   7.354   0.853 -0.1114 -0.2403 -0.0299
 5023W        W20832   8.948   5.613   5.220 -0.1302  0.0141  0.0150
 5024W        W20833   9.503  12.028   2.646  0.1659 -0.0044 -0.1998
 5025W        W20834   9.781   8.663  14.036 -0.1549  0.2409  0.1465
 5026W        W20835  14.522  14.740  11.239 -0.2610 -0.2957  0.0653
 5027W        W20836   8.625  11.710   1.264 -0.3131 -0.2396  0.1672
 5028W        W20837  13.104  15.006   0.520 -0.1154  0.2533 -0.0330
 5029W        W20838  12.397   2.024   2.009  0.1841  0.0260 -0.0264
 5030W        W20839   7.675  13.894   2.485  0.1547 -0.0617  0.0137
 5031W        W20840  15.784   6.761  13.638  0.0695  0.0124  0.0025
 5032W        W20841  12.805   7.517   3.130  0.2096  0.3180  0.0405
 5033W        W20842   3.794  18.538   4.422 -0.0136 -0.0138  0.0899
 5034W        W20843   8.275   8.189  10.416  0.2569  0.2765 -0.2059
 5035W        W20844  15.239  18.932  14.457  0.0525 -0.1341 -0.0588
 5036W        W20845  11.529   7.392   3.387 -0.1235 -0.0375 -0.0518
 5037W        W20846  17.369   4.892   5.444  0.1132 -0.0135 -0.1578
 5038W        W20847   1.393  14.220  10.827  0.1559 -0.1857  0.1546
 5039W        W20848   2.685   6.449   0.826  0.1720 -0.0910  0.2167
 5040W        W20849  11.231   7.185   2.496 -0.1264 -0.3170 -0.0412
 5041W        W20850  11.020  10.362  14.044 -0.1292 -0.0661  0.2089
 5042W        W20851   9.501   8.580  15.250  0.0588 -0.0942  0.5551
 5043W        W20852  12.277   1.000  14.359  0.0112  0.1618 -0.0196
 5044W        W20853  15.564  16.849  12.340  0.2133 -0.2879  0.0518
 5045W        W20854  16.833   8.562   5.207  0.1833  0.1030  0.5205
 5046W        W20855   2.369  12.184   1.594  0.0630 -0.1011 -0.1336
 5047W        W20856   5.572   7.622  14.454 -0.0503 -0.3454  0.1443
 5048W        W20857  10.350   9.945   6.008  0.0388 -0.3801  0.2699
 5049W        W20858  10.844   8.869   4.598 -0.1266 -0.3935  0.2648
 5050W        W20859  15.128  12.306   3.827 -0.0693 -0.4714 -0.1601
 5051W        W20860  14.451   6.996   4.987 -0.3010  0.0058  0.2357
 5052W        W20861  13.556   2.504   1.832  0.0252 -0.1466  0.1432
 5053W        W20862  12.318  18.090   2.730 -0.0530  0.1938  0.2000
 5054W        W20863   8.996   5.305  13.153  0.1892 -0.1776  0.1901
 5055W        W20864  11.336   2.900  12.168 -0.3839  0.0194 -0.0038
 5056W        W20865  17.869  12.765   2.033 -0.0986 -0.1170  0.1067
 5057W        W20866   9.091   8.142  11.171  0.1346 -0.3424  0.1736
 5058W        W20867   6.714  18.833  10.527 -0.0958 -0.2063  0.0979
 5059W        W20868  18.470   8.473  11.596 -0.1546 -0.0599  0.0914
 5060W        W20869  17.406  12.908   2.187  0.0783 -0.5001  0.1375
 5061W        W20870  16.214  18.871  13.198  0.0491  0.0716  0.1819
 5062W        W20871   9.976   9.124  14.638 -0.1816 -0.0880  0.4266
 5063W        W20872  16.000  12.276  12.180 -0.3049  0.3086  0.0095
 5064W        W20873  13.438   3.144  12.151  0.0569 -0.3616 -0.2490
 5065W        W20874   1.377   8.511   3.631  0.1145  0.0477 -0.3592
 5066W        W20875   8.847  15.201   2.271 -0.1548 -0.1642 -0.1212
 5067W        W20876   1.313   0.400  12.391 -0.0705  0.0500  0.2572
 5068W        W20877   6.283  18.736  14.043 -0.1595 -0.1881  0.3974
 5069W        W20878   1.459  14.304  14.527 -0.0802 -0.0349  0.0094
 5070W        W20879  15.473  17.833  13.170  0.2109  0.0861 -0.1771
 5071W        W20880   9.054  14.472   4.645  0.2593 -0.1793 -0.2146
 5072W        W20881   6.086   7.754  10.780  0.1708  0.0785  0.1714
 5073W        W20882   3.449  13.381  10.513  0.2497  0.2591  0.0405
 5074W        W20883  10.067   3.012   1.172  0.0259  0.0811  0.1130
 5075W        W20884  15.988   8.220   1.629  0.1107  0.0577 -0.2768
 5076W        W20885  15.346   3.220  11.349 -0.2522 -0.0899  0.0240
 5077W        W20886  14.294   5.468   2.390 -0.0977 -0.4276 -0.1182
 5078W        W20887   7.773  10.945   4.060 -0.1549  0.0900  0.0050
 5079W        W20888  18.719   3.668   0.299  0.0609  0.1410 -0.1994
 5080W        W20889  11.527   5.362   3.854  0.0139 -0.1454 -0.0672
 5081W        W20890  10.212  17.998  11.554  0.1696  0.2946  0.4780
 5082W        W20891   6.058  10.540   2.918  0.0539  0.1059  0.0772
 5083W        W20892  16.826   2.579  12.221  0.1645 -0.0164 -0.0116
 5084W        W20893  12.713   8.395   3.431  0.2544 -0.1933  0.1009
 5085W        W20894   0.588   3.394   0.079 -0.0836  0.1373 -0.2515
 5086W        W20895  14.492  18.163   5.496 -0.1860 -0.2082  0.0188
 5087W        W20896   1.601   2.601  12.217  0.2992  0.0344 -0.2282
 5088W        W20897   7.871   6.979  15.135 -0.0017 -0.0898  0.1765
 5089W        W20898  16.614  16.383   1.998 -0.0870  0.0507  0.0738
 5090W        W20899   1.594  11.906  13.562 -0.0553 -0.1159  0.0496
 5091W        W20900  11.152   3.415   5.464 -0.1387 -0.1184 -0.1669
 5092W        W20901  17.552   8.317   5.793  0.1729  0.3092  0.1443
 5093W        W20902  11.787   7.949  14.418 -0.0137 -0.3656  0.1246
 5094W        W20903   2.578   0.880   3.093  0.2573  0.2302  0.1317
 5095W        W20904   4.880  11.538  14.240 -0.2134  0.2172 -0.5117
 5096W        W20905   8.361  15.986  14.201 -0.1145  0.2984  0.1603
 5097W        W20906  14.392  16.657   1.758  0.4363 -0.1220 -0.2416
 5098W        W20907  15.969   3.157   0.173  0.0491  0.0075  0.0169
 5099W        W20908   0.118   6.223   2.992  0.0939 -0.2380 -0.0930
 5100W        W20909  16.357  18.621   5.501 -0.2708 -0.0297 -0.0348
 5101W        W20910  11.033   6.021  10.920  0.0291  0.2860  0.6748
 5102W        W20911   5.864  15.982  11.611  0.1107 -0.0922  0.2298
 5103W        W20912  16.544   1.396   4.761 -0.1159 -0.3323 -0.0667
 5104W        W20913  16.854   7.922  11.052  0.0458 -0.1202  0.4133
 5105W        W20914   2.054   5.552   4.338  0.0880  0.0845 -0.1651
 5106W        W20915  17.083   8.041   4.488  0.2140  0.0316 -0.1927
 5107W        W20916  17.746  12.296   2.716  0.0721 -0.5038 -0.2406
 5108W        W20917   8.796   4.861   1.007  0.0245  0.1770 -0.0242
 5109W        W20918  11.124  16.020  13.635  0.3295 -0.2094 -0.1799
 5110W        W20919   8.207   6.223  14.243 -0.1412  0.3086 -0.0061
 5111W        W20920  14.867   9.702   3.056 -0.1794 -0.0132 -0.0620
 5112W        W20921   6.340  18.279  14.363  0.1437 -0.0212  0.0785
 5113W        W20922   7.416  14.939  11.618 -0.1224  0.1865  0.0878
 5114W        W20923   3.372   0.976   1.492 -0.1777  0.2818 -0.2450
 5115W        W20924  16.449   3.243   2.635 -0.0362  0.0988  0.4004
 5116W        W20925   3.312   7.834   1.595 -0.4093 -0.1905 -0.0945
 5117W        W20926  11.333  18.564   4.202 -0.6138  0.1527 -0.4045
 5118W        W20927   5.241  16.109   3.278 -0.0339  0.1366 -0.0562
 5119W        W20928  13.067   7.282  14.674 -0.0262 -0.1520  0.0798
 5120W        W20929  13.673   8.934   4.713 -0.1467  0.0277  0.1952
 5121W        W20930   4.820   5.378   3.655  0.1765  0.0915 -0.0991
 5122W        W20931   3.900  10.410  12.321 -0.1001 -0.2037 -0.0145
 5123W        W20932  10.561   1.757   0.112 -0.0960  0.0951  0.0717
 5124W        W20933   9.466   7.125   3.453  0.0183  0.2046  0.2224
 5125W        W20934  16.887   8.884   0.698 -0.1255 -0.4412  0.3401
 5126W        W20935   1.200  15.271   2.119 -0.0579 -0.3248 -0.3666
 5127W        W20936  11.424   5.181   0.328  0.0339  0.0723 -0.1753
 5128W        W20937  18.200   1.597  12.065  0.0513 -0.0597  0.1125
 5129W        W20938  14.062   8.608   5.387  0.0623 -0.1208  0.0676
 5130W        W20939  17.541   5.669   9.724 -0.0208 -0.0246 -0.1576
 5131W        W20940  10.530  11.548   0.126  0.2306 -0.2349 -0.3557
 5132W        W20941   3.963  16.052   0.753 -0.0981 -0.0416  0.0890
 5133W        W20942   4.313   3.132   2.672 -0.1216  0.0479 -0.2657
 5134W        W20943   5.917   6.616  10.575  0.5713  0.1148  0.2624
 5135W        W20944  11.515   6.036   2.103 -0.2484  0.0872 -0.0706
 5136W        W20945   7.287  14.930   4.327  0.0896  0.1276 -0.2297
 5137W        W20946   7.846   0.111  14.356 -0.0399 -0.4047 -0.2247
 5138W        W20947   5.794   7.095   1.993  0.1466 -0.2160  0.0557
 5139W        W20948   9.092  16.591  14.521 -0.2193 -0.2481 -0.2380
 5140W        W20949   5.401   4.234   2.450  0.0651 -0.1069 -0.3221
 5141W        W20950  10.500   6.987   3.354 -0.1372  0.1950  0.1353
 5142W        W20951  16.311  12.525   1.309 -0.1770  0.0222 -0.0570
 5143W        W20952  15.433   2.044  15.051 -0.0316  0.2280 -0.2603
 5144W        W20953  16.937   1.372  11.493 -0.0670  0.2696 -0.0495
 5145W        W20954  17.649   6.525  12.769 -0.1786  0.2099 -0.0446
 5146W        W20955  15.710   9.148  13.300 -0.0888 -0.0128 -0.0732
 5147W        W20956   9.636   6.773  10.935  0.0286  0.0047  0.3966
 5148W        W20957   0.670   7.057  14.500  0.1294  0.0959  0.0485
 5149W        W20958   7.780  11.597   3.389 -0.1296  0.2591 -0.1108
 5150W        W20959   9.237  13.448  14.606 -0.1628  0.0108  0.1297
 5151W        W20960  17.095  19.032   2.425 -0.3453 -0.2566 -0.2213
 5152W        W20961  14.095   3.957   3.566 -0.1252  0.3871  0.1623
 5153W        W20962  12.637   4.368  11.697  0.2541 -0.0139  0.1506
 5154W        W20963  10.000   0.519   1.489  0.1817 -0.1284 -0.3046
 5155W        W20964  10.102  17.436  11.582 -0.0724  0.0669 -0.1279
 5156W        W20965   8.241   4.123   4.521  0.0469 -0.2103  0.0220
 5157W        W20966   1.471   6.536   0.042 -0.2618  0.2815 -0.1414
 5158W        W20967  17.285  18.681  13.957 -0.1982  0.0026 -0.0221
 5159W        W20968  15.677  15.076  12.065  0.0771  0.0818 -0.0044
 5160W        W20969   9.637  14.658  13.972 -0.1188 -0.2591  0.0470
 5161W        W20970   0.050  14.548   3.224 -0.0654 -0.0429 -0.3469
 5162W        W20971   9.293  11.446  13.425  0.2990 -0.3434 -0.3317
 5163W        W20972   4.752   6.302   2.231  0.2662 -0.1298  0.1115
 5164W        W20973  15.112   4.068  11.206 -0.0734 -0.0973  0.0702
 5165W        W20974   0.021   3.225   2.481  0.0972  0.0859  0.0284
 5166W        W20975   7.363   8.706   0.424 -0.1727  0.0235  0.2562
 5167W        W20976   1.873   1.800  11.996 -0.1015 -0.1214 -0.2338
 5168W        W20977   5.732  14.916   1.658 -0.0629  0.0964 -0.0260
 5169W        W20978  14.950   3.545   3.587 -0.0120 -0.1492  0.2083
 5170W        W20979   8.969   9.077   1.711 -0.2995  0.0397  0.4140
 5171W        W20980   2.998   0.381  14.529  0.1916 -0.3562  0.2238
 5172W        W20981  17.595   7.136  13.427 -0.0034 -0.1163  0.1592
 5173W        W20982  12.545  16.549   3.007 -0.1342  0.2445  0.2588
 5174W        W20983   9.192  14.074  10.536 -0.4687 -0.3062 -0.0375
 5175W        W20984  18.674   4.513   3.216 -0.1336 -0.1127 -0.0023
 5176W        W20985  12.495   7.480   4.038  0.3691  0.0511  0.1989
 5177W        W20986  18.472  18.155  10.543  0.0546 -0.2780  0.2243
 5178W        W20987  15.083  14.869  11.314 -0.1615 -0.1103 -0.0476
 5179W        W20988   0.035  17.037   3.449 -0.1898 -0.0927 -0.0651
 5180W        W20989   9.771  17.441  10.444 -0.0949  0.1466  0.3226
 5181W        W20990   2.658   4.222  11.588 -0.1264  0.2618 -0.0893
 5182W        W20991   5.678  17.223  11.378 -0.0685 -0.1253  0.0154
 5183W        W20992   0.959   3.442  11.896  0.0260 -0.2142  0.1276
 5184W        W20993  14.211  10.188   0.948 -0.0206 -0.1216 -0.2356
 5185W        W20994   8.981  18.884   2.998 -0.2530  0.0096  0.1109
 5186W        W20995   5.453  15.465   2.469 -0.2375 -0.2136  0.0563
 5187W        W20996   7.415   4.151   2.327  0.1706  0.0326 -0.1971
 5188W        W20997  16.982  11.885   2.630 -0.1369 -0.0730  0.0668
 5189W        W20998  16.949  14.991   1.929 -0.0521  0.0964 -0.2778
 5190W        W20999  11.922   8.309   4.912  0.1974 -0.4142  0.2270
 5191W        W21000  13.459   0.335  11.533  0.0734  0.0761  0.0879
 5192W        W21001   2.724   7.234   2.451 -0.3373 -0.2170 -0.0403
 5193W        W21002  15.724   2.276   5.274  0.4279 -0.1517  0.0683
 5194W        W21003  13.848  16.433   4.251 -0.0275 -0.1826  0.1365
 5195W        W21004  17.395  18.373  12.121 -0.0275  0.2693  0.0833
 5196W        W21005  13.093   9.284  11.087 -0.2650 -0.2439  0.1611
 5197W        W21006  13.418  11.746  14.019 -0.3001 -0.2142 -0.2548
 5198W        W21007  12.187  15.776   5.189 -0.1182 -0.0291  0.2105
 5199W        W21008  14.875  15.720   9.678  0.3687  0.3041 -0.0809
 5200W        W21009  10.948   1.638   9.801 -0.2285  0.1912  0.2538
 5201W        W21010   7.759   3.935   0.077  0.0985 -0.1208 -0.1816
 5202W        W21011   6.648  11.124  12.975 -0.3807 -0.1013  0.0221
 5203W        W21012   6.287   6.483   0.800  0.3396  0.2242  0.1297
 5204W        W21013   7.245  14.327  14.812  0.3104  0.1584 -0.0040
 5205W        W21014   0.351  17.096  14.349  0.0777 -0.0748 -0.2629
 5206W        W21015  16.303   5.358  10.525  0.2968  0.0628  0.0983
 5207W        W21016   9.185   1.663   3.757 -0.0447 -0.0269  0.1958
 5208W        W21017   4.564  12.960   3.551  0.1327 -0.1521 -0.2247
 5209W        W21018   3.365   9.758   3.674  0.1136 -0.1142  0.1796
 5210W        W21019   7.628   4.816  10.641  0.3441  0.1720 -0.1383
 5211W        W21020   1.394   4.530   2.308 -0.1379 -0.2589  0.0850
 5212W        W21021   8.225   0.643  11.923  0.1116  0.1170 -0.0100
 5213W        W21022   0.480  11.761   2.426 -0.1186  0.1618 -0.1812
 5214W        W21023   7.972   9.353   4.654 -0.1516 -0.0180 -0.0227
 5215W        W21024   8.691   6.681  13.432  0.0437  0.2343 -0.2277
 5216W        W21025  10.395  14.898   1.239 -0.2477  0.1333  0.2475
 5217W        W21026  12.398   3.249   2.903  0.1526 -0.1232 -0.0746
 5218W        W21027  10.948  10.334   2.665  0.0350  0.0533  0.1760
 5219W        W21028   9.449  15.071  11.784 -0.3438 -0.1738  0.0469
 5220W        W21029  10.511  16.102   1.937  0.1387 -0.0278 -0.2073
 5221W        W21030  17.656  10.572   2.584 -0.0128 -0.0386 -0.3935
 5222W        W21031   0.977   6.322   9.852  0.0438  0.2368  0.0063
 5223W        W21032  18.766   1.285   1.210  0.4289  0.2283  0.3987
 5224W        W21033   6.463   8.265   0.514 -0.0518 -0.5465  0.0888
 5225W        W21034   4.964  14.630   2.182  0.1187 -0.2840  0.2088
 5226W        W21035   6.116  15.210   1.520  0.0794 -0.4383 -0.1537
 5227W        W21036   8.671   5.689  14.104 -0.1136 -0.2302  0.1225
 5228W        W21037   4.582   4.256   4.620 -0.1144  0.0581  0.0066
 5229W        W21038   1.173   3.116   0.830 -0.2377 -0.3212  0.4365
 5230W        W21039  16.095  10.749  14.574  0.0095  0.1488  0.0686
 5231W        W21040  17.792  15.211  12.412 -0.1601  0.1337 -0.1356
 5232W        W21041  11.272  17.352  10.944 -0.2186  0.0206  0.1736
 5233W        W21042   4.142  18.000  14.504  0.0309  0.0901 -0.0162
 5234W        W21043  14.102   2.425   0.136 -0.1778 -0.3692  0.2550
 5235W        W21044   0.597   0.252   5.263  0.1335  0.0852  0.0030
 5236W        W21045   4.650   6.532  13.717  0.4183  0.2409  0.1210
 5237W        W21046   6.880   9.851  10.115 -0.3168 -0.1964 -0.2462
 5238W        W21047  18.498   8.028   1.673 -0.0561 -0.0722 -0.0806
 5239W        W21048  14.032   5.365  14.825 -0.0317 -0.0114  0.0634
 5240W        W21049  13.378   8.380  13.777  0.1539  0.3491  0.3405
 5241W        W21050   2.007   9.665  15.253  0.1856  0.4223  0.1108
 5242W        W21051   7.150  16.619  10.865 -0.0776  0.1960 -0.1311
 5243W        W21052   7.142   6.191  10.173  0.0448 -0.1577  0.0401
 5244W        W21053  16.147  14.516   4.638 -0.1683  0.1491 -0.1439
 5245W        W21054  18.014  16.246  15.121 -0.1232 -0.1684 -0.1171
 5246W        W21055   5.782  17.604  10.804 -0.2522 -0.0692 -0.2536
 5247W        W21056   3.149   4.052   1.453  0.0625  0.4220  0.2417
 5248W        W21057  17.619   6.192   2.420  0.2483 -0.2218  0.1015
 5249W        W21058   0.184   8.215   4.840  0.0955  0.1172  0.0755
 5250W        W21059   5.825   1.800   1.046  0.2214 -0.1380  0.0743
 5251W        W21060  16.320   4.403   4.293  0.2345  0.0482 -0.1113
 5252W        W21061  11.382   2.632   0.723  0.2539 -0.0842 -0.0491
 5253W        W21062  12.705  18.871  11.162  0.0883 -0.3275 -0.0005
 5254W        W21063   7.150   1.542   2.407  0.0628 -0.2203 -0.2134
 5255W        W21064  15.362   9.728  10.274  0.3440 -0.0532 -0.3774
 5256W        W21065  17.838   3.722   1.398  0.2273  0.2860  0.1828
 5257W        W21066   9.774   0.980  11.534  0.0870  0.3282  0.4438
 5258W        W21067  12.566  11.946   2.932  0.0980 -0.1247  0.0721
 5259W        W21068  16.452  14.894   3.667  0.1203 -0.2563  0.1247
 5260W        W21069  18.792   0.624  13.986 -0.1700 -0.2562  0.1591
 5261W        W21070   0.645  11.308   5.177 -0.0403  0.0708 -0.1852
 5262W        W21071   2.376  17.852  13.110 -0.0347  0.4303 -0.1471
 5263W        W21072   8.612   0.895  13.227 -0.0056  0.1484  0.1525
 5264W        W21073   7.997   8.976  13.672  0.0798 -0.0156  0.0134
 5265W        W21074  14.696  11.704  11.432 -0.1626 -0.1533 -0.0997
 5266W        W21075   3.458   4.056  10.418 -0.0062  0.0961  0.0123
 5267W        W21076   4.348   1.944   1.890 -0.0898  0.1893 -0.1760
 5268W        W21077   1.772   4.930  11.285  0.0143 -0.1789 -0.0522
 5269W        W21078  11.269   0.238   2.804 -0.1098 -0.0170 -0.0624
 5270W        W21079  14.664   7.414   9.298 -0.0973  0.1884 -0.4880
 5271W        W21080  10.709  15.714   1.579 -0.0154 -0.1363  0.0109
 5272W        W21081  15.526   8.289  14.557  0.1098  0.1020 -0.0153
 5273W        W21082  13.938   5.719  15.173 -0.0203 -0.0290  0.1066
 5274W        W21083  16.543  16.849   3.448 -0.2233  0.0166  0.1627
 5275W        W21084   6.263   4.042   4.030 -0.1452 -0.3805 -0.0724
 5276W        W21085  17.257   9.201   3.728 -0.2143  0.2565  0.1755
 5277W        W21086  10.397  17.371   2.233 -0.3021  0.1156 -0.0799
 5278W        W21087   5.291   1.662  10.911  0.2634  0.1617  0.2953
 5279W        W21088   0.565   8.594   3.424 -0.1085  0.0504  0.1228
 5280W        W21089   7.254  11.890  13.384  0.0423 -0.1729  0.3799
 5281W        W21090  12.644  15.203   4.154  0.1315  0.2899  0.0076
 5282W        W21091   4.746   8.344   4.973  0.3943  0.2302 -0.0304
 5283W        W21092   7.856   0.274  13.470 -0.0482  0.1887 -0.3231
 5284W        W21093  13.961  14.474   4.832 -0.2213  0.4583  0.1590
 5285W        W21094  14.071   1.005  14.903  0.1317  0.0806  0.1764
 5286W        W21095  10.811  12.307  13.705  0.0364 -0.2586 -0.0109
 5287W        W21096   5.159   6.144  10.671 -0.3715 -0.1359  0.2794
 5288W        W21097  10.875   1.858   5.765 -0.2066 -0.0885  0.1211
 5289W        W21098  17.864  13.902   0.656 -0.2524  0.1241 -0.1375
 5290W        W21099   9.040  12.227  15.151 -0.0386  0.1834 -0.0621
 5291W        W21100  15.266   9.633  11.254 -0.0561  0.3360 -0.2500
 5292W        W21101   5.210  11.936  14.666  0.1781 -0.0934  0.1659
 5293W        W21102  12.973   0.913  14.051  0.0242  0.0579  0.2054
 5294W        W21103   9.388  12.243  12.949 -0.3938 -0.0650  0.0506
 5295W        W21104   8.666   6.906   5.091 -0.1005 -0.3534  0.1170
 5296W        W21105  11.698   2.674  11.235 -0.1242 -0.0473 -0.3448
 5297W        W21106  14.800   1.729  10.230  0.1557  0.0879 -0.2595
 5298W        W21107   6.119  12.510   4.014  0.1264  0.0433 -0.4286
 5299W        W21108   9.851   4.220   3.984  0.0419 -0.0715 -0.2880
 5300W        W21109   4.962   9.257   1.188  0.1795  0.0114  0.1610
 5301W        W21110  15.946  14.956   3.527  0.4258  0.0952 -0.0808
 5302W        W21111   7.380  19.006   2.632  0.1451 -0.0503 -0.0679
 5303W        W21112   1.984   1.419  13.501  0.1356 -0.0823  0.1251
 5304W        W21113   7.775   6.359   1.558  0.0752 -0.1102 -0.4287
 5305W        W21114   0.784   3.286   3.751 -0.1030 -0.1096  0.1423
 5306W        W21115   3.458  17.979  11.567  0.0461 -0.0532  0.0372
 5307W        W21116  13.829   3.679   0.918  0.1137  0.0038 -0.3505
 5308W        W21117  15.683  16.744   3.742  0.1404 -0.4900 -0.3915
 5309W        W21118   9.151   9.525   1.433  0.0239  0.3169 -0.0647
 5310W        W21119  13.436   0.729  14.112  0.0657 -0.1067 -0.1346
 5311W        W21120  13.945   0.674   9.688 -0.0146  0.0536 -0.1243
 5312W        W21121   9.970  15.138  12.265 -0.0492 -0.0204  0.0505
 5313W        W21122  17.132   1.425   1.841  0.0971  0.1633  0.0751
 5314W        W21123  10.531   6.087  12.450 -0.2328  0.0158  0.3488
 5315W        W21124  16.645   4.254   5.867 -0.0447 -0.0061  0.0467
 5316W        W21125   0.052   2.248   2.314  0.0531  0.3242 -0.1811
 5317W        W21126   7.761  15.188   4.257  0.1870 -0.0740  0.1334
 5318W        W21127  18.847   6.221   4.437  0.0974  0.1810  0.0009
 5319W        W21128  11.011   2.893   2.935 -0.1156 -0.2109 -0.1291
 5320W        W21129  11.884  15.363   4.461  0.1201 -0.3542 -0.2397
 5321W        W21130   8.166   9.267  12.791  0.1928 -0.3536 -0.0614
 5322W        W21131   2.445   7.351  10.865  0.2006 -0.0000  0.2529
 5323W        W21132   0.862   7.638   5.927  0.0579 -0.2214 -0.2211
 5324W        W21133  18.643   0.474   5.823  0.0886 -0.2966  0.1799
 5325W        W21134   3.068  15.426   3.090 -0.1140  0.1301 -0.0315
 5326W        W21135  16.491   2.481  14.348 -0.1134  0.1082 -0.2122
 5327W        W21136  10.063  11.800   3.513 -0.0359  0.1024 -0.1108
 5328W        W21137   7.095  18.170   2.135  0.1199  0.1273 -0.1807
 5329W        W21138  13.372  12.850   4.618 -0.3857 -0.0141  0.0175
 5330W        W21139   6.725  15.112   0.368 -0.3332 -0.0825  0.1615
 5331W        W21140  12.084  18.129  11.941  0.1929 -0.5266 -0.1406
 5332W        W21141  12.973   9.594   1.789 -0.0777 -0.1730  0.1173
 5333W        W21142   2.760   0.029   0.430 -0.0257  0.0530 -0.2684
 5334W        W21143  16.803  17.582  11.121  0.2113 -0.4538  0.0062
 5335W        W21144  12.463  12.230   1.419 -0.4161  0.2038  0.1398
 5336W        W21145  10.798   4.312  11.553 -0.2210  0.0731 -0.1311
 5337W        W21146   6.046  13.808   1.027  0.1232 -0.2667 -0.1486
 5338W        W21147  15.547  11.523  11.774  0.2916 -0.2005  0.0712
 5339W        W21148   4.100   0.864   2.405 -0.1719 -0.0536 -0.1041
 5340W        W21149   1.809  15.664  14.256  0.3358  0.1711  0.2394
 5341W        W21150   0.792  12.416   1.309  0.1394 -0.1498  0.1454
 5342W        W21151   2.898  13.387  13.345  0.2025  0.3575 -0.0777
 5343W        W21152  18.566   0.665  12.097  0.1272  0.3657 -0.1836
 5344W        W21153   9.102  14.254  11.885  0.0650 -0.1406 -0.1284
 5345W        W21154  18.673   1.365  15.128  0.0521  0.2739 -0.0518
 5346W        W21155  10.977   8.971   4.025 -0.4121 -0.0029  0.1663
 5347W        W21156   1.234  10.036  12.156 -0.0825 -0.0656  0.1888
 5348W        W21157   8.620  11.493  11.547  0.2636 -0.0223  0.0019
 5349W        W21158  10.196  10.169  13.111  0.4994  0.2996 -0.1642
 5350W        W21159   2.132  16.681   2.373  0.1283 -0.0435  0.0139
 5351W        W21160  15.173   1.475   5.312 -0.1526  0.2649  0.2120
 5352W        W21161  15.796  10.734   1.232 -0.2162  0.0803 -0.1211
 5353W        W21162   2.909  10.138  14.607  0.2423 -0.0820 -0.3853
 5354W        W21163   1.536  17.648   4.899 -0.2894 -0.0206 -0.3204
 5355W        W21164   2.846   1.058  14.448  0.0030  0.0228  0.1605
 5356W        W21165   0.937  16.475   1.985 -0.2906  0.2457  0.1324
 5357W        W21166   9.103   1.759   4.653  0.0656 -0.0277 -0.1504
 5358W        W21167  16.324  11.827   3.413 -0.2024 -0.2016  0.1947
 5359W        W21168  13.462   7.691  12.664  0.4811 -0.1683  0.1185
 5360W        W21169  12.308   1.099  15.172  0.3313 -0.2775 -0.1933
 5361W        W21170  11.643  11.737   1.149  0.0484 -0.0782 -0.0378
 5362W        W21171  15.483  17.172  11.452  0.0789  0.0734 -0.2941
 5363W        W21172  11.820   7.766   3.427 -0.1896  0.1165  0.0384
 5364W        W21173   2.672   1.048   4.059 -0.0253 -0.0488 -0.0028
 5365W        W21174   9.853   2.655   4.627 -0.0209 -0.0320  0.2060
 5366W        W21175   4.007   2.335   2.024 -0.1808 -0.1647 -0.3239
 5367W        W21176   8.979  12.240   0.325  0.1485 -0.0048  0.1624
 5368W        W21177  18.942  10.711  13.218 -0.0194  0.0053  0.0642
 5369W        W21178  16.751   6.242   3.029  0.1109  0.6211 -0.0880
 5370W        W21179   1.329  16.990  15.052 -0.0168  0.1646 -0.2805
 5371W        W21180   9.363  14.190  14.147  0.1057  0.0149  0.0808
 5372W        W21181  14.794   3.658   3.013  0.4846  0.0793  0.1684
 5373W        W21182  18.028   5.489  13.679  0.0227 -0.0832 -0.0973
 5374W        W21183  13.760  15.068  13.243 -0.0469  0.0854  0.0574
 5375W        W21184  10.697   7.387   3.143  0.1312 -0.1618 -0.0118
 5376W        W21185   3.302   5.097  13.455  0.0122 -0.3390  0.2121
 5377W        W21186  15.574   6.341  11.454  0.4412  0.3304 -0.0347
 5378W        W21187  16.205  18.751  15.043 -0.0680  0.1216  0.3234
 5379W        W21188   9.976  13.968   0.395 -0.5122 -0.2636 -0.1297
 5380W        W21189  12.407   6.790  13.221  0.2239 -0.0316  0.0796
 5381W        W21190  16.015   1.075  13.456 -0.1733  0.2919  0.0378
 5382W        W21191  17.598   8.814   3.694  0.6182  0.0194  0.0498
 5383W        W21192  15.333   7.895   2.271  0.0517 -0.1138  0.4842
 5384W        W21193  11.307   2.873  12.833  0.1814 -0.0466  0.1015
 5385W        W21194  13.809  18.594  10.766 -0.1082 -0.0378  0.0993
 5386W        W21195   2.803  10.110  13.208 -0.0180 -0.1643  0.0565
 5387W        W21196   7.904   8.362   0.887  0.1282  0.2296 -0.1484
 5388W        W21197   1.908  12.161  11.139  0.0009 -0.1899 -0.0631
 5389W        W21198  16.003   2.150  12.723 -0.2671 -0.0152 -0.2246
 5390W        W21199  10.105   2.812   1.646  0.2327  0.0835 -0.1243
 5391W        W21200  16.327  10.947   4.948  0.4326 -0.0324 -0.2095
 5392W        W21201   2.285  14.884   3.469 -0.1287 -0.0238 -0.0367
 5393W        W21202   9.115  12.303   0.791  0.0257 -0.1363 -0.0728
 5394W        W21203   8.830   5.291  11.310  0.0189 -0.4131  0.0209
 5395W        W21204  16.381  16.650   1.417 -0.0026  0.0639  0.0532
 5396W        W21205   1.606   1.953  10.842 -0.0431 -0.0171  0.1139
 5397W        W21206  13.373   7.833  13.744  0.2008 -0.2275 -0.4125
 5398W        W21207  16.814  11.309   2.444  0.0096  0.2303 -0.1642
 5399W        W21208   0.326   1.315  11.050 -0.0942 -0.1919  0.1212
 5400W        W21209  18.457   5.438   0.376  0.0574  0.1492 -0.1407
 5401W        W21210  11.574   9.842  12.024 -0.0548  0.0522 -0.2851
 5402W        W21211   6.666  10.579  12.823  0.2385  0.0364  0.2024
 5403W        W21212   6.842   5.300  12.628 -0.0131 -0.0775 -0.0802
 5404W        W21213   7.881  13.742   1.889  0.1323 -0.2827 -0.3672
 5405W        W21214  16.054   3.290   2.951 -0.0699 -0.1066  0.1043
 5406W        W21215   7.471   5.639  10.362 -0.2257 -0.1607  0.0484
 5407W        W21216   0.420  10.525   1.074 -0.0806 -0.0819 -0.1705
 5408W        W21217  17.023  11.065   2.043 -0.1295 -0.0037  0.0136
 5409W        W21218   8.940   6.078   1.003  0.2257 -0.1743 -0.0980
 5410W        W21219   9.888  15.814   3.428  0.2074 -0.1580 -0.0378
 5411W        W21220   6.609  18.488   3.013 -0.0944  0.0766  0.0405
 5412W        W21221   7.832   3.163  11.434  0.1649  0.2013 -0.0062
 5413W        W21222   2.979  18.761  11.223 -0.0738 -0.1159 -0.0480
 5414W        W21223  10.116   9.451   4.403  0.1867 -0.2339  0.0478
 5415W        W21224  16.213  12.770  14.395 -0.3573 -0.0389 -0.0230
 5416W        W21225  13.053   9.801  11.690  0.1188  0.0925 -0.0098
 5417W        W21226  17.161  16.171   0.575  0.2172 -0.1055  0.2090
 5418W        W21227  14.592  18.882  14.649 -0.1134  0.2715 -0.0424
 5419W        W21228  14.260  17.014  12.708  0.2167  0.2224 -0.1448
 5420W        W21229   0.880  14.922  13.804 -0.1318 -0.0329  0.3831
 5421W        W21230   1.537   9.514   4.442  0.1103  0.0249 -0.0715
 5422W        W21231  10.014   9.458  14.301  0.2757 -0.0607  0.1157
 5423W        W21232   8.136  11.835  14.054 -0.1756  0.1191 -0.2687
 5424W        W21233  17.582   6.677   0.529 -0.0234 -0.1062  0.1364
 5425W        W21234  16.923   6.428   9.925  0.2430  0.1214 -0.0751
 5426W        W21235   8.768  14.794   0.686 -0.0527 -0.0346 -0.0738
 5427W        W21236  16.416   2.962   1.011  0.1036 -0.1669 -0.2571
 5428W        W21237  16.579   2.879  10.767 -0.0538  0.1282 -0.1420
 5429W        W21238  12.997  16.206  13.432 -0.2448  0.1436  0.0553
 5430W        W21239  18.757  18.670  13.804  0.0506 -0.0546 -0.1414
 5431W        W21240   7.093  17.331  12.920 -0.0492  0.2696  0.0447
 5432W        W21241   6.738   4.372  11.699 -0.1062 -0.2306  0.2123
 5433W        W21242   5.449   4.871  13.596  0.2112 -0.0687  0.1073
 5434W        W21243  11.505  17.145  14.562 -0.1205  0.0987 -0.1690
 5435W        W21244   0.374   8.871  13.016  0.1933  0.3230 -0.0570
 5436W        W21245   0.311  11.103   0.408  0.2463 -0.0032 -0.0732
 5437W        W21246   8.626   3.227  10.927  0.0841  0.0710  0.1238
 5438W        W21247   0.862  15.459   4.364  0.0757 -0.2452  0.1829
 5439W        W21248   1.164  17.278   3.051  0.2146 -0.0687  0.1731
 5440W        W21249   8.233  12.149  10.202 -0.1753  0.0574  0.1206
 5441W        W21250   9.028  12.484   4.182 -0.1674 -0.0742 -0.0188
 5442W        W21251   1.924   7.668  13.878 -0.0454 -0.0301 -0.1571
 5443W        W21252  10.842  15.155  14.663 -0.0490 -0.1164  0.0902
 5444W        W21253  16.230   7.201  10.721  0.0922  0.1656  0.0214
 5445W        W21254   6.104  14.233   4.248  0.1212 -0.3650 -0.1892
 5446W        W21255  10.610   8.854  14.056  0.0639 -0.1868  0.1644
 5447W        W21256  17.946   8.757   1.288  0.0711  0.0794  0.2584
 5448W        W21257  12.103  12.733  10.749  0.1878 -0.1996  0.0657
 5449W        W21258   9.721  17.104   1.059  0.0044 -0.0269 -0.1951
 5450W        W21259   8.919  12.747  13.823 -0.0371 -0.2530  0.1097
 5451W        W21260   1.700   0.438   4.822 -0.1155 -0.2741  0.2427
 5452W        W21261   7.988  16.054  11.054 -0.0662 -0.1169  0.0450
 5453W        W21262   7.158  13.259  14.035  0.2063 -0.2190 -0.1538
 5454W        W21263  14.944   2.745  15.240  0.1111  0.3285 -0.2626
 5455W        W21264   2.575   2.953   3.437 -0.0744 -0.0830  0.0205
 5456W        W21265  18.933  13.473  12.721 -0.1105  0.0243 -0.1687
 5457W        W21266   6.241   8.435  13.673 -0.2446  0.0054  0.1815
 5458W        W21267   5.630   7.156   0.948  0.0523 -0.3715 -0.3064
 5459W        W21268   7.213   9.246   1.730 -0.2309  0.1120  0.1031
 5460W        W21269  10.323   0.437   1.134  0.1688  0.4263  0.0525
 5461W        W21270  11.179   8.879   1.836 -0.1028 -0.0624  0.2430
 5462W        W21271   4.334  12.740  11.460 -0.4458  0.1541 -0.0399
 5463W        W21272  11.911  12.695   0.816 -0.1813  0.0041  0.1823
 5464W        W21273   6.766   9.543  13.784  0.1365  0.0678  0.3730
 5465W        W21274   8.969  10.393  12.082 -0.2145 -0.2469 -0.0318
 5466W        W21275   7.844   6.763   2.757  0.1366  0.0544  0.1723
 5467W        W21276  15.662  17.048   3.306 -0.0565 -0.3501 -0.3500
 5468W        W21277   4.744  16.475   4.708 -0.1952 -0.0306 -0.2486
 5469W        W21278  17.403  11.597   2.646  0.0320  0.1389  0.0929
 5470W        W21279  12.079   3.449  13.099  0.0712  0.1052 -0.2178
 5471W        W21280   8.413   5.133  11.528 -0.1621  0.0265 -0.4026
 5472W        W21281   3.695  12.365   1.321 -0.3935 -0.1308 -0.1342
 5473W        W21282  14.707   8.337   1.922  0.1560  0.1915  0.2179
 5474W        W21283   1.055   2.785  14.946  0.0998 -0.0032  0.0597
 5475W        W21284   7.671   5.105  13.129  0.1315  0.2057 -0.1344
 5476W        W21285   7.409   0.027   3.816 -0.1918  0.2573 -0.1196
 5477W        W21286  10.638  15.843   4.104  0.0208  0.1381  0.0925
 5478W        W21287   6.849  14.628   0.712  0.1508 -0.0862 -0.4246
 5479W        W21288   8.812  18.227  13.591  0.1714 -0.2981 -0.0809
 5480W        W21289  14.697   4.872   0.360  0.1879  0.0839  0.2539
 5481W        W21290   2.243  13.770  11.738 -0.0524  0.3173  0.4280
 5482W        W21291   3.233  13.361  12.534  0.4309 -0.0243  0.0239
 5483W        W21292  17.995   4.432   2.087 -0.2145  0.2785 -0.0294
 5484W        W21293   8.376  12.028  11.428  0.2193  0.0534 -0.1813
 5485W        W21294  12.797  12.063  11.280 -0.0710  0.2230  0.1291
 5486W        W21295   2.602  11.523  12.607 -0.1922 -0.0184  0.0373
 5487W        W21296   1.995  11.884   0.858 -0.1004  0.1931  0.3036
 5488W        W21297   9.008  11.937  14.352  0.2779  0.0222 -0.0909
 5489W        W21298  17.993   6.333  12.010 -0.0183  0.0726 -0.2673
 5490W        W21299   8.600  13.538  12.634  0.2474  0.2492  0.0775
 5491W        W21300  14.714  11.328   1.178  0.0006  0.0375  0.0543
 5492W        W21301   9.973   2.319   0.195 -0.1439  0.0772 -0.1381
 5493W        W21302   9.835   8.546   2.502 -0.0453 -0.2094 -0.1505
 5494W        W21303   6.632   7.671  11.526  0.1061  0.1235  0.0543
 5495W        W21304  11.062  17.095   1.719 -0.0551 -0.1277 -0.0584
 5496W        W21305   5.305   3.500  10.509  0.1439  0.0425 -0.1904
 5497W        W21306  11.873   0.083  14.811  0.0059  0.1544 -0.0091
 5498W        W21307   4.561  18.437  14.575  0.2932 -0.2988  0.1082
 5499W        W21308   8.624   4.286  14.772  0.0101  0.0601 -0.0504
 5500W        W21309   5.708   4.708   2.898  0.1589  0.1270  0.1040
 5501W        W21310   8.734  10.204  13.002 -0.0035 -0.1545  0.0278
 5502W        W21311  10.445   3.875   9.628 -0.0483  0.2240 -0.2351
 5503W        W21312  15.776   2.909  12.179 -0.1178 -0.1341  0.2555
 5504W        W21313   0.470   1.801  11.603 -0.3218  0.2589 -0.1700
 5505W        W21314   9.782  12.949  11.081  0.1181 -0.1356  0.0010
 5506W        W21315   0.386  17.207  10.627  0.2583  0.1144 -0.1443
 5507W        W21316  14.834  15.368   4.481 -0.1281  0.0605  0.4237
 5508W        W21317   4.714   3.397  11.441 -0.2343 -0.1575 -0.4894
 5509W        W21318   1.562   0.326   0.280  0.1899  0.2602  0.2164
 5510W        W21319   6.142   5.354   4.844  0.0952  0.1104 -0.2544
 5511W        W21320  15.499   0.041  11.157 -0.2526  0.1543  0.2733
 5512W        W21321  18.147  18.495  15.258  0.4063 -0.2120  0.4221
 5513W        W21322  17.454  12.220   3.715  0.0047 -0.0839 -0.1368
 5514W        W21323   9.538   7.229   2.809  0.0733 -0.0816 -0.1294
 5515W        W21324  10.414   4.371   4.603 -0.1116 -0.1030 -0.2519
 5516W        W21325  12.910   4.206   6.095 -0.1487 -0.1999  0.1824
 5517W        W21326   4.019   1.058   4.161 -0.1116  0.1842  0.2469
 5518W        W21327  10.335  16.417   2.632 -0.0327 -0.1726 -0.1319
 5519W        W21328  18.488   3.288   0.016 -0.0660  0.1223  0.3229
 5520W        W21329   6.932  13.145  13.228  0.0025  0.2466  0.2031
 5521W        W21330  12.730   4.087   1.232  0.0405  0.1466 -0.0702
 5522W        W21331  11.832  17.323   1.110 -0.1139  0.0417 -0.1842
 5523W        W21332  14.530   5.234  12.496  0.2497 -0.3512  0.0131
 5524W        W21333   3.052  12.661   3.326  0.0576 -0.1523 -0.0204
 5525W        W21334   1.572   6.155   2.460  0.0147  0.1363  0.0374
 5526W        W21335   8.596   9.512   2.649 -0.0086 -0.1299  0.3960
 5527W        W21336   6.968  11.772  13.761  0.0743 -0.0154 -0.0376
 5528W        W21337  10.259  14.856   4.451  0.3398  0.2263  0.0044
 5529W        W21338  16.818  12.361   2.775  0.0609 -0.0993 -0.0018
 5530W        W21339   5.688  16.249  15.223  0.0505  0.1127 -0.0586
 5531W        W21340   5.804  12.430  11.396 -0.1082  0.0296 -0.0133
 5532W        W21341  10.732  11.720   0.543 -0.2329  0.1654  0.2064
 5533W        W21342  12.353   7.246   0.404 -0.0456 -0.0174  0.0852
 5534W        W21343   9.147   0.450   9.543 -0.0326 -0.1193 -0.0205
 5535W        W21344  10.442   1.632   4.097  0.3744  0.1279 -0.3865
 5536W        W21345  13.162  10.294  11.544 -0.1107  0.1794 -0.1633
 5537W        W21346   9.961   0.680  14.952 -0.1878 -0.1728  0.0397
 5538W        W21347   2.209   4.359  11.745 -0.0014 -0.1272  0.1259
 5539W        W21348   1.256   6.793  12.917  0.0110 -0.0219 -0.0913
 5540W        W21349   1.702   6.893   2.371  0.0686 -0.1268 -0.1894
 5541W        W21350  11.071   7.155   0.146 -0.2784  0.1523  0.0947
 5542W        W21351  16.530   7.467  14.100 -0.1108  0.1882 -0.3417
 5543W        W21352  16.761   3.382   4.872  0.0341 -0.0547 -0.0812
 5544W        W21353   0.465  10.536   5.069  0.1311 -0.3761  0.0416
 5545W        W21354   3.027   3.917   0.918  0.1451  0.1300  0.1062
 5546W        W21355  12.855  11.408   1.186 -0.4599  0.0822  0.1577
 5547W        W21356   0.550  16.707   0.222 -0.0127 -0.0258  0.2382
 5548W        W21357   9.462   3.968  10.768 -0.1065  0.0264 -0.2147
 5549W        W21358  14.362   7.342  15.242  0.4178 -0.5275 -0.0199
 5550W        W21359  15.356   6.146   0.032  0.0029 -0.0007 -0.1866
 5551W        W21360  10.372   3.090  12.179 -0.2836  0.1121 -0.0431
 5552W        W21361  18.591  17.684  11.437  0.0482  0.3332 -0.1909
 5553W        W21362  11.213  18.137  14.059  0.1916  0.0110  0.1631
 5554W        W21363  18.005   6.275   2.685 -0.0477 -0.3379 -0.0125
 5555W        W21364  11.068  10.734   3.551  0.1886  0.0046 -0.1979
 5556W        W21365   4.165  16.195  12.682 -0.1771 -0.1280  0.3040
 5557W        W21366   9.898  17.936   4.405 -0.0351 -0.0481 -0.5734
 5558W        W21367  17.989   9.198  15.039 -0.0094  0.2797  0.0736
 5559W        W21368  10.136   2.236  12.669  0.3018 -0.0893  0.1590
 5560W        W21369  17.203   7.093   0.029 -0.0697  0.1252  0.2245
 5561W        W21370   8.205   5.582  11.993 -0.0200 -0.2628  0.1445
 5562W        W21371  14.270   3.674  14.707 -0.1745  0.3622 -0.1676
 5563W        W21372   4.627   7.861   0.456 -0.0146  0.0195 -0.3091
 5564W        W21373  16.419   5.448   3.039  0.2554 -0.1766 -0.2336
 5565W        W21374  16.428  17.600   3.666 -0.1185  0.0073  0.0693
 5566W        W21375  11.715   6.068  14.505  0.1431 -0.2435  0.1381
 5567W        W21376  13.966  10.679   2.232 -0.2792 -0.0606 -0.0631
 5568W        W21377   2.448   0.385   3.151 -0.1357  0.3778 -0.0419
 5569W        W21378  16.986  13.469   0.887 -0.0707 -0.2360 -0.3860
 5570W        W21379   4.327   2.753   5.387 -0.1105 -0.2339  0.1073
 5571W        W21380   4.726  15.767   1.424 -0.4365  0.0645  0.0990
 5572W        W21381   9.215  16.799  12.800 -0.2038  0.0075 -0.0919
 5573W        W21382  17.242   5.682  14.576  0.1541 -0.0224 -0.1484
 5574W        W21383   6.083  13.467  12.313  0.1378 -0.2218  0.4139
 5575W        W21384  14.861   0.447  13.948 -0.1154 -0.1075  0.0137
 5576W        W21385  18.600  11.480  12.441 -0.3084  0.2616  0.1277
 5577W        W21386   0.486  17.614   0.834 -0.0892  0.0538 -0.1415
 5578W        W21387   0.733  16.113  11.569 -0.1000  0.1694  0.1276
 5579W        W21388  10.104   5.607  15.032 -0.2021 -0.1943  0.4098
 5580W        W21389  13.011  11.642  13.269  0.1012 -0.1089  0.1078
 5581W        W21390  13.594  15.407   9.628 -0.5636 -0.0224  0.1131
 5582W        W21391  14.651  15.689  11.048  0.0928 -0.2963 -0.1380
 5583W        W21392   1.832   2.767   0.109 -0.1616 -0.0908  0.4226
 5584W        W21393  14.493   4.929   1.485  0.1027 -0.1045  0.1755
 5585W        W21394   1.505  13.438  11.120  0.0297  0.0529 -0.1058
 5586W        W21395   4.879   2.249   4.351  0.0896  0.0279 -0.0659
 5587W        W21396   1.879   3.328   2.212 -0.1938  0.1145  0.2001
 5588W        W21397  10.621   2.360   2.961  0.1110  0.2940  0.0424
 5589W        W21398   2.653  15.427  12.381  0.1657 -0.0186 -0.1912
 5590W        W21399  14.169   3.422  12.957 -0.1061 -0.0919  0.1249
 5591W        W21400  14.945   6.465   4.435  0.0897 -0.2200  0.1082
 5592W        W21401  17.982   5.600   3.238  0.2681  0.1030 -0.0031
 5593W        W21402  15.204   1.709   3.592  0.1070 -0.2489 -0.1777
 5594W        W21403   4.994   2.839  12.989  0.0837  0.2689 -0.2449
 5595W        W21404   3.358   0.741  14.272  0.1573  0.3520 -0.1037
 5596W        W21405  17.335  17.753   2.441  0.2407  0.0523  0.0551
 5597W        W21406  18.924   5.992   3.369  0.1896  0.0144 -0.3287
 5598W        W21407  14.455  12.852   4.953 -0.1256  0.1209 -0.2026
 5599W        W21408   7.938  11.072   5.119  0.2017  0.0280 -0.1601
 5600W        W21409  16.305  10.445  12.670 -0.1578  0.1558 -0.2242
 5601W        W21410  13.600  15.852   4.053  0.2863  0.1297  0.0587
 5602W        W21411   5.926   5.545   3.067 -0.0322  0.1636  0.1372
 5603W        W21412   3.684   1.478  15.242  0.0593 -0.0492 -0.2013
 5604W        W21413  18.686   8.950   3.288  0.0335  0.2415  0.2885
 5605W        W21414   0.180   1.896   0.736  0.2017 -0.0629 -0.1767
 5606W        W21415   6.250  14.188  11.393 -0.2334  0.0062  0.0985
 5607W        W21416   7.625  18.759  12.648  0.1042  0.1386 -0.0868
 5608W        W21417  11.305   0.894   3.680  0.1448  0.1982  0.0504
 5609W        W21418   5.005  15.136  14.626 -0.0384  0.0343  0.1313
 5610W        W21419  14.618  11.907   2.164  0.0362  0.0119 -0.0318
 5611W        W21420  17.491   7.920   1.393 -0.0054 -0.1497  0.0284
 5612W        W21421  18.389  16.082  14.503 -0.2666 -0.0825 -0.0873
 5613W        W21422   2.453  15.117  13.611  0.0105  0.1983 -0.1077
 5614W        W21423   5.860  11.751   1.635  0.5994  0.0594 -0.2148
 5615W        W21424   4.262   0.158  12.829 -0.0123  0.0010 -0.0131
 5616W        W21425   1.347   9.004   0.214  0.0595 -0.1740 -0.2942
 5617W        W21426  16.720  16.254   1.506  0.1060  0.1730  0.0271
 5618W        W21427   2.755   9.486   2.807  0.0546 -0.0958 -0.0254
 5619W        W21428   8.646   9.305  12.550 -0.0065 -0.4232 -0.0587
 5620W        W21429   6.291   1.604   3.986  0.0707  0.2084 -0.1678
 5621W        W21430  17.725  13.717   2.672  0.3165 -0.3589 -0.0859
 5622W        W21431   8.067  16.472  11.339  0.2710 -0.0555  0.1697
 5623W        W21432  16.930  12.010   3.390  0.4781 -0.0263  0.0622
 5624W        W21433  18.889   3.667   2.683  0.2387 -0.1225  0.1774
 5625W        W21434  11.265   6.844  11.411  0.0514  0.1095 -0.0464
 5626W        W21435  15.867   2.415  11.769 -0.1282 -0.0871  0.2188
 5627W        W21436   3.916   9.683   4.947  0.0143 -0.2160  0.2679
 5628W        W21437  18.703  15.420  15.129  0.0195 -0.2112  0.1724
 5629W        W21438   6.742   9.147   1.647  0.0599 -0.3787 -0.1250
 5630W        W21439  15.955  11.303  11.010  0.3238 -0.3146 -0.2252
 5631W        W21440  12.523  16.629  12.270  0.3039 -0.1021  0.3814
 5632W        W21441  18.214  17.182  11.060 -0.1499  0.0937  0.1206
 5633W        W21442   4.764   6.992  12.478 -0.0907 -0.2247  0.2139
 5634W        W21443  16.883   4.498   1.998  0.1726  0.2923 -0.0691
 5635W        W21444   0.584  16.551   1.554 -0.2284 -0.1406 -0.2069
 5636W        W21445   1.580  10.936   0.221  0.4069 -0.0239 -0.3884
 5637W        W21446   6.731   4.028  10.942  0.0121  0.1103 -0.2148
 5638W        W21447  12.789  10.908  10.938 -0.0580 -0.0201  0.1210
 5639W        W21448  10.221  18.686   4.721  0.1209 -0.0522 -0.0462
 5640W        W21449   3.912   6.576  12.647  0.0462  0.2673 -0.2206
 5641W        W21450  18.755   5.304  12.416 -0.0009  0.2829  0.2952
 5642W        W21451  13.895  14.045  13.093 -0.0960  0.0388  0.1080
 5643W        W21452   5.731  17.064   5.168  0.0794  0.1830  0.2160
 5644W        W21453  11.714   1.302  13.576  0.1613  0.2201  0.3238
 5645W        W21454  17.889   9.875  13.102 -0.3809  0.3962  0.1602
 5646W        W21455   8.250   5.183  13.444 -0.0086 -0.0616 -0.1120
 5647W        W21456   4.731  13.576   0.943 -0.1196 -0.2607  0.0567
 5648W        W21457   3.828  15.389   3.566 -0.4932  0.3539  0.0832
 5649W        W21458  14.920  17.793  13.967 -0.4950  0.0618  0.2109
 5650W        W21459  12.104   1.802   0.633 -0.3342 -0.0538 -0.0702
 5651W        W21460  16.104   3.591   4.861 -0.1081 -0.2511 -0.1063
 5652W        W21461   3.567   0.238   3.694  0.1416  0.0021 -0.1840
 5653W        W21462   3.498  13.462   3.463 -0.2980 -0.1851  0.1471
 5654W        W21463   2.311   6.900   2.924  0.0650  0.0098 -0.1720
 5655W        W21464   4.617  12.051   1.440  0.1408  0.3448 -0.2938
 5656W        W21465   8.308   8.655   3.413 -0.0570  0.3178  0.0145
 5657W        W21466   3.996   5.453   0.880  0.5009  0.0878  0.0395
 5658W        W21467   5.505   9.361   3.641 -0.0330 -0.3161  0.4474
 5659W        W21468   4.240  15.589  13.418  0.0085 -0.0683  0.3603
 5660W        W21469   1.791  16.925   4.394 -0.3891 -0.0530 -0.1320
 5661W        W21470  13.321  11.115  14.759  0.1159 -0.1193  0.0928
 5662W        W21471  12.786  11.644   4.524  0.0685 -0.0245 -0.0856
 5663W        W21472   6.657   1.366  12.212 -0.0972 -0.0829 -0.1154
 5664W        W21473   3.316   3.866  13.631 -0.2088  0.1452  0.4760
 5665W        W21474  15.724  17.045  13.983 -0.0518 -0.1851  0.1111
 5666W        W21475  15.536   2.233   2.327 -0.0445 -0.3812  0.0969
 5667W        W21476   7.512  17.347   3.615 -0.0776  0.1513 -0.2125
 5668W        W21477  13.997  16.044  12.450 -0.3782  0.0227 -0.0972
 5669W        W21478   6.846   9.531   3.678 -0.2162  0.0182  0.0765
 5670W        W21479  10.510  18.616   0.556  0.0263  0.2925  0.1645
 5671W        W21480   4.741  13.299   0.442 -0.2290  0.1758  0.3217
 5672W        W21481  15.572  13.932  11.380  0.1173  0.1838  0.2401
 5673W        W21482  12.119   5.130   2.455  0.3199  0.0411 -0.1760
 5674W        W21483  15.530   3.343   4.864  0.0639  0.1992  0.1424
 5675W        W21484  15.936   1.709   3.681 -0.1407 -0.3750 -0.3412
 5676W        W21485  10.311   2.373   2.502  0.0981  0.1135  0.1270
 5677W        W21486  11.600  14.372  13.521 -0.0966  0.2723 -0.1843
 5678W        W21487   0.544   4.864   2.711 -0.1075 -0.3252 -0.0557
 5679W        W21488  11.122   0.429   0.352  0.0002 -0.1498  0.1649
 5680W        W21489   7.488  11.797   4.743 -0.1025 -0.2492  0.2021
 5681W        W21490   6.922   5.855   4.780 -0.4120  0.1582  0.5035
 5682W        W21491  13.855  13.155  13.545  0.2304 -0.2897 -0.2593
 5683W        W21492  17.576  11.767   0.046  0.4208  0.1564 -0.2959
 5684W        W21493   0.819   4.799  12.096 -0.2661  0.1145  0.0434
 5685W        W21494   1.906  16.442  11.893 -0.0147  0.0880 -0.1364
 5686W        W21495  16.441  12.015  12.659  0.1993 -0.0194 -0.0125
 5687W        W21496   9.188  13.374  10.303  0.2927 -0.1453 -0.2736
 5688W        W21497   3.119   8.821  13.362 -0.2231 -0.2824  0.0158
 5689W        W21498  13.898  16.892  14.902 -0.2262  0.4040 -0.0368
 5690W        W21499  14.898  13.387  15.169 -0.1436 -0.3132 -0.1350
 5691W        W21500  16.019   1.049   5.536 -0.0038 -0.1646 -0.3042
 5692W        W21501  13.734   2.451  11.936  0.0540 -0.0191 -0.1456
 5693W        W21502   3.406  15.471   0.993  0.4247 -0.0272 -0.1295
 5694W        W21503  13.306  11.910   4.552  0.1625 -0.0438 -0.2068
 5695W        W21504  12.930  14.786   2.955  0.1452  0.1597 -0.1660
 5696W        W21505   0.206   4.243  13.318 -0.2242  0.1296  0.0278
 5697W        W21506   5.753   4.448  10.599  0.0928  0.0091  0.2443
 5698W        W21507   5.542   3.712  14.701 -0.0131 -0.1885  0.0683
 5699W        W21508   5.663   6.119   2.097 -0.1042  0.1282  0.1117
 5700W        W21509  17.807  15.706   5.405 -0.0963  0.0138 -0.3171
 5701W        W21510  11.276   0.852  14.451  0.2452 -0.1840 -0.2193
 5702W        W21511   9.391   7.523  13.344  0.1712 -0.0732 -0.0929
 5703W        W21512   0.818   5.839  11.375 -0.0194 -0.0425 -0.2424
 5704W        W21513  12.775  11.047  11.464  0.1798 -0.0839 -0.1396
 5705W        W21514   2.341  17.457   5.358 -0.0392  0.3282  0.0037
 5706W        W21515  12.150  15.408   4.029  0.1434 -0.2771  0.1299
 5707W        W21516   5.756  16.455  14.777 -0.1671  0.0383  0.1540
 5708W        W21517  13.837  18.011   1.506 -0.1182 -0.0802 -0.0011
 5709W        W21518  17.633   1.990   4.101  0.0454 -0.0327 -0.0493
 5710W        W21519  16.792  15.845  14.070 -0.0371 -0.0166 -0.4348
 5711W        W21520  18.827   4.924  11.627  0.0729 -0.5757  0.1200
 5712W        W21521  16.576  12.566   1.884  0.2179  0.1197 -0.0338
 5713W        W21522  16.505  17.900  15.016 -0.1308 -0.0909 -0.1182
 5714W        W21523   0.245   3.280  15.033  0.1511  0.1844 -0.0387
 5715W        W21524  16.823   8.185  12.170 -0.0024  0.0825 -0.1009
 5716W        W21525  18.432   5.458  12.782 -0.0582  0.1221  0.0913
 5717W        W21526   6.503  11.031  10.570  0.4656  0.6278 -0.0067
 5718W        W21527  17.895  15.268   5.718  0.2372 -0.2066 -0.1067
 5719W        W21528  15.171   8.196   1.868 -0.1908  0.3313 -0.0198
 5720W        W21529   6.602   6.555   3.116 -0.1112  0.1593 -0.0260
 5721W        W21530   7.328   7.704   0.736 -0.0603  0.1398  0.1184
 5722W        W21531   8.192   8.297   4.740  0.0599  0.0455  0.1301
 5723W        W21532   1.392   9.266   0.663  0.2956 -0.0944  0.3522
 5724W        W21533   0.596   1.346  13.086  0.2558  0.1261  0.1623
 5725W        W21534   5.195  12.902   4.815 -0.2670 -0.1289  0.0656
 5726W        W21535  17.926  17.524   5.379  0.1828  0.0606  0.1369
 5727W        W21536   9.935  15.978  13.125  0.0050 -0.2616 -0.2166
 5728W        W21537  16.702   4.672  11.510 -0.0499 -0.1807 -0.0728
 5729W        W21538   3.090  18.261   0.829 -0.4687  0.1104 -0.0889
 5730W        W21539  12.870   0.865  15.117  0.2296  0.1559 -0.1662
 5731W        W21540  11.332   6.998  14.586  0.1704  0.2220 -0.2321
 5732W        W21541   6.179   5.346   0.325 -0.0256 -0.0439  0.0292
 5733W        W21542  14.195   9.647   9.874  0.0370 -0.0161  0.3512
 5734W        W21543  13.405   4.462  15.263  0.2749 -0.0030  0.2548
 5735W        W21544   6.787  14.661   2.457  0.0916  0.1838  0.0497
 5736W        W21545   2.825  14.044   1.905  0.0803  0.1477 -0.0600
 5737W        W21546   2.077  11.043   0.116 -0.1523  0.2600  0.2563
 5738W        W21547   1.009  17.416   0.643  0.2437 -0.1868  0.1093
 5739W        W21548  10.496   4.001  10.299 -0.2792  0.2699 -0.2975
 5740W        W21549  17.171   2.806   0.079  0.0573 -0.0460 -0.1631
 5741W        W21550  11.827   5.533   1.076 -0.1363  0.0230 -0.3444
 5742W        W21551   8.203  12.454  15.127  0.2199  0.1828  0.2875
 5743W        W21552   5.040  17.790   2.970 -0.2911 -0.1249 -0.1639
 5744W        W21553   9.348   0.454  13.995  0.1497  0.0188  0.2727
 5745W        W21554   5.525   0.859  12.776  0.2990  0.3494 -0.0061
 5746W        W21555  11.711   1.290  11.268 -0.0057  0.0428  0.2117
 5747W        W21556  12.350  11.547  12.142  0.0282  0.1618 -0.0972
 5748W        W21557  15.220  12.789   0.798 -0.1012 -0.2057 -0.1844
 5749W        W21558   8.140  16.245   4.882  0.0782 -0.2748 -0.1541
 5750W        W21559   7.182  16.818   4.545 -0.0195 -0.2401  0.0766
 5751W        W21560   9.614   5.277   4.352  0.6077  0.0461 -0.1661
 5752W        W21561  15.161   2.374  13.501  0.2284 -0.0640  0.4343
 5753W        W21562  15.473  17.353   2.304  0.1590 -0.0934 -0.2429
 5754W        W21563  17.559   2.290  13.218  0.2493  0.0524 -0.0964
 5755W        W21564   9.897   9.772  11.449  0.0676  0.2255  0.0140
 5756W        W21565  14.064  15.547   3.343  0.3747 -0.1067  0.1277
 5757W        W21566  14.608  15.456   4.036 -0.1063  0.0810 -0.3776
 5758W        W21567   9.623  18.635   4.320  0.1801  0.2913 -0.2796
 5759W        W21568  10.587   6.325  11.873 -0.0459 -0.2465  0.0379
 5760W        W21569   9.935  16.173  10.220 -0.4641 -0.1819  0.0162
 5761W        W21570   6.703   2.542  12.041 -0.0534 -0.0434  0.1830
 5762W        W21571  11.818  15.851   2.795  0.1154 -0.2139 -0.1511
 5763W        W21572   9.338  18.906  13.129  0.0336  0.0484  0.1929
 5764W        W21573   9.694   2.727  10.879 -0.3305  0.0795  0.0349
 5765W        W21574   5.807  11.882   3.797 -0.1845  0.2853  0.0617
 5766W        W21575   4.335   3.441  12.799 -0.2072 -0.0534 -0.1156
 5767W        W21576  18.883  15.722  10.987 -0.3640  0.2808  0.1060
 5768W        W21577  10.839  14.252  10.053  0.1424  0.2223  0.0265
 5769W        W21578   5.153  16.316   2.865 -0.0988  0.2847 -0.0653
 5770W        W21579   5.433  10.001  13.648 -0.0672  0.0520  0.2966
 5771W        W21580  11.756   1.458   2.506 -0.0885 -0.0195  0.0903
 5772W        W21581  12.841   4.796  10.309  0.0635  0.2661 -0.1259
 5773W        W21582   1.173  12.515   4.494  0.0097  0.0674  0.1700
 5774W        W21583   5.597  11.040  11.797  0.2207 -0.0821  0.3145
 5775W        W21584   8.373  14.423   0.072  0.0522  0.1176 -0.1886
 5776W        W21585   8.197   3.821   9.597 -0.3533 -0.1685  0.0862
 5777W        W21586  16.128   0.216   3.833 -0.2907  0.0662 -0.1771
 5778W        W21587  10.523  18.042   2.477  0.3306  0.0013  0.0002
 5779W        W21588  18.529   8.140  12.040 -0.1855 -0.1126 -0.1890
 5780W        W21589  14.942  14.085  11.827 -0.0339  0.2596  0.2417
 5781W        W21590   3.654  17.032   1.141 -0.1948  0.0049 -0.2250
 5782W        W21591   0.341   7.145   0.832  0.1672  0.0379  0.2664
 5783W        W21592  10.329   9.017   1.910 -0.0137  0.1578 -0.0140
 5784W        W21593   9.868  18.482   2.749 -0.1291  0.0090 -0.1797
 5785W        W21594   5.592   5.083  14.093  0.0123  0.2466  0.2942
 5786W        W21595   6.060   5.512   1.233  0.2379  0.1250  0.0685
 5787W        W21596   8.646   3.451   1.090  0.3412  0.2293 -0.0577
 5788W        W21597  14.939  10.073   0.222  0.1762 -0.2718 -0.0672
 5789W        W21598   0.178  15.426   4.695  0.1860 -0.0044  0.0367
 5790W        W21599  12.162   7.512  14.239  0.0543  0.0495  0.1544
 5791W        W21600  17.749  18.402   0.955 -0.0407 -0.0106  0.0338
 5792W        W21601  18.416   4.473   0.874 -0.1994 -0.2756  0.1217
 5793W        W21602   1.376  15.300   1.241  0.3646  0.2574 -0.5355
 5794W        W21603   1.734   5.083   5.154  0.2040  0.1251 -0.3014
 5795W        W21604  18.949  11.588  12.790 -0.1261  0.0604  0.1693
 5796W        W21605  18.257  16.236   3.434 -0.0958  0.0940  0.1817
 5797W        W21606  18.252  18.815   5.381  0.1167 -0.1941  0.1541
 5798W        W21607   0.397   8.225  10.810 -0.1953 -0.1732 -0.0410
 5799W        W21608  13.820   4.280  11.577  0.0745  0.0519 -0.1797
 5800W        W21609  12.530  17.465   5.176 -0.0919  0.1094  0.1711
 5801W        W21610  12.203  11.240  10.400  0.0471  0.0087  0.2523
 5802W        W21611   7.982  13.533  11.865 -0.0020  0.1812 -0.3887
 5803W        W21612  13.760   8.707  10.957 -0.1199  0.1690  0.3233
 5804W        W21613   8.994   1.936   1.864  0.0762 -0.3806 -0.1644
 5805W        W21614  11.411  18.348   0.462 -0.1222 -0.2124 -0.3613
 5806W        W21615  15.992   5.352   4.963 -0.0546  0.3688  0.1411
 5807W        W21616   8.845  18.113  14.092 -0.0566  0.2539 -0.1414
 5808W        W21617   6.275   3.260   4.566  0.3781 -0.0299  0.1446
 5809W        W21618   0.942  12.574  13.961  0.2113  0.2106 -0.0141
 5810W        W21619  12.837  18.432  12.502 -0.2883 -0.0992 -0.2455
 5811W        W21620   2.145   6.274  13.084 -0.1280  0.0609 -0.0709
 5812W        W21621   1.473   3.073  15.070  0.0242  0.0376 -0.0432
 5813W        W21622  18.106   1.163   3.994 -0.1720  0.3255 -0.2181
 5814W        W21623   8.186   1.222   4.465  0.0204  0.3446 -0.3120
 5815W        W21624   2.487   7.564   1.747  0.1777 -0.0302 -0.0354
 5816W        W21625  12.379  13.053  12.242 -0.0489 -0.2620  0.0020
 5817W        W21626   3.240  15.179   0.626  0.3865  0.0419 -0.0409
 5818W        W21627   0.535   0.240  13.927 -0.0938 -0.0084 -0.0054
 5819W        W21628   5.859   2.038   4.798 -0.0790  0.1895 -0.5590
 5820W        W21629  15.915  16.960   4.856  0.3609  0.2722 -0.0723
 5821W        W21630  12.569  16.120   5.072 -0.0141  0.2971 -0.1170
 5822W        W21631   8.775   4.428  10.452  0.0494  0.2509 -0.1143
 5823W        W21632  13.156   0.441   2.565  0.2470 -0.1092 -0.1659
 5824W        W21633   0.052  13.632  14.919 -0.3153  0.1729 -0.2329
 5825W        W21634  13.586   3.843   1.293  0.1856  0.0236  0.1570
 5826W        W21635   7.707   7.707   9.613  0.0545 -0.1784  0.2582
 5827W        W21636  12.637   8.237   2.514 -0.3644 -0.2799 -0.1891
 5828W        W21637  13.755   4.968  15.099 -0.0421  0.4193 -0.0291
 5829W        W21638  11.211   1.197  13.611  0.2262  0.0490 -0.2105
 5830W        W21639   8.094   2.023  14.714 -0.1695  0.0734 -0.0653
 5831W        W21640  11.154   3.439  12.130  0.0929 -0.4282 -0.0212
 5832W        W21641   6.569   4.658   2.527 -0.3017  0.0650 -0.2812
 5833W        W21642   6.377   7.881  13.902  0.0830 -0.0818 -0.3204
 5834W        W21643  15.279  10.048  11.506  0.1715 -0.0552  0.0905
 5835W        W21644   8.446   3.254   0.193  0.0003  0.1062  0.1773
 5836W        W21645   1.400   0.680  13.617 -0.0565 -0.0269  0.6071
 5837W        W21646   0.943  13.614   4.333 -0.0652 -0.2451 -0.3277
 5838W        W21647   9.360  16.187   4.588 -0.1769 -0.2218  0.0023
 5839W        W21648  12.100   1.100   4.199  0.2655  0.2283 -0.4725
 5840W        W21649   9.196  10.512  12.746  0.1113  0.1330 -0.0256
 5841W        W21650   6.771   9.833   2.900 -0.0945  0.1859  0.1536
 5842W        W21651  13.589  17.199   1.101  0.2814  0.1276  0.1148
 5843W        W21652   7.979  18.393   2.425 -0.0245 -0.4961  0.0321
 5844W        W21653  11.548  14.727   2.742  0.0001  0.2523  0.1927
 5845W        W21654   5.497   0.346   1.729 -0.2089 -0.2054  0.1113
 5846W        W21655   2.991  17.298   1.216  0.0322  0.0799 -0.2749
 5847W        W21656   9.925  14.577   4.078 -0.1839  0.3264 -0.2363
 5848W        W21657   2.267  12.451  12.226 -0.1339 -0.1212 -0.0007
 5849W        W21658   6.040  10.810   0.779  0.2888 -0.1734  0.0424
 5850W        W21659   8.555  15.705  10.892  0.0464  0.1123 -0.1292
 5851W        W21660   7.983   5.758   2.864  0.3459 -0.0997 -0.0988
 5852W        W21661   5.772  15.476  14.889  0.2191  0.2110 -0.4596
 5853W        W21662  11.763   9.646   3.542  0.1310 -0.3693 -0.1378
 5854W        W21663   3.849  16.151   2.607 -0.0572  0.1950  0.1309
 5855W        W21664   1.369  15.263  14.168  0.3731 -0.2946  0.1479
 5856W        W21665  14.881  18.563  12.682 -0.2135 -0.1875  0.0294
 5857W        W21666   6.386   8.223   1.522 -0.0731  0.0563 -0.0905
 5858W        W21667   3.429   5.422  14.782  0.0434  0.2658 -0.0637
 5859W        W21668   4.738  17.356  12.508  0.0244 -0.2284  0.1856
 5860W        W21669  13.245   1.671  14.033  0.2275  0.0328  0.3354
 5861W        W21670  13.389   4.502  11.237  0.4049  0.1263  0.2130
 5862W        W21671   3.289  15.191   2.304 -0.0517  0.0833  0.1306
 5863W        W21672   5.990  17.596   1.610  0.1286  0.0849 -0.1210
 5864W        W21673   3.333  10.588   3.183 -0.1135  0.0510 -0.0719
 5865W        W21674   3.591   0.876  12.579 -0.1939 -0.0203 -0.3234
 5866W        W21675   5.071  13.435  12.627 -0.1687  0.0779  0.0584
 5867W        W21676   8.689  10.541  11.671  0.0673 -0.0661  0.0678
 5868W        W21677  16.642  18.168   2.804 -0.0086  0.1953  0.0702
 5869W        W21678   7.532   3.354  13.481  0.3338 -0.2045  0.2412
 5870W        W21679   5.649  16.190  12.536  0.0119 -0.0241  0.0616
 5871W        W21680  16.113  11.113  11.439  0.1405 -0.1315 -0.1871
 5872W        W21681  15.456  13.539   3.072  0.1350  0.0548  0.1141
 5873W        W21682  17.487   8.669  12.594  0.0395 -0.0522  0.0963
 5874W        W21683   5.186   0.959   9.244  0.0088 -0.0816  0.1986
 5875W        W21684   5.190  12.734  13.861  0.1230  0.1854 -0.0252
 5876W        W21685   8.652   2.722   4.334 -0.1732  0.2088 -0.3136
 5877W        W21686   6.103  13.309   9.757  0.1842 -0.0063  0.3719
 5878W        W21687  16.919   5.938  12.419 -0.4347 -0.1128  0.0851
 5879W        W21688  13.271  13.326   2.414 -0.1571  0.0115  0.2153
 5880W        W21689  10.993  15.423  10.722 -0.0885  0.2243  0.2550
 5881W        W21690  16.597   0.831  14.082  0.1679 -0.0345 -0.1516
 5882W        W21691   6.184   3.456  12.066  0.1594  0.0408 -0.2308
 5883W        W21692   5.326   5.678  12.226  0.2706 -0.2109  0.5760
 5884W        W21693   1.745   4.082  14.404 -0.1565  0.3013 -0.1619
 5885W        W21694  14.989   8.382   4.357 -0.2111  0.2534 -0.1677
 5886W        W21695  14.418   6.555  12.261 -0.2264 -0.0272  0.0030
 5887W        W21696  17.413   5.260  14.899 -0.1788  0.0361  0.2052
 5888W        W21697  13.568  10.156  15.019 -0.3408 -0.1303  0.0311
 5889W        W21698   0.758  13.159   1.761  0.0828 -0.0135 -0.1547
 5890W        W21699   5.553  15.225  13.244 -0.2303 -0.4073  0.1109
 5891W        W21700  10.699   1.898   5.252  0.0064 -0.1032 -0.0310
 5892W        W21701  10.895   8.623  15.141  0.0749  0.2087  0.0725
 5893W        W21702  15.018   0.878  13.681  0.0436 -0.1372  0.1819
 5894W        W21703   6.833   5.032  14.265 -0.0050 -0.0167 -0.2777
 5895W        W21704  12.162   2.363  11.591  0.4871 -0.2998  0.0787
 5896W        W21705   7.091  18.657   3.675 -0.1976  0.0410  0.4090
 5897W        W21706  18.300   9.971  12.799 -0.0284 -0.0009  0.0789
 5898W        W21707   9.406  17.441   1.294  0.1327  0.0096 -0.1734
 5899W        W21708  15.266   6.462  14.863 -0.2159  0.2858 -0.0691
 5900W        W21709  16.043  17.749   0.809  0.0411 -0.1498 -0.0120
 5901W        W21710  18.604  10.113   1.071  0.1875  0.0272 -0.2421
 5902W        W21711   3.721   2.689  12.197 -0.0873 -0.0743  0.2553
 5903W        W21712   5.853  10.592  12.559  0.2256  0.1288 -0.2991
 5904W        W21713  17.704   9.386   0.621 -0.0193  0.0747 -0.2285
 5905W        W21714   0.196   2.554   4.142  0.0436  0.0255 -0.2299
 5906W        W21715  17.362   6.709   3.353  0.1647 -0.2139  0.0046
 5907W        W21716   2.237  13.578  14.622 -0.2455  0.0330  0.0999
 5908W        W21717   9.331  17.772  13.808 -0.0706 -0.0968  0.1913
 5909W        W21718  18.064  14.961   5.013  0.0813  0.0852  0.3388
 5910W        W21719   8.637   9.118   4.163 -0.1108 -0.0112 -0.0095
 5911W        W21720  17.462  11.463   1.681 -0.2331 -0.0437  0.2805
 5912W        W21721   0.313   4.466   4.754  0.1789  0.0563 -0.1318
 5913W        W21722   9.840   7.980  12.304  0.1163  0.0513  0.1186
 5914W        W21723  10.585  13.976  12.730  0.0877  0.3744 -0.1844
 5915W        W21724  12.070   1.673  11.096 -0.0175  0.0760 -0.0853
 5916W        W21725   2.987   6.538  11.222 -0.1258 -0.1259 -0.1031
 5917W        W21726  17.549  12.672   3.482 -0.1456 -0.0749 -0.2310
 5918W        W21727  18.651   4.140  12.702 -0.1705 -0.1080 -0.1597
 5919W        W21728   3.393  10.233  13.142 -0.0116 -0.1982  0.3030
 5920W        W21729  17.009   4.058   2.707  0.2995 -0.1340 -0.0797
 5921W        W21730  17.956  12.931   3.795 -0.1134  0.3180  0.1497
 5922W        W21731   3.201   6.914   1.893  0.0326  0.0316 -0.1010
 5923W        W21732   8.097  10.705   5.442  0.0922 -0.1076  0.1380
 5924W        W21733  14.221  11.825  14.497 -0.0201 -0.0577  0.0605
 5925W        W21734  15.162   8.457  10.727  0.0816 -0.0611 -0.1646
 5926W        W21735   8.400   5.596   0.029 -0.0373 -0.0126  0.0376
 5927W        W21736  14.815  10.020   1.536  0.0810 -0.0347 -0.0439
 5928W        W21737   3.214   0.015   4.371 -0.2229  0.3444  0.1020
 5929W        W21738  10.703  10.053   2.298 -0.2792  0.2293  0.1211
 5930W        W21739  16.555  13.478  14.002  0.4105  0.1425  0.4046
 5931W        W21740  15.285   6.143   5.913 -0.4191  0.0386 -0.2411
 5932W        W21741  15.130   6.579  13.603  0.3026 -0.2577 -0.1062
 5933W        W21742  17.295  17.441   0.617  0.0470 -0.2259  0.0267
 5934W        W21743   6.913   9.245   2.188 -0.1016  0.0048 -0.2407
 5935W        W21744   1.351   5.213  13.109  0.4252 -0.2171  0.0437
 5936W        W21745   1.437  17.291   4.567  0.0541  0.1942  0.2712
 5937W        W21746   0.024   2.879   0.701  0.3099  0.2666 -0.2607
 5938W        W21747   3.954   1.962  11.401  0.4583 -0.1380  0.0591
 5939W        W21748  18.961  11.499  11.832 -0.0105  0.0659 -0.2941
 5940W        W21749   1.247   5.670  12.201 -0.0632  0.1162 -0.0139
 5941W        W21750   0.643  16.493   2.387 -0.0437  0.1181 -0.0406
 5942W        W21751  14.819   9.053   3.554  0.1777  0.1901 -0.1007
 5943W        W21752  14.428   7.803  11.611 -0.1650  0.2925 -0.0872
 5944W        W21753  16.466   2.446   2.939  0.3099  0.1671 -0.2425
 5945W        W21754  11.099  11.290  13.864  0.2789  0.2465 -0.1384
 5946W        W21755   4.157   7.014  12.698  0.3523 -0.1665  0.1106
 5947W        W21756  13.500   3.992   2.642 -0.0715 -0.1777  0.1180
 5948W        W21757   0.653   1.187   1.219  0.3064  0.0433  0.4031
 5949W        W21758   5.666   0.597   2.680  0.0662  0.3783 -0.1315
 5950W        W21759   0.194  17.630   1.384 -0.3166  0.2456  0.1383
 5951W        W21760   2.837  17.830  14.832  0.1815 -0.1628  0.2275
 5952W        W21761  16.521   6.652  10.694  0.1608  0.1581  0.0151
 5953W        W21762   3.853   6.650   3.541 -0.0669  0.0142 -0.1875
 5954W        W21763   6.577  17.385   2.047  0.0987 -0.0505 -0.0952
 5955W        W21764  18.076  11.891   1.852 -0.3912 -0.0277  0.1519
 5956W        W21765   9.308   9.132  10.952  0.0982 -0.0920 -0.3088
 5957W        W21766   5.512  13.029   0.472 -0.2230 -0.1590 -0.0953
 5958W        W21767   9.878  11.000   4.838 -0.0269 -0.0646 -0.4379
 5959W        W21768  15.598   5.241  14.073 -0.0300  0.0686  0.0342
 5960W        W21769  17.301   1.373  11.867 -0.0495  0.3333  0.0471
 5961W        W21770  12.872   6.989  10.718 -0.2325 -0.1465  0.0281
 5962W        W21771  14.241   8.960   1.631 -0.2252  0.1629 -0.3134
 5963W        W21772  16.029   5.628   0.762 -0.0633 -0.2953 -0.2208
 5964W        W21773   7.098  13.296  14.859 -0.0008 -0.1949  0.1985
 5965W        W21774   8.967   8.062   3.407 -0.0475 -0.4070  0.2439
 5966W        W21775  10.086  11.091   1.737  0.0527 -0.0117 -0.1774
 5967W        W21776   1.066  16.074  13.126 -0.4149 -0.2156  0.0076
 5968W        W21777   9.280   9.123   4.828 -0.1751 -0.1503 -0.0113
 5969W        W21778  16.663   0.207  13.090 -0.0592  0.1235 -0.2884
 5970W        W21779   8.491   0.572  11.499  0.2348  0.1963  0.1499
 5971W        W21780   6.180   1.544  12.367  0.3741 -0.1822 -0.2540
 5972W        W21781  10.365  11.173  15.113  0.0481 -0.1961  0.0763
 5973W        W21782  16.178   7.679   0.765  0.0442  0.0805  0.4731
 5974W        W21783  14.952   6.853   0.726  0.1175  0.0707  0.0865
 5975W        W21784   4.111   9.195  10.411  0.4166 -0.1610  0.0620
 5976W        W21785   8.426  12.768   0.722 -0.1061 -0.0621 -0.1943
 5977W        W21786  15.698   2.083   4.717  0.1999 -0.2173 -0.1311
 5978W        W21787  13.196   1.802   1.233  0.0511 -0.6776 -0.1189
 5979W        W21788  10.044  14.186   3.775 -0.0262  0.0698 -0.0569
 5980W        W21789  10.497   4.617   3.284 -0.1843  0.2422  0.2149
 5981W        W21790   6.297  18.139  15.143 -0.1543 -0.1895  0.2331
 5982W        W21791   9.596   0.326  12.025 -0.2170  0.0898 -0.0600
 5983W        W21792  10.874  17.610   2.528  0.1549  0.0785  0.0334
 5984W        W21793  15.055   8.332  13.270  0.1103  0.1300  0.1207
 5985W        W21794   1.564   7.944   2.389 -0.3371 -0.1417 -0.1782
 5986W        W21795   9.685   0.742   2.854 -0.0469 -0.0716 -0.3139
 5987W        W21796  16.448  10.269  13.800 -0.0001  0.0483 -0.0394
 5988W        W21797  13.560   1.334  10.835  0.0067 -0.0241  0.2817
 5989W        W21798   7.374  15.900   2.716  0.3455 -0.1839  0.0777
 5990W        W21799  10.813  16.184   1.341 -0.1819  0.1444 -0.2462
 5991W        W21800  11.602  10.224  14.529  0.0739 -0.3052 -0.0551
 5992W        W21801   1.889   9.385   0.868 -0.0219 -0.0469 -0.2504
 5993W        W21802   6.816   1.698   2.035  0.0544  0.1777  0.0150
 5994W        W21803   6.516   7.247   0.305  0.2732  0.0485 -0.2271
 5995W        W21804  18.679   7.480   5.059  0.2329 -0.0115  0.0381
 5996W        W21805   3.121  17.316  11.221 -0.0624  0.1904  0.0621
 5997W        W21806  16.235   1.054  14.406  0.2628 -0.0512  0.2038
 5998W        W21807   2.928  13.535   9.758 -0.1184 -0.0653 -0.1635
 5999W        W21808   2.979  10.726  14.400 -0.0155 -0.0210 -0.0496
 6000W        W21809   8.801   4.780   2.223 -0.0413 -0.0100  0.2061
 6001W        W21810  13.294   3.330  13.656  0.0070 -0.0096 -0.2072
 6002W        W21811   5.415   6.478  10.414  0.0376  0.0265 -0.1923
 6003W        W21812  10.107  10.877   0.668 -0.3220 -0.0746 -0.0623
 6004W        W21813  17.727  15.164  11.151  0.1497  0.2098 -0.1320
 6005W        W21814   1.441   2.847  10.683  0.1962  0.0503 -0.0402
 6006W        W21815   2.389  14.412   0.074 -0.1912  0.1443  0.0224
 6007W        W21816   8.572   8.608   4.464 -0.4613  0.4315 -0.3312
 6008W        W21817  18.467  14.373   1.122 -0.3849 -0.0893 -0.0586
 6009W        W21818  17.667  18.809   3.383 -0.2168 -0.0354  0.1668
 6010W        W21819   2.529  14.899  10.915  0.0654  0.1523  0.0320
 6011W        W21820  16.121   0.631   1.152  0.1861  0.1180 -0.2912
 6012W        W21821   6.351  14.485   2.165 -0.2074 -0.3656  0.1274
 6013W        W21822   5.969   4.870  10.554  0.1264 -0.0212  0.1231
 6014W        W21823   6.669  13.940  13.817 -0.0266 -0.2454 -0.1220
 6015W        W21824   5.351   9.959   1.775 -0.2194 -0.2746  0.2658
 6016W        W21825  13.844  10.517  11.250 -0.1654 -0.1340  0.1352
 6017W        W21826  18.708  11.846   2.115  0.1431 -0.3565 -0.1786
 6018W        W21827  11.875   4.012  12.385 -0.1097  0.1993  0.2971
 6019W        W21828   1.100  17.663  11.138  0.0148 -0.2044  0.0582
 6020W        W21829  14.486  17.848   2.938 -0.0353  0.0812  0.0161
 6021W        W21830   1.379  14.084  15.085 -0.0897  0.1799 -0.1266
 6022W        W21831   5.866   1.190  12.579  0.1097  0.2255 -0.0609
 6023W        W21832  15.258   7.399   3.808  0.0979  0.0321  0.1793
 6024W        W21833  18.957  15.230   5.074  0.1789 -0.2283  0.1727
 6025W        W21834  16.919   1.614   1.468  0.2563 -0.1007 -0.1147
 6026W        W21835   3.500   2.879  12.628  0.1117  0.1257 -0.3058
 6027W        W21836  17.469  17.282   5.560  0.1012 -0.1475 -0.4697
 6028W        W21837   1.824   0.058   3.021  0.0705 -0.0248 -0.1878
 6029W        W21838   5.394   0.269  10.420 -0.0057 -0.2239 -0.1855
 6030W        W21839  16.310  12.375   4.670 -0.0441  0.2129 -0.2212
 6031W        W21840  15.917   4.157   4.524 -0.0487  0.0417  0.1027
 6032W        W21841   1.709  11.294   4.584  0.4683 -0.0397  0.1044
 6033W        W21842   1.327   2.396   1.451  0.0559 -0.4251 -0.2079
 6034W        W21843   5.751  12.575   2.225 -0.0772  0.2102  0.0278
 6035W        W21844  14.392   6.075   5.101  0.0456  0.0979  0.2015
 6036W        W21845  14.018   7.369   4.794  0.0557  0.0013  0.0189
 6037W        W21846   4.823  13.770  13.644  0.2408 -0.0252  0.2913
 6038W        W21847   1.808  16.817   2.772 -0.3625 -0.0213 -0.3520
 6039W        W21848   3.476   9.927   0.259 -0.0173 -0.2769  0.2380
 6040W        W21849  14.707  17.798   2.038 -0.0202 -0.1211  0.4248
 6041W        W21850  16.424  17.311  13.979  0.0485 -0.0625  0.0198
 6042W        W21851   6.390  16.423   5.124 -0.0474  0.0989 -0.1451
 6043W        W21852   8.640   3.103  12.493 -0.1859  0.1098 -0.1750
 6044W        W21853  14.311  10.061   2.365  0.1686 -0.1948 -0.1605
 6045W        W21854  13.740   7.541  10.584 -0.2839  0.0631 -0.0583
 6046W        W21855  17.506   8.730  11.090  0.1606 -0.1912 -0.1440
 6047W        W21856   9.064   6.558   5.345  0.0145  0.0807  0.3299
 6048W        W21857   4.469  17.976   0.912  0.0610 -0.2394  0.1832
 6049W        W21858   3.557   2.571   0.181  0.0296 -0.1632 -0.0207
 6050W        W21859  15.651  15.037   2.908  0.1657 -0.1485 -0.1633
 6051W        W21860   3.036   0.416   0.710  0.1752 -0.2189  0.1847
 6052W        W21861  12.674  10.666   4.126  0.3296 -0.3494  0.1137
 6053W        W21862  11.223   2.518  14.183 -0.5534  0.2984 -0.0700
 6054W        W21863  10.475  15.793   2.881  0.0829 -0.0961  0.1317
 6055W        W21864   7.174  16.317   2.383  0.2668 -0.1402 -0.0430
 6056W        W21865   8.565  12.111  15.236 -0.0136  0.1784 -0.3464
 6057W        W21866   6.026   4.236   1.989 -0.1352 -0.6093 -0.2954
 6058W        W21867   5.090  13.316  11.655 -0.3626  0.0701  0.3655
 6059W        W21868   1.313   9.101   1.176  0.1960  0.1479  0.0544
 6060W        W21869   2.166   9.829   5.581  0.2100 -0.0446 -0.3734
 6061W        W21870  16.090   2.556   1.095  0.1159 -0.3080  0.0639
 6062W        W21871   4.821   4.408   4.055  0.0470  0.0335  0.2155
 6063W        W21872   8.929   9.733  12.976 -0.2889  0.1041 -0.0232
 6064W        W21873  19.019  12.148   0.477 -0.0642 -0.1619 -0.1661
 6065W        W21874  10.886   8.527   2.588  0.0744 -0.1366  0.1715
 6066W        W21875   3.875  16.086  12.003  0.1780  0.2100  0.1014
 6067W        W21876  15.207  16.701  12.694 -0.1064 -0.3536 -0.0169
 6068W        W21877   1.653   1.124   2.174 -0.1063 -0.0730 -0.1391
 6069W        W21878   5.796   1.593  11.126 -0.0875 -0.0657 -0.0200
 6070W        W21879  17.186  18.124  11.444 -0.0102 -0.1868 -0.0475
 6071W        W21880   0.845   5.423   5.549  0.2122 -0.1571  0.1112
 6072W        W21881   0.732   7.467   4.826  0.2204 -0.1908  0.2014
 6073W        W21882  12.694   6.942   3.850 -0.2989 -0.3275 -0.3802
 6074W        W21883   2.950   3.031   1.571  0.0941  0.0307  0.2351
 6075W        W21884  10.380   6.122  14.567 -0.0137 -0.0274  0.1021
 6076W        W21885  14.147  14.359  12.669 -0.0813 -0.1307 -0.0670
 6077W        W21886  17.448   8.507   1.286  0.1668  0.2065 -0.0830
 6078W        W21887   5.803  16.958  10.544  0.1670 -0.0015 -0.2467
 6079W        W21888   2.375   5.575   2.230 -0.2540 -0.1086  0.0860
 6080W        W21889  12.378  14.722  13.275  0.2626 -0.0826  0.4930
 6081W        W21890   3.371  15.910  12.664  0.2538 -0.2084  0.0443
 6082W        W21891   7.225  13.257  15.286 -0.2801  0.1419 -0.1015
 6083W        W21892  10.570   8.676   4.258 -0.0177 -0.1306 -0.2187
 6084W        W21893  11.376  12.667  15.237 -0.0711  0.0508 -0.2710
 6085W        W21894   7.988  18.951  12.386  0.2465 -0.2007 -0.0594
 6086W        W21895  12.696  16.676  11.143 -0.1110 -0.2106 -0.3384
 6087W        W21896   8.733   3.343  14.307  0.1204  0.1267  0.1251
 6088W        W21897   9.081  14.868   3.736 -0.1222  0.2550 -0.1958
 6089W        W21898   8.800   9.927   3.014  0.3463 -0.1064 -0.0866
 6090W        W21899  11.998   1.254  12.536 -0.0544 -0.0934  0.2947
 6091W        W21900   8.356  14.849  12.443 -0.0223 -0.1059  0.2246
 6092W        W21901  15.145   5.945   4.574 -0.1475 -0.2943 -0.0571
 6093W        W21902   7.990   8.837   2.599  0.0453  0.0577 -0.1616
 6094W        W21903   5.602  15.492   3.403 -0.0669 -0.1716 -0.2506
 6095W        W21904  17.723   3.632   3.276  0.3030  0.0866 -0.5829
 6096W        W21905  10.161   8.057  14.765 -0.0593 -0.1011 -0.3746
 6097W        W21906   4.282  12.844   2.421 -0.2598  0.1709 -0.1714
 6098W        W21907  18.467  14.525   5.158 -0.0566  0.1376  0.1647
 6099W        W21908   6.004  13.248  12.813 -0.0813  0.1058 -0.0279
 6100W        W21909   1.139  11.264   1.963 -0.1146  0.0278  0.1429
 6101W        W21910  17.051  14.154  13.155  0.3385 -0.0624 -0.0522
 6102W        W21911   2.805  12.704   1.574  0.0855 -0.0082 -0.1587
 6103W        W21912  10.092   3.230  15.038  0.2247 -0.4503 -0.0634
 6104W        W21913  11.584   2.494   3.079  0.3798 -0.4656 -0.0117
 6105W        W21914  10.016   6.043   3.324  0.1309  0.0222  0.2563
 6106W        W21915   5.895   9.667   4.216 -0.2467  0.3924 -0.3498
 6107W        W21916   0.258  17.627  11.414 -0.0509 -0.2100 -0.1915
 6108W        W21917   8.638   8.116   4.555 -0.1926  0.4681 -0.1269
 6109W        W21918  12.905  17.275   3.445  0.1849 -0.0109 -0.0190
 6110W        W21919  14.972   1.873   2.409 -0.2175  0.3192  0.4208
 6111W        W21920  14.006  15.038   1.231  0.0842  0.0753  0.1256
 6112W        W21921   4.001  17.703  10.892 -0.0201 -0.1467  0.2790
 6113W        W21922  14.752  11.950  14.640 -0.1961 -0.0492 -0.0336
 6114W        W21923  15.806  17.926   4.966  0.0188 -0.4288  0.2724
 6115W        W21924   6.224  16.937   4.514  0.0510 -0.3543  0.2300
 6116W        W21925   7.592  13.902  14.685  0.0813 -0.2052  0.3238
 6117W        W21926   2.294   5.275   9.300  0.2710 -0.0058 -0.2478
 6118W        W21927   5.597  12.857   3.341 -0.3658 -0.1376 -0.0105
 6119W        W21928   4.196  17.209   4.448 -0.0907 -0.1296  0.0500
 6120W        W21929   7.128   9.581   8.949 -0.1073  0.3535  0.2489
 6121W        W21930   8.381   4.110  10.588 -0.0703  0.2387  0.1648
 6122W        W21931   5.068   3.743  14.589  0.0686 -0.2973  0.2708
 6123W        W21932  10.464   5.260   1.548 -0.0455 -0.2552 -0.0164
 6124W        W21933   7.757  17.844   3.486  0.2226  0.0398 -0.0502
 6125W        W21934   6.111   2.451  12.018 -0.2273 -0.0258  0.2654
 6126W        W21935  17.171   2.376  11.056 -0.2750  0.0961  0.0664
 6127W        W21936   6.934  14.710  15.072 -0.4108 -0.0648  0.1044
 6128W        W21937   0.387   2.335   2.881  0.3305 -0.1573  0.1282
 6129W        W21938  18.054   2.305   3.876  0.1276  0.0531  0.0635
 6130W        W21939   2.707   8.626   3.039 -0.0749  0.1314 -0.0260
 6131W        W21940   8.928  15.204   3.266  0.1613 -0.1781 -0.0856
 6132W        W21941   6.116  11.671   4.158 -0.0311  0.2408  0.1618
 6133W        W21942   4.169  13.811   4.307 -0.0662 -0.2770  0.0226
 6134W        W21943  18.109   8.144  12.833  0.0861 -0.2084  0.1297
 6135W        W21944   8.256   5.524  13.830  0.1529 -0.0430  0.3343
 6136W        W21945   4.352   9.757  10.513  0.0133 -0.2820  0.1704
 6137W        W21946  11.962   8.398   1.326  0.1631  0.0054 -0.0398
 6138W        W21947  17.841  11.831   2.908 -0.0348  0.1243 -0.1961
 6139W        W21948  14.296  10.331   4.005 -0.4027  0.3374 -0.1469
 6140W        W21949  10.591  11.083  11.832  0.0686 -0.5005 -0.3598
 6141W        W21950  13.418  14.405   9.756 -0.1535  0.0431  0.2143
 6142W        W21951   4.335  13.056  11.081  0.0020 -0.0450  0.4019
 6143W        W21952   7.358   2.959   2.566 -0.0260 -0.1686 -0.0088
 6144W        W21953  10.792  12.146   1.092  0.2699  0.1629  0.3570
 6145W        W21954  11.091   5.597  13.885 -0.1529 -0.1645 -0.0994
 6146W        W21955   0.461  17.036   3.164 -0.0547  0.0214 -0.1893
 6147W        W21956  15.084  13.766   0.397  0.0726 -0.1503 -0.0285
 6148W        W21957  11.088  14.249   1.181 -0.1181 -0.1917 -0.0326
 6149W        W21958  12.169  15.027  12.813  0.0322 -0.2008 -0.0312
 6150W        W21959  14.469   0.582   3.793 -0.0815 -0.0205  0.0195
 6151W        W21960   1.028  14.562  14.179 -0.1827  0.0201 -0.1634
 6152W        W21961  13.647  18.200   0.073 -0.1112 -0.2157 -0.1461
 6153W        W21962  13.850  18.962  14.651 -0.0493  0.0674  0.0273
 6154W        W21963   1.335  17.359  14.283  0.0288 -0.1735  0.1987
 6155W        W21964   5.047   6.476   3.530 -0.3823 -0.1853  0.0292
 6156W        W21965   8.480   6.305   9.677  0.1149 -0.0361 -0.1864
 6157W        W21966  17.416  12.327   0.107 -0.0285  0.1625  0.0050
 6158W        W21967   3.477  10.594  14.479  0.0534  0.0770 -0.0547
 6159W        W21968   9.254   6.161  12.601 -0.0339 -0.4390 -0.2275
 6160W        W21969  10.368   8.780  11.037  0.0345 -0.2794  0.0054
 6161W        W21970   2.555   0.859  11.958  0.0041  0.2090 -0.1831
 6162W        W21971   7.888  10.620   2.350  0.0790 -0.1335  0.3396
 6163W        W21972  10.956   7.868   1.801 -0.0160 -0.0322 -0.3847
 6164W        W21973   9.190   7.320  12.085 -0.0552 -0.0031 -0.0676
 6165W        W21974   0.524   1.577   2.723  0.3008 -0.1298  0.2173
 6166W        W21975   3.030  10.976  12.180 -0.1989 -0.3065 -0.0353
 6167W        W21976   2.526  12.962   0.173  0.1344 -0.0910  0.0433
 6168W        W21977   2.314  18.899   4.259  0.1569  0.0767  0.1654
 6169W        W21978  11.131  10.547   0.121 -0.0306  0.3522  0.1495
 6170W        W21979  14.887  13.827   1.096  0.1958  0.1286 -0.0292
 6171W        W21980   6.891  11.757  14.219 -0.4439 -0.2471 -0.2979
 6172W        W21981  11.941  18.290   0.337  0.1561  0.0943  0.1997
 6173W        W21982  16.167   9.579   0.548  0.1164 -0.2706 -0.2255
 6174W        W21983  10.278  11.012   2.521 -0.4343 -0.0759  0.1080
 6175W        W21984  14.729  17.539  14.899 -0.0742 -0.0014 -0.1117
 6176W        W21985  17.196  15.095  12.707  0.1299 -0.0832 -0.0782
 6177W        W21986  17.104  15.724   0.862 -0.0363  0.1508  0.0930
 6178W        W21987   3.120   1.186   1.874  0.1699  0.1050  0.1392
 6179W        W21988   4.659  15.907   4.463 -0.0213 -0.1903 -0.1299
 6180W        W21989   8.261   4.355   5.033 -0.2115  0.4176  0.0071
 6181W        W21990   6.892   2.380   1.160 -0.1692 -0.1933 -0.1756
 6182W        W21991  18.458   2.631   0.492 -0.3042  0.1589 -0.1126
 6183W        W21992   6.946  14.533  14.479  0.0503  0.1865  0.0452
 6184W        W21993   3.292   0.883  14.765 -0.1280  0.0350 -0.1054
 6185W        W21994  14.986   3.295  14.902  0.3286  0.2817  0.0214
 6186W        W21995  15.764  13.587  10.811  0.3683  0.1564 -0.0423
 6187W        W21996  16.934   5.341  14.051  0.1090  0.2540  0.0231
 6188W        W21997   7.619   9.841  10.712  0.1232 -0.0658 -0.2150
 6189W        W21998  14.665  17.547   3.813  0.2278 -0.0229  0.3159
 6190W        W21999   2.586  14.591   4.905  0.1041 -0.1403  0.2398
 6191W        W22000  13.131   6.359  14.664 -0.0988  0.1207  0.2511
 6192W        W22001  10.309  17.862   2.016 -0.0381 -0.1112  0.0254
 6193W        W22002   7.951   7.741  12.716 -0.1160  0.0865 -0.3389
 6194W        W22003   2.538  18.248  14.751 -0.0851 -0.2212 -0.6922
 6195W        W22004   9.999  18.135   1.105  0.2239 -0.0842 -0.2742
 6196W        W22005  12.839  14.813  13.444 -0.0498  0.0224 -0.0584
 6197W        W22006  12.660  15.453  10.613 -0.1797 -0.1243 -0.1095
 6198W        W22007  14.198  16.617   3.887  0.2164 -0.1082 -0.0185
 6199W        W22008   0.833   2.949   4.665  0.0092  0.0514 -0.5107
 6200W        W22009  10.043   6.459   0.540  0.1830 -0.0674  0.0302
 6201W        W22010   1.371  10.773   2.051  0.3667 -0.0598  0.1718
 6202W        W22011  11.236   1.949  14.158  0.3181 -0.1602  0.1400
 6203W        W22012  17.517  16.924   0.443 -0.0371 -0.0663  0.1975
 6204W        W22013   5.417  17.881  15.287  0.1062  0.0629 -0.0256
 6205W        W22014   8.938  15.847   4.631  0.0345  0.2651 -0.0182
 6206W        W22015  11.821   2.137  11.195 -0.2269 -0.2886  0.2996
 6207W        W22016   0.384   2.221   3.723  0.0863  0.0039  0.0303
 6208W        W22017   4.328  17.267  12.907  0.2181 -0.5284  0.2050
 6209W        W22018   8.553   4.273   2.200 -0.2996  0.1531  0.1388
 6210W        W22019  13.848   3.521  13.895 -0.1394  0.0657 -0.0292
 6211W        W22020   3.006   8.060  12.210 -0.0405 -0.0078  0.0301
 6212W        W22021  11.553   0.139  10.773 -0.0080 -0.1598  0.1229
 6213W        W22022   8.378  16.331  14.868  0.1740 -0.0492  0.0997
 6214W        W22023   6.358  13.068   1.923  0.2395 -0.1657  0.3993
 6215W        W22024   7.018   7.403  11.692 -0.0418  0.1266 -0.0040
 6216W        W22025   1.713   5.351  12.189  0.1549 -0.3719  0.0916
 6217W        W22026  19.012   0.980   0.107  0.5223  0.0544 -0.1377
 6218W        W22027  14.490  14.432   0.525  0.0753 -0.1107  0.3360
 6219W        W22028   7.399  18.839  14.522 -0.2356 -0.2592 -0.2308
 6220W        W22029  11.313  11.285   1.352 -0.1493  0.1791  0.2100
 6221W        W22030  11.102   2.809  13.250 -0.2473  0.1938 -0.1559
 6222W        W22031   3.828   7.692  15.207 -0.1278 -0.4100  0.0651
 6223W        W22032  14.956  14.344   1.195  0.0283  0.1169 -0.2418
 6224W        W22033  10.160   4.383   0.554  0.0556 -0.2600  0.0994
 6225W        W22034  14.178  18.505   0.042  0.0483 -0.1214 -0.1168
 6226W        W22035  11.084  18.172   3.203  0.0526 -0.2152 -0.2648
 6227W        W22036  18.521  11.529   1.490  0.1911  0.0559  0.1126
 6228W        W22037   9.191   5.910  10.824  0.4343 -0.2934 -0.1102
 6229W        W22038   5.960   9.357  13.864  0.1163  0.2011  0.0016
 6230W        W22039   1.734  15.711   2.507  0.1032  0.5713 -0.1702
 6231W        W22040   2.208   3.339   2.604  0.0768  0.1522 -0.0344
 6232W        W22041   2.423  17.387   2.372 -0.1482  0.1734 -0.2004
 6233W        W22042  12.917  16.972   5.294  0.1777  0.4566 -0.2127
 6234W        W22043  17.208   5.600   4.381  0.1336  0.2536  0.2017
 6235W        W22044  13.654   9.308   4.252 -0.3431 -0.0744  0.1273
 6236W        W22045  10.263  12.878  13.643 -0.0733 -0.0082 -0.1560
 6237W        W22046  11.098   8.308  14.597  0.3323  0.1289  0.0337
 6238W        W22047  13.890  13.362   0.202  0.2542 -0.3023 -0.2354
 6239W        W22048  11.699   3.656   0.021  0.0618  0.0952 -0.1476
 6240W        W22049   6.597  10.342   1.669  0.2188  0.1143  0.0456
 6241W        W22050  10.077  15.475  11.204 -0.6430 -0.1772 -0.1844
 6242W        W22051   4.492   2.869  14.251 -0.0130  0.0292 -0.1081
 6243W        W22052  15.454  13.788   4.579 -0.2668 -0.2070  0.0713
 6244W        W22053   3.464   8.468  10.268 -0.1685  0.2698  0.1073
 6245W        W22054  16.062   0.728  10.704  0.3358 -0.1649 -0.0024
 6246W        W22055   4.755   8.593  12.968  0.2753 -0.3559  0.1720
 6247W        W22056  12.154   0.645  11.778  0.2998  0.1263  0.0986
 6248W        W22057   2.887   4.643   5.302  0.4521  0.1923 -0.1398
 6249W        W22058  11.369   7.481  11.371  0.0536  0.1703  0.0586
 6250W        W22059  18.610  13.641   4.639  0.0908  0.6574 -0.2633
 6251W        W22060   8.930  13.508   0.274  0.0837 -0.1116 -0.0494
 6252W        W22061   5.785   9.105   3.264  0.2852  0.0310  0.0183
 6253W        W22062  15.367   4.794  14.017 -0.1241 -0.0893  0.1325
 6254W        W22063  10.237   0.695  11.578 -0.0067  0.1468 -0.0733
 6255W        W22064   0.023  12.427  14.407 -0.1195  0.0594  0.0210
 6256W        W22065  11.293   2.045  11.842 -0.0654  0.2499  0.1663
 6257W        W22066  11.724  16.358  12.669  0.1280 -0.1737  0.4359
 6258W        W22067   0.468   5.222  12.813  0.1043 -0.3509 -0.2824
 6259W        W22068   7.752   3.497  14.027 -0.0258 -0.3422  0.1451
 6260W        W22069   3.241   4.172  12.253  0.3702  0.2283  0.1750
 6261W        W22070   8.891  18.694  11.694  0.1073 -0.4441 -0.0972
 6262W        W22071   1.342  14.063   4.094 -0.1450 -0.1080  0.0214
 6263W        W22072   3.163   5.307  11.177 -0.0271 -0.1732  0.0869
 6264W        W22073  14.300   4.315  14.476 -0.4259 -0.1803 -0.2006
 6265W        W22074   2.354  17.077  14.304 -0.1676 -0.0218  0.1492
 6266W        W22075   1.370   3.126   4.599  0.0718 -0.1296 -0.0736
 6267W        W22076  14.739   8.819  13.205 -0.1665  0.1415  0.1209
 6268W        W22077  10.501  14.594   2.361  0.2408  0.1487  0.2361
 6269W        W22078  15.212   0.373  14.930 -0.1332  0.2279  0.1488
 6270W        W22079   5.545  15.921  13.027 -0.0028 -0.0637  0.0469
 6271W        W22080  10.345   9.928   1.916 -0.2852  0.0927  0.2926
 6272W        W22081   0.137  12.954  14.613 -0.5032 -0.2979  0.0729
 6273W        W22082  12.616  13.882  14.233  0.2941 -0.0171 -0.2021
 6274W        W22083   1.441  13.853   3.391 -0.2581 -0.1232 -0.1245
 6275W        W22084  12.857  11.115  14.072  0.0213  0.2134 -0.1212
 6276W        W22085  13.268   0.576   5.532 -0.3028 -0.2146  0.0874
 6277W        W22086   0.771  12.322  14.360 -0.1195  0.1163  0.0086
 6278W        W22087   5.521   7.178  12.095  0.0357 -0.1078  0.0514
 6279W        W22088   8.236  17.262   4.597  0.0286  0.2764 -0.1471
 6280W        W22089  17.831   4.151   3.523  0.3772 -0.1250  0.1091
 6281W        W22090  14.663   1.795  10.697 -0.1320  0.1876 -0.1070
 6282W        W22091  16.862   4.132  13.100 -0.0983 -0.0603  0.0597
 6283W        W22092  13.085  17.337   5.008 -0.2537  0.1446  0.3590
 6284W        W22093   4.180   0.646  15.242 -0.1394 -0.1024  0.2850
 6285W        W22094  18.790   0.988   1.703 -0.3866  0.0933 -0.1221
 6286W        W22095  18.624  17.120  12.163  0.0980  0.0291  0.4090
 6287W        W22096   7.291   6.469  14.493  0.0198  0.4035 -0.0294
 6288W        W22097  15.210  11.774   1.946 -0.0337 -0.2007 -0.0915
 6289W        W22098   5.585   0.916  13.797 -0.2790 -0.1829 -0.3095
 6290W        W22099   9.541  15.502  12.474 -0.3284  0.2540  0.2242
 6291W        W22100  15.009  14.577  11.974  0.0758  0.1586 -0.1666
 6292W        W22101   7.690  13.444  14.306  0.1682  0.1870  0.1706
 6293W        W22102   2.470   5.114  14.768 -0.0871  0.3791 -0.5293
 6294W        W22103   8.480   2.316   0.199 -0.1534 -0.0414 -0.0582
 6295W        W22104  14.793  17.721  13.277 -0.3420  0.3067  0.0370
 6296W        W22105   7.259  14.038   4.175  0.1352  0.0904  0.0769
 6297W        W22106  16.619  18.121   4.551  0.1320  0.2459 -0.1678
 6298W        W22107   8.016   5.083  10.747  0.0107 -0.1072  0.1527
 6299W        W22108  12.763   7.888   0.071 -0.2388 -0.4453  0.1932
 6300W        W22109  13.219   0.445   4.355  0.3610  0.3134 -0.0246
 6301W        W22110  10.379  10.677  14.814 -0.0880  0.1110  0.1919
 6302W        W22111   0.156   8.155   5.342 -0.2176 -0.0499 -0.0937
 6303W        W22112  13.741  15.417   4.320  0.1925  0.3520 -0.1525
 6304W        W22113   5.595  18.566  13.349  0.1290  0.0443  0.1353
 6305W        W22114  14.689  10.581   0.256 -0.1426  0.0462  0.0955
 6306W        W22115  19.034   2.929  11.118 -0.0790 -0.2150  0.3713
 6307W        W22116  16.475  11.307   0.759  0.4367 -0.2377 -0.2155
 6308W        W22117   2.691   8.174  10.507  0.1965  0.1067  0.2972
 6309W        W22118   3.426   3.371   4.572  0.4457  0.3914  0.0038
 6310W        W22119   0.598   8.887  12.206  0.1440 -0.0059 -0.2370
 6311W        W22120   9.407   5.454   5.499 -0.0220  0.4606 -0.0310
 6312W        W22121   3.168  14.211  14.365  0.2116 -0.2073 -0.1716
 6313W        W22122   2.027   3.561  14.162 -0.0271 -0.0317  0.1938
 6314W        W22123   7.730  14.474   2.520  0.2459 -0.0217 -0.1007
 6315W        W22124   8.059  14.091  14.845  0.0665 -0.1511  0.2206
 6316W        W22125   2.489  18.481   3.201 -0.2197 -0.1752  0.0065
 6317W        W22126   5.198  14.995   0.104  0.2775 -0.0894 -0.1247
 6318W        W22127   7.510   0.228  11.558 -0.0300  0.2291  0.0652
 6319W        W22128   9.672   6.846   1.127  0.0695 -0.1647 -0.1219
 6320W        W22129   5.391   3.565  15.233 -0.1561  0.0584 -0.2760
 6321W        W22130   3.631   2.363  12.602  0.0161 -0.0340 -0.0598
 6322W        W22131   6.197  10.817  11.585  0.0292  0.0118 -0.3674
 6323W        W22132   7.277   9.819   4.396 -0.0417  0.1432 -0.1662
 6324W        W22133  18.305   3.641   4.810  0.2709 -0.2751 -0.2547
 6325W        W22134  18.656  16.488   4.171  0.0190  0.1400  0.2323
 6326W        W22135  18.426  11.927  12.422  0.1552  0.1169  0.0267
 6327W        W22136   2.390  12.135   2.712 -0.0982 -0.3079 -0.1711
 6328W        W22137   8.644  15.474   0.426 -0.3329  0.1706 -0.3632
 6329W        W22138  17.062   4.064   5.071  0.1592 -0.0244 -0.0155
 6330W        W22139   1.028   5.674   2.962  0.0230  0.2187 -0.1257
 6331W        W22140   9.763  18.424   4.730 -0.2278 -0.1683  0.1607
 6332W        W22141   1.680  14.220   1.945 -0.1454 -0.1652  0.0264
 6333W        W22142   1.978  18.381  13.476 -0.0432  0.2283  0.2138
 6334W        W22143   3.763   9.780  14.317  0.2507 -0.2731 -0.0371
 6335W        W22144   4.392   5.929   2.757 -0.2511 -0.0704 -0.3898
 6336W        W22145  11.013   2.673   1.487 -0.4109 -0.0896  0.1146
 6337W        W22146   6.128  11.396   2.627 -0.1037  0.0731  0.1202
 6338W        W22147   4.922   9.622  11.837  0.0195 -0.0282 -0.3248
 6339W        W22148  18.776  11.168   5.090  0.0350  0.0411 -0.0356
 6340W        W22149  16.421  11.547   1.735 -0.2677  0.2614  0.0054
 6341W        W22150   2.084   8.975  15.207 -0.0011  0.2117  0.3629
 6342W        W22151   6.813  11.817   3.751 -0.1395 -0.1427  0.1348
 6343W        W22152   7.300   4.712  15.067 -0.1342  0.1319 -0.1776
 6344W        W22153   8.502  10.584   9.976 -0.0205 -0.2887 -0.0866
 6345W        W22154  10.965   7.674  11.772  0.1551 -0.1238  0.2765
 6346W        W22155   4.201  17.483  11.760 -0.0106  0.1729 -0.0104
 6347W        W22156   1.931  16.170  10.969  0.1341  0.0943  0.0756
 6348W        W22157   4.598   3.212   2.259 -0.1700 -0.0272  0.0558
 6349W        W22158   2.934  13.155   1.883  0.0781 -0.3166  0.2987
 6350W        W22159   5.019   0.811   1.123 -0.2994  0.0217 -0.1725
 6351W        W22160  10.374   5.380   3.011 -0.1043 -0.0506  0.1015
 6352W        W22161   1.076  13.134   0.184  0.2048 -0.0086  0.0336
 6353W        W22162   1.971   8.778  10.517  0.0367  0.0868  0.1616
 6354W        W22163  18.233   5.875   1.287  0.2251 -0.0430  0.0568
 6355W        W22164   0.890   6.945  11.220  0.0039 -0.1548  0.1681
 6356W        W22165  11.968   2.642   1.279 -0.5203  0.0214  0.1802
 6357W        W22166   0.491   4.595  13.661 -0.2737 -0.1690  0.0528
 6358W        W22167   7.612   2.459  13.729  0.1424  0.0395  0.0248
 6359W        W22168  16.887   8.112   3.480  0.0005 -0.1700  0.0461
 6360W        W22169  13.781  14.770   2.712 -0.3475  0.1924  0.2088
 6361W        W22170  11.395  18.740   0.832  0.0148 -0.0898 -0.0189
 6362W        W22171   0.599  18.763   2.744 -0.0680 -0.3034  0.1652
 6363W        W22172   3.642  10.624   0.664  0.1150  0.0017 -0.1439
 6364W        W22173   3.049  18.862   2.458  0.0464 -0.2258  0.2781
 6365W        W22174   5.126  11.004  10.199 -0.0985  0.4824 -0.1042
 6366W        W22175  18.321   7.124   4.548 -0.0907  0.0969  0.0610
 6367W        W22176  18.498   4.320   5.153  0.0820 -0.1717  0.1909
 6368W        W22177   7.138   8.230   4.155 -0.0505 -0.1687  0.1033
 6369W        W22178   2.274  19.034  10.852 -0.0959 -0.0682 -0.0028
 6370W        W22179   6.692  18.532  13.654 -0.0639 -0.1224  0.3112
 6371W        W22180  13.721   7.473  13.821  0.2912  0.2420 -0.1935
 6372W        W22181  10.774   1.276   0.083  0.0554  0.0616  0.2132
 6373W        W22182   2.125   6.204   1.509  0.0411  0.0071  0.0152
 6374W        W22183  13.466  18.835  11.702  0.0672 -0.1433  0.1088
 6375W        W22184   1.060   7.851   4.064 -0.3061 -0.1586 -0.0446
 6376W        W22185  12.889   1.617  11.686  0.2109  0.2237  0.0447
 6377W        W22186  18.527  12.214   3.552  0.1748 -0.1465  0.2691
 6378W        W22187   9.702   8.352   2.980  0.0203  0.1578 -0.0831
 6379W        W22188   7.615   6.395  13.039  0.2623 -0.0987 -0.1329
 6380W        W22189  16.157  18.843   1.326 -0.0769  0.2722  0.0080
 6381W        W22190   3.091   8.266   0.670 -0.0535 -0.0192  0.1443
 6382W        W22191   0.265  16.160   3.147  0.0316 -0.1858  0.1640
 6383W        W22192   0.477  12.237  10.887  0.2154  0.2117  0.1137
 6384W        W22193  10.323  18.927   2.242  0.0383 -0.0270  0.1256
 6385W        W22194   9.172   0.623   2.227  0.3183  0.1272 -0.1253
 6386W        W22195   9.106   9.267  10.481 -0.0550  0.3379 -0.2560
 6387W        W22196  15.554   4.266   3.897  0.0989  0.0397 -0.0672
 6388W        W22197   9.260  16.405   1.613 -0.2273 -0.1505 -0.0513
 6389W        W22198   5.708  12.073   0.435 -0.0601  0.0294 -0.0172
 6390W        W22199   7.080   9.510  11.968  0.0605 -0.0647  0.1649
 6391W        W22200   3.581  16.038   5.466  0.0741  0.2213 -0.0583
 6392W        W22201  17.139  10.815  12.242  0.0097  0.0815 -0.0664
 6393W        W22202  17.739   5.970   1.141 -0.1297  0.1714 -0.1067
 6394W        W22203  16.956  14.327   2.414  0.0840 -0.1928  0.3789
 6395W        W22204   4.202   4.780  14.772  0.1995 -0.0605  0.1897
 6396W        W22205  15.569  17.636   0.597 -0.3456  0.3442 -0.2140
 6397W        W22206  18.990  14.198   5.356 -0.0790  0.0565 -0.1184
 6398W        W22207   4.412   7.428  12.604 -0.3054  0.1769 -0.0795
 6399W        W22208  16.637  11.613  12.493 -0.2785 -0.0265 -0.0824
 6400W        W22209  18.924   1.184  13.210  0.2536  0.1392  0.4216
 6401W        W22210   2.052   5.056   3.895 -0.0296 -0.1281 -0.3796
 6402W        W22211  18.409   0.420   3.557  0.1053  0.0584  0.3222
 6403W        W22212   8.191  17.321  10.821 -0.1405 -0.1061 -0.1054
 6404W        W22213  12.231  14.180   5.252  0.3096  0.1597  0.0415
 6405W        W22214  16.849  11.195   1.076 -0.2240 -0.0681 -0.1000
 6406W        W22215  11.725   6.956  14.938  0.1599  0.0968 -0.1143
 6407W        W22216  13.721   2.706  15.100 -0.3375 -0.1892 -0.1563
 6408W        W22217   3.890   9.716  12.037  0.2159  0.0721  0.1918
 6409W        W22218  13.363   9.905   4.459 -0.1230 -0.1527 -0.1975
 6410W        W22219   0.802   3.705   3.254 -0.1309 -0.0583  0.2725
 6411W        W22220  15.711  18.654  11.212 -0.1599 -0.0072 -0.0671
 6412W        W22221  16.351  13.433  10.406 -0.2018  0.0066  0.0729
 6413W        W22222   6.830   0.802   0.967 -0.2952  0.0172  0.0248
 6414W        W22223   1.294  10.859  14.334  0.0612  0.0010 -0.1196
 6415W        W22224   3.737  11.995   0.763  0.0400 -0.1944 -0.1507
 6416W        W22225  11.980   6.690   0.024 -0.0625  0.0053  0.0910
 6417W        W22226  17.410   8.445  12.107  0.0330 -0.1511 -0.0912
 6418W        W22227  16.416   7.106   0.130 -0.0611 -0.0518 -0.0927
 6419W        W22228   8.208   1.470   2.832 -0.1922  0.1442  0.0339
 6420W        W22229  14.630  10.201   0.666 -0.2436  0.2154 -0.0564
 6421W        W22230   2.509   7.283   4.375 -0.1044 -0.1488  0.1520
 6422W        W22231   2.414  13.084  14.554 -0.5983  0.0354 -0.1263
 6423W        W22232  13.480  18.535  11.195 -0.0484 -0.1464 -0.1227
 6424W        W22233   0.089   5.828   1.639  0.0183 -0.2253 -0.0591
 6425W        W22234  17.360   9.574  13.828 -0.1784 -0.0207  0.0216
 6426W        W22235  15.342   2.341   4.936 -0.3013  0.2169 -0.0079
 6427W        W22236  10.744  18.238  14.229  0.3246  0.0751 -0.0747
 6428W        W22237   1.806   9.298  13.102 -0.1611  0.2163 -0.0819
 6429W        W22238  13.438  17.767   1.678 -0.1481  0.3829 -0.0093
 6430W        W22239  16.744   5.967   2.024 -0.1373  0.3442 -0.1059
 6431W        W22240  13.940  12.712   0.603  0.1754 -0.2661 -0.0316
 6432W        W22241   6.701  12.620  11.250 -0.2374 -0.0401  0.0886
 6433W        W22242  16.267  18.377  11.363  0.2454  0.2819  0.3677
 6434W        W22243   8.065  12.447  10.664 -0.0390  0.0173  0.0665
 6435W        W22244   8.937   3.998  10.647 -0.2570  0.0039  0.0936
 6436W        W22245   7.797   3.653  11.191 -0.1298  0.2009 -0.1703
 6437W        W22246   2.113   6.510   3.932  0.1716 -0.1934 -0.1749
 6438W        W22247   9.617  11.447   4.817 -0.1017  0.1061 -0.1072
 6439W        W22248   9.116  18.364   9.953  0.0657 -0.1451  0.3572
 6440W        W22249  18.464   9.219   0.946 -0.0986 -0.0043  0.2695
 6441W        W22250  17.456  18.989   2.056  0.0306 -0.4292 -0.0399
 6442W        W22251   3.440  16.654   0.319 -0.2029  0.6277  0.2280
 6443W        W22252   5.314  14.855   3.004  0.0127 -0.0999 -0.1055
 6444W        W22253  18.999  12.770   1.354  0.0062 -0.1928 -0.1688
 6445W        W22254   1.523  10.917  11.395  0.0782 -0.0359 -0.0480
 6446W        W22255  10.602   4.095   3.313  0.0307  0.1327  0.0806
 6447W        W22256   4.993  10.494  11.128  0.0929  0.0531  0.0433
 6448W        W22257   8.423   0.841   4.729  0.0412 -0.1269 -0.3554
 6449W        W22258  13.938   3.376  14.443  0.1243 -0.0720  0.0567
 6450W        W22259  14.991  18.932  14.901 -0.1796 -0.0544  0.0981
 6451W        W22260   0.602  15.737   4.634  0.0867  0.0893  0.4046
 6452W        W22261  12.871  17.988  11.761  0.0505  0.0001  0.2933
 6453W        W22262  12.458   7.614   1.795  0.3533  0.0847 -0.0606
 6454W        W22263   7.468   4.415  11.049 -0.2972  0.1317 -0.2948
 6455W        W22264  15.357  14.085   5.053  0.1621 -0.1149 -0.0729
 6456W        W22265  12.406   8.910   4.476  0.2063  0.0725  0.2230
 6457W        W22266  13.624  16.366   1.513 -0.0177  0.0927  0.2234
 6458W        W22267  13.632   3.085   3.234 -0.0816 -0.0930 -0.2234
 6459W        W22268   6.629  14.460   0.076  0.0209  0.1675  0.3422
 6460W        W22269  11.766   3.427   2.416  0.0428  0.2225  0.4368
 6461W        W22270   9.345   0.832   3.792  0.0601  0.1845  0.0292
 6462W        W22271   9.481   1.952   1.896 -0.2229  0.1832 -0.1400
 6463W        W22272  12.143   5.655   4.890 -0.3386  0.0805  0.0302
 6464W        W22273   2.574   0.264   1.405 -0.2504 -0.1293 -0.1208
 6465W        W22274  11.092  11.697   3.555 -0.1449  0.1677  0.0977
 6466W        W22275  18.725   9.017   4.551  0.0445 -0.3140  0.0958
 6467W        W22276   6.531  15.197  15.181  0.0897  0.0359 -0.1186
 6468W        W22277   9.953  14.286  13.894  0.3849 -0.1279  0.1312
 6469W        W22278  12.522  17.517  10.438 -0.0450  0.0389 -0.0675
 6470W        W22279  13.680  10.154  14.140  0.1151  0.0651  0.2458
 6471W        W22280   1.852  14.065   0.057 -0.1442  0.3697 -0.0927
 6472W        W22281   3.375  12.258   0.966 -0.1393 -0.1282  0.2568
 6473W        W22282   0.968   2.623   0.597  0.1639 -0.1918 -0.0449
 6474W        W22283   1.975   7.841   3.547  0.0617  0.1868 -0.2592
 6475W        W22284   3.915  11.961   0.339 -0.0956  0.2441  0.0796
 6476W        W22285   8.167  15.596  10.054  0.0552  0.0550  0.0220
 6477W        W22286   9.716   1.856  12.588  0.1380 -0.0476  0.0645
 6478W        W22287   5.661  14.811   3.342  0.0216 -0.1180  0.0416
 6479W        W22288   4.153   1.742  14.944  0.0046 -0.1773  0.1953
 6480W        W22289   4.090   7.197   1.071  0.2006  0.0490  0.1432
 6481W        W22290  14.358  18.062   0.616  0.2347 -0.3779  0.1393
 6482W        W22291   9.527   5.087  13.060  0.2380  0.1583 -0.3543
 6483W        W22292   0.762   7.183   6.108 -0.0400  0.4607 -0.1192
 6484W        W22293  13.134   9.699   0.881 -0.2734 -0.1608 -0.2448
 6485W        W22294  12.817  17.405   2.937  0.1717  0.0737  0.2445
 6486W        W22295  11.747   8.227  12.985 -0.0103  0.3904 -0.0165
 6487W        W22296  10.106   5.083   0.010  0.2099 -0.0341  0.0381
 6488W        W22297  10.914  15.052   0.498 -0.1361 -0.0363  0.1768
 6489W        W22298  15.204   1.925   2.005 -0.1843  0.0039  0.1349
 6490W        W22299   8.171  11.060  15.262  0.2394  0.1969 -0.1624
 6491W        W22300   8.560  17.414   9.840 -0.0705  0.0215  0.0180
 6492W        W22301  16.425  10.975   2.437 -0.1991  0.1844 -0.3764
 6493W        W22302   4.024  15.482   1.962 -0.1956  0.0292 -0.0941
 6494W        W22303  15.899   1.400  12.647  0.0381 -0.2518 -0.1722
 6495W        W22304   0.572   9.060  13.804 -0.1294 -0.3563  0.1047
 6496W        W22305   7.280   6.119   1.670 -0.1403 -0.0482  0.1774
 6497W        W22306  13.161  17.529   3.789  0.1675 -0.0764 -0.2976
 6498W        W22307  10.898   5.186  10.480  0.1994 -0.1740 -0.1203
 6499W        W22308   5.011   6.158   4.512  0.0571 -0.0154 -0.2449
 6500W        W22309  11.174  16.350   3.396 -0.0463 -0.0449  0.0041
 6501W        W22310   0.289   5.221   9.718  0.2425  0.1392  0.3677
 6502W        W22311  10.192   2.820   0.716  0.0406  0.1814  0.0026
 6503W        W22312   8.918   8.844   0.191 -0.3252  0.1396 -0.1166
 6504W        W22313   4.089   6.126  10.028  0.3060 -0.1664  0.2581
 6505W        W22314   2.031  18.265  10.586 -0.0339 -0.0183 -0.1893
 6506W        W22315  12.865  12.300  10.763 -0.1904  0.2811 -0.4488
 6507W        W22316   8.374   0.040   0.732 -0.1216  0.0672 -0.0186
 6508W        W22317   3.393  17.016  11.921  0.2535  0.0638 -0.1458
 6509W        W22318   7.983  16.387   2.296  0.3232 -0.4594  0.1078
 6510W        W22319  15.754   9.027  13.785  0.0190  0.0251 -0.0314
 6511W        W22320   8.546  15.774   3.779 -0.2123 -0.1909 -0.2259
 6512W        W22321   7.742   0.345   4.534  0.1194  0.1025 -0.2921
 6513W        W22322   4.159   8.321   1.125  0.2923  0.0891 -0.0685
 6514W        W22323   9.404  12.466  12.422 -0.0517  0.3084 -0.0181
 6515W        W22324   5.521   3.853   0.669 -0.0594 -0.1102 -0.1410
 6516W        W22325   0.931  11.483  14.775  0.3836  0.2054 -0.0906
 6517W        W22326   2.098   6.711  10.981  0.1070  0.3203 -0.3005
 6518W        W22327   4.518   3.389   3.373  0.1957 -0.2474 -0.0510
 6519W        W22328  13.285  10.227   0.587  0.2687 -0.0497 -0.1295
 6520W        W22329   1.697   7.706   0.546  0.0518  0.0631 -0.3887
 6521W        W22330   7.263   4.094   1.313 -0.0126 -0.0653 -0.1096
 6522W        W22331   9.879   9.318  13.100 -0.1423  0.0742  0.1223
 6523W        W22332  11.554   9.408  11.619 -0.0324  0.2210  0.0839
 6524W        W22333   5.985  11.788   4.640 -0.0801 -0.1360 -0.0000
 6525W        W22334  16.050   0.793   0.486  0.3132  0.0473 -0.1582
 6526W        W22335  18.064   0.629  13.108  0.3576 -0.1633  0.1353
 6527W        W22336   6.044  10.276  13.803 -0.0022  0.1949  0.2999
 6528W        W22337  13.362  18.179  12.440 -0.1082 -0.1935  0.0161
 6529W        W22338  14.424   6.318   1.059 -0.0181  0.0248  0.0194
 6530W        W22339  16.946  18.864   2.920  0.3792  0.1409 -0.0196
 6531W        W22340  13.947  14.135  10.558  0.0452 -0.0378  0.3517
 6532W        W22341  10.627  10.696   0.022 -0.4505 -0.1810  0.0134
 6533W        W22342   6.442  11.870  13.951  0.1393  0.1934  0.2992
 6534W        W22343  11.644  14.899   3.530  0.2016 -0.2478 -0.2937
 6535W        W22344   0.439  13.662   1.651  0.2157  0.3023 -0.1484
 6536W        W22345  17.315   5.688  12.232  0.0007 -0.1726 -0.0588
 6537W        W22346  14.713   5.811  13.096 -0.1492  0.1009  0.0907
 6538W        W22347  16.572   2.032   1.563 -0.2300  0.0576 -0.1245
 6539W        W22348   9.010   5.126   0.610  0.1787  0.2548  0.0410
 6540W        W22349   2.348   5.754   9.343  0.2090  0.1139  0.2632
 6541W        W22350   9.225   4.833   1.331 -0.1017 -0.0366  0.0045
 6542W        W22351   2.910  15.941  12.515 -0.2655  0.4536 -0.1295
 6543W        W22352   3.910   6.363  10.458  0.2040 -0.0094 -0.2184
 6544W        W22353  17.736   2.292  14.754  0.2978 -0.0219  0.0980
 6545W        W22354  17.379   5.842  10.603 -0.1483  0.0758  0.0853
 6546W        W22355   5.228   7.166   0.456 -0.3481  0.0767 -0.0500
 6547W        W22356  16.845  10.379   5.114 -0.1826  0.0540 -0.1055
 6548W        W22357  16.014   0.577  14.760  0.0803 -0.0005 -0.0366
 6549W        W22358   4.696  17.746   1.340 -0.0824 -0.1482  0.1029
 6550W        W22359   2.435  13.472  13.294 -0.0427 -0.0318  0.2142
 6551W        W22360  14.723   9.727   4.204 -0.0290  0.3014  0.1786
 6552W        W22361   1.762   2.472   4.881 -0.1948 -0.0926 -0.1652
 6553W        W22362   6.966  15.907   2.325  0.2673 -0.0596  0.0644
 6554W        W22363  16.057   8.095   1.111 -0.2332 -0.2268  0.0623
 6555W        W22364   0.443   4.506   5.208 -0.2671 -0.0828 -0.2278
 6556W        W22365   6.379   6.944   1.145 -0.2124 -0.1000  0.0166
 6557W        W22366   9.208   5.341   0.128  0.2562 -0.2616 -0.1209
 6558W        W22367   1.622  18.115   0.543  0.0141 -0.1556 -0.3315
 6559W        W22368  16.004  13.032  11.471  0.0120  0.1784 -0.0854
 6560W        W22369  15.124   2.903   4.138 -0.0157  0.0720  0.2846
 6561W        W22370   7.182   8.420  11.212  0.1889 -0.1877  0.0238
 6562W        W22371   1.565  18.405  10.752 -0.0570 -0.2993 -0.3701
 6563W        W22372   8.965   8.659  13.042  0.2541  0.0781  0.1681
 6564W        W22373   5.993   5.849  10.505  0.0354 -0.3370 -0.2531
 6565W        W22374   1.562  10.689  13.673 -0.0701 -0.2323 -0.1845
 6566W        W22375   8.776  18.937  12.990 -0.2815 -0.0952 -0.2266
 6567W        W22376   6.974   2.353  12.430 -0.2852 -0.1215  0.0023
 6568W        W22377   7.025   3.150  10.946  0.0736  0.0691  0.0802
 6569W        W22378  16.577  14.720   4.925 -0.3371  0.1319 -0.1793
 6570W        W22379  18.964  18.107  12.602  0.0764 -0.1778 -0.3885
 6571W        W22380  11.498   9.064  13.276 -0.2338 -0.0059  0.3579
 6572W        W22381   3.554  12.418   0.516 -0.0676  0.0996 -0.0693
 6573W        W22382   2.522  13.795  11.326 -0.0689 -0.2210 -0.2546
 6574W        W22383   0.981   5.597  11.783  0.1582 -0.0938  0.2728
 6575W        W22384   7.684  13.563  12.981 -0.0615 -0.2129 -0.1363
 6576W        W22385  16.883   2.451  15.131  0.0088  0.0108  0.0748
 6577W        W22386  15.173  11.883   2.970  0.0904 -0.2059  0.3263
 6578W        W22387   8.815   0.330   2.681  0.0514 -0.1727  0.1704
 6579W        W22388  11.695  13.183   0.418 -0.0791 -0.0240  0.0370
 6580W        W22389   4.276   0.827   1.894  0.1602 -0.0272  0.1922
 6581W        W22390  16.989  16.090  13.587 -0.1341  0.1484 -0.0775
 6582W        W22391  17.052  13.866  15.074 -0.1680  0.4185  0.2162
 6583W        W22392   4.523   9.982  13.974 -0.0063  0.0281 -0.0626
 6584W        W22393   7.870   2.764   1.932 -0.0149 -0.1739 -0.1342
 6585W        W22394   3.824   3.918   2.641  0.3400  0.1210  0.0209
 6586W        W22395   9.568   8.383  10.527  0.1092  0.0771 -0.0615
 6587W        W22396   6.941  10.623   0.785 -0.2567 -0.0470  0.2779
 6588W        W22397  10.564   8.634   1.184  0.1850 -0.0518 -0.0174
 6589W        W22398   1.458  14.415   0.958 -0.1322  0.2064  0.3454
 6590W        W22399  13.035   1.408  12.190 -0.1506  0.2371  0.0082
 6591W        W22400   5.092   8.922  13.287 -0.0265 -0.1185 -0.0831
 6592W        W22401  16.340  18.581  13.621 -0.0636  0.2749  0.0262
 6593W        W22402   5.903  12.886   1.870  0.1862 -0.0893  0.2663
 6594W        W22403   1.216   8.818  13.339 -0.0535  0.0847  0.1077
 6595W        W22404  16.941   5.044   1.757  0.1096 -0.0010  0.4061
 6596W        W22405   0.557  14.249   3.986 -0.3129 -0.0671 -0.0871
 6597W        W22406   9.519  12.202   2.165  0.0836 -0.1646  0.1209
 6598W        W22407   6.677   6.270  13.183 -0.1786  0.2835 -0.0272
 6599W        W22408   9.058   8.319  10.621  0.2466  0.1750  0.1827
 6600W        W22409   9.528  12.672  13.876  0.1246 -0.2061  0.0244
 6601W        W22410   5.208   5.684   2.194  0.3402  0.0231  0.0133
 6602W        W22411   9.169   1.548   2.529  0.0163  0.1196 -0.0892
 6603W        W22412   1.576  18.362  10.249  0.3884  0.0127 -0.2897
 6604W        W22413   8.687   0.335  13.311 -0.3514  0.1491  0.1664
 6605W        W22414  17.893   4.230   5.144 -0.0065  0.0816 -0.1432
 6606W        W22415  13.181   7.017   4.115 -0.0252 -0.2244 -0.2431
 6607W        W22416   8.988   7.778  13.181  0.1279  0.1037 -0.0531
 6608W        W22417   3.587   1.155  10.398 -0.0633  0.1305 -0.0243
 6609W        W22418   5.230   8.784   4.706 -0.0302 -0.1396  0.2089
 6610W        W22419  14.571  16.057   2.439 -0.2170 -0.2218  0.3078
 6611W        W22420  12.823   0.729   4.477 -0.0241 -0.2828  0.2736
 6612W        W22421   1.228   9.483   2.619 -0.0010  0.1102 -0.1790
 6613W        W22422  14.677   2.388   2.558 -0.1107 -0.0711  0.0908
 6614W        W22423   9.706  14.652   1.175  0.1351 -0.0541  0.0893
 6615W        W22424   7.760  18.075   4.784 -0.1797 -0.0923 -0.0996
 6616W        W22425   7.047  14.410  12.926 -0.2384 -0.0771 -0.1590
 6617W        W22426  10.246   4.384  10.844 -0.1474  0.1387 -0.0635
 6618W        W22427  13.265   6.778   4.863 -0.1310  0.1514 -0.2489
 6619W        W22428  14.335  17.496  12.861  0.1901 -0.1868 -0.1001
 6620W        W22429  18.825   2.232   1.072  0.0186  0.2065 -0.0053
 6621W        W22430  18.127   2.626   5.021 -0.1063  0.2213  0.1482
 6622W        W22431  10.288   9.593  13.064 -0.0326  0.0998 -0.0631
 6623W        W22432  12.627   4.295   3.009  0.0532  0.0132 -0.4139
 6624W        W22433   6.183  12.710  11.144  0.1939 -0.2261 -0.1135
 6625W        W22434   4.009  11.373   3.382  0.2988  0.2177  0.1259
 6626W        W22435   8.501   6.010  10.107  0.2152 -0.1518 -0.1717
 6627W        W22436   4.404  16.454   4.258  0.1046 -0.0881  0.1518
 6628W        W22437   8.047   4.390   2.336  0.0848  0.1901  0.0973
 6629W        W22438  14.493   5.333  11.156 -0.0639  0.0131  0.0934
 6630W        W22439  16.069   7.631  10.970 -0.3629 -0.0239  0.0423
 6631W        W22440   6.413   8.980   2.128  0.3552 -0.2171  0.1014
 6632W        W22441   6.258   5.759  11.399  0.0131  0.0726 -0.1211
 6633W        W22442  10.780   5.000   0.385 -0.1536 -0.0404  0.0067
 6634W        W22443  17.711   1.802  14.949  0.0261 -0.1989 -0.1785
 6635W        W22444  18.339   8.961  11.230  0.0903 -0.1767  0.0494
 6636W        W22445  17.878   1.350   3.529 -0.6082  0.0170 -0.2896
 6637W        W22446   0.782  11.058   1.671 -0.1043  0.1200 -0.0627
 6638W        W22447  11.867  12.323  14.473 -0.0705  0.1641  0.2780
 6639W        W22448   1.099  14.268  11.256  0.2925  0.1967  0.0405
 6640W        W22449   8.808  15.059   1.658  0.1562 -0.0893  0.1857
 6641W        W22450   1.459   5.994  15.267  0.1027  0.2005  0.1365
 6642W        W22451  10.700  15.909  12.342  0.1440  0.2817  0.3013
 6643W        W22452   8.747   8.297  13.415  0.0628  0.1913  0.1611
 6644W        W22453  18.761  13.491   5.141 -0.1215 -0.0239 -0.2286
 6645W        W22454   5.034  13.826  12.316 -0.1189 -0.4630 -0.1303
 6646W        W22455   6.066  10.507   1.774  0.2178  0.2262  0.2320
 6647W        W22456   1.219  16.927   1.900  0.0153  0.2366 -0.0247
 6648W        W22457   6.578   9.163  14.781  0.1604  0.1892 -0.4045
 6649W        W22458  18.275  18.619   2.520  0.0475 -0.3141  0.1375
 6650W        W22459   3.709  17.449   4.810 -0.0033 -0.2661  0.0823
 6651W        W22460   3.792  12.413  15.278  0.0982  0.0821  0.1414
 6652W        W22461   8.400  14.616  10.141  0.0225  0.3531  0.1113
 6653W        W22462  12.164   7.765  12.991 -0.2752 -0.0672 -0.2580
 6654W        W22463   9.619   5.716  11.007 -0.0971 -0.2501 -0.3414
 6655W        W22464   6.322   6.145  12.839  0.0118 -0.0664 -0.3301
 6656W        W22465  17.875   3.547   1.910 -0.1475  0.3321 -0.2704
 6657W        W22466  11.095   9.149   0.450 -0.0331 -0.2234  0.0239
 6658W        W22467  17.120   6.024  13.775  0.0644 -0.0950  0.0347
 6659W        W22468  16.622  17.402   2.032  0.0699 -0.2123 -0.3794
 6660W        W22469  16.711   4.973  10.631  0.0241  0.1050 -0.0367
 6661W        W22470  17.767   8.326  13.658  0.1735  0.0101  0.1963
 6662W        W22471   4.132   3.941  13.157  0.2877  0.3821 -0.1689
 6663W        W22472  18.235  17.609  10.760  0.0235 -0.0911 -0.2901
 6664W        W22473   2.231  14.607   3.981 -0.0578  0.1336  0.0685
 6665W        W22474   9.528  14.620   2.704  0.1928  0.4363 -0.2446
 6666W        W22475  11.772  17.633   1.562  0.2166  0.0967 -0.0668
 6667W        W22476   6.705  15.067  10.933  0.3675  0.0490  0.2064
 6668W        W22477   2.620   5.340  12.698 -0.1046 -0.2706  0.2154
 6669W        W22478  13.900   0.292  10.880  0.2066  0.0704 -0.0368
 6670W        W22479  14.360  14.340   5.247  0.3189 -0.1158  0.0303
 6671W        W22480   0.819  13.064   3.121  0.0228 -0.1615 -0.0532
 6672W        W22481  12.917  10.210   4.532  0.1251  0.0362  0.1105
 6673W        W22482   7.705   3.230   4.131  0.3102 -0.1781 -0.0770
 6674W        W22483  18.187  10.088   0.739 -0.1751 -0.1485  0.0063
 6675W        W22484   0.978   2.187  10.916 -0.0086  0.0913 -0.0280
 6676W        W22485  13.604   6.157  15.212  0.0105  0.0397  0.0945
 6677W        W22486  10.474  11.935  12.893 -0.1554 -0.3144  0.2396
 6678W        W22487   7.455  18.008  13.104 -0.2972  0.1407  0.2927
 6679W        W22488  12.673  10.105  14.768  0.1234  0.3063  0.1574
 6680W        W22489  13.675   3.629  12.858 -0.4377  0.2660  0.2549
 6681W        W22490   3.735   1.776  13.209  0.2180  0.3786  0.1306
 6682W        W22491  10.156   5.544  13.755 -0.0521  0.0601  0.0382
 6683W        W22492  14.363  12.095  12.512 -0.1004 -0.1828  0.2535
 6684W        W22493   6.794  12.123  11.014  0.4051 -0.0122  0.2069
 6685W        W22494  18.886  17.999   4.162 -0.2162  0.1423 -0.0810
 6686W        W22495   2.079  17.299   5.760 -0.2105 -0.2129  0.3338
 6687W        W22496  14.798   8.552  13.718 -0.0586  0.0031 -0.2199
 6688W        W22497   6.714   3.892   1.438 -0.1044  0.0967  0.1361
 6689W        W22498   1.189  12.097  14.188  0.3739  0.3727  0.0240
 6690W        W22499   9.237  14.674  13.309  0.2325 -0.0502 -0.1267
 6691W        W22500  18.385  18.556   4.480  0.2852 -0.0314  0.2796
 6692W        W22501  10.561   9.750   3.173  0.0970  0.0637 -0.0014
 6693W        W22502   5.313  13.705  15.271  0.3402 -0.2275  0.2452
 6694W        W22503  14.749   2.972  14.286  0.2928 -0.1619 -0.0541
 6695W        W22504   4.980   7.125   4.533  0.1050 -0.0073 -0.1278
 6696W        W22505  16.017  13.258   1.986 -0.1690 -0.1961  0.0359
 6697W        W22506  18.141  14.056   1.478 -0.2044 -0.1142  0.2722
 6698W        W22507   6.840   7.592   1.099  0.0473  0.2499  0.1461
 6699W        W22508  14.324   3.150   2.123  0.0609  0.3790 -0.1487
 6700W        W22509   7.322  15.527  14.971 -0.1498  0.2498 -0.0659
 6701W        W22510  17.568   1.005   0.810  0.0780  0.1979 -0.4340
 6702W        W22511  11.898  13.471  14.882  0.3277 -0.1454 -0.0196
 6703W        W22512  17.697   3.326   1.156 -0.1780  0.1990  0.0907
 6704W        W22513  15.650   3.609   3.062  0.1457 -0.0521  0.0308
 6705W        W22514   4.528   0.073   2.134  0.0713  0.0940 -0.1406
 6706W        W22515  10.653  10.803  10.055 -0.3014  0.2831  0.1951
 6707W        W22516  11.781   5.433  13.069 -0.3750 -0.1776 -0.0637
 6708W        W22517  15.391   1.285   2.961  0.2483  0.3772 -0.0128
 6709W        W22518  11.666   8.343   0.054  0.2383 -0.0821  0.2294
 6710W        W22519   5.605   6.652  12.134  0.1018 -0.3202  0.2350
 6711W        W22520   5.915   7.711   3.459 -0.1246  0.0913  0.0073
 6712W        W22521   4.913  11.045   4.456  0.0966 -0.1620 -0.2126
 6713W        W22522   6.767   1.422   5.280 -0.1065  0.1690  0.1539
 6714W        W22523  13.718  11.846  11.780 -0.3317  0.0772  0.0977
 6715W        W22524  17.667  11.043  13.455  0.0291 -0.1608 -0.0718
 6716W        W22525  12.203  12.631  10.256  0.3144  0.0828 -0.2505
 6717W        W22526   3.610  13.397   0.020  0.1627  0.2023  0.4048
 6718W        W22527   2.322  12.910   0.977 -0.1201 -0.3711  0.0143
 6719W        W22528  14.930   2.625   4.947  0.0496 -0.2365 -0.1105
 6720W        W22529   8.088  15.425  14.298  0.4361 -0.2076 -0.0827
 6721W        W22530  15.209  12.164  14.718  0.0467 -0.2138 -0.0315
 6722W        W22531  17.291   5.217   0.093  0.1419 -0.0185 -0.0816
 6723W        W22532   4.933   3.475  14.962  0.0548 -0.1075 -0.0136
 6724W        W22533  10.788  12.771  13.706 -0.0290 -0.0223  0.1098
 6725W        W22534   8.112   9.233   1.484 -0.0239 -0.2011  0.2613
 6726W        W22535  16.245   0.748   1.638 -0.0210  0.0887  0.1186
 6727W        W22536  17.027   4.912  13.774  0.0405 -0.0403 -0.1151
 6728W        W22537   8.742  14.683  12.021  0.1020  0.2585  0.2015
 6729W        W22538   1.947  18.570  10.034 -0.0111  0.1181  0.1604
 6730W        W22539   9.163  16.047   2.304  0.1541 -0.0189  0.1136
 6731W        W22540  12.253  18.412   1.299  0.1722  0.2750  0.2434
 6732W        W22541  10.778  16.257  13.380  0.1256  0.2826  0.0414
 6733W        W22542   3.052  16.660  15.023  0.2075  0.0174 -0.1776
 6734W        W22543   7.247  11.951   0.092 -0.2143  0.5639  0.0891
 6735W        W22544   8.003   1.965  11.978  0.0830 -0.4796  0.0267
 6736W        W22545   4.117  15.664   0.492 -0.3102 -0.4246 -0.0517
 6737W        W22546  18.174   2.057  11.934 -0.1212 -0.3327  0.0177
 6738W        W22547   1.230  13.500   3.893 -0.1803 -0.0703 -0.0991
 6739W        W22548   3.195   7.442   3.728  0.0566 -0.0073  0.0586
 6740W        W22549  11.419  12.087   3.466 -0.0527 -0.1797 -0.0091
 6741W        W22550   0.798   8.374   3.019  0.1342  0.0064  0.1715
 6742W        W22551   9.700   0.895  12.831 -0.5322 -0.1422 -0.0520
 6743W        W22552  13.990  17.264   4.708 -0.2470  0.0627 -0.0592
 6744W        W22553   7.644   5.569  11.283  0.3256  0.2771  0.3617
 6745W        W22554   0.257   8.556  12.149 -0.1378  0.2275  0.0328
 6746W        W22555  14.922   4.890  11.691  0.0920 -0.0408 -0.0436
 6747W        W22556   0.362   6.333  10.646  0.0867  0.0057  0.0020
 6748W        W22557  18.577   3.219   4.707  0.3710  0.1356  0.0094
 6749W        W22558   0.184  12.303   5.912 -0.4041 -0.3154  0.1519
 6750W        W22559  14.987  16.908  12.329  0.1775 -0.1001  0.0160
 6751W        W22560   9.673  12.063   3.363 -0.0917 -0.1330  0.1862
 6752W        W22561  12.582   5.201   2.318 -0.0912  0.1782  0.0185
 6753W        W22562   4.686  17.168   2.528  0.0001  0.0245 -0.2177
 6754W        W22563   5.894  10.529   3.579  0.0278 -0.2807  0.5089
 6755W        W22564  15.907  11.009  10.635 -0.2049 -0.2832 -0.1874
 6756W        W22565  13.918   8.334  12.045  0.1526  0.2313 -0.0444
 6757W        W22566  14.177   8.754   4.942 -0.4047  0.1570  0.2473
 6758W        W22567   0.825   6.324   3.613  0.0363 -0.3203 -0.1565
 6759W        W22568   1.231  15.793  13.703  0.0460  0.0876 -0.2041
 6760W        W22569   2.916  16.428   4.487  0.2031 -0.1816  0.0060
 6761W        W22570  15.824   6.685  12.060  0.1251 -0.2347 -0.0142
 6762W        W22571   3.782   5.919  11.634 -0.3849  0.0692  0.3446
 6763W        W22572  16.565  16.874  11.482  0.2631  0.2323  0.1525
 6764W        W22573   6.258  10.877   2.509  0.0472  0.1759  0.1680
 6765W        W22574  11.736  13.472   1.240 -0.1260 -0.0347  0.1216
 6766W        W22575  11.368  18.949   3.774 -0.1791 -0.0975  0.0212
 6767W        W22576   2.575  15.313   0.623 -0.2157 -0.1418 -0.0097
 6768W        W22577  10.973  10.622  12.548 -0.0988 -0.3224  0.0996
 6769W        W22578  17.288   8.682   4.068 -0.1332 -0.0202 -0.0688
 6770W        W22579   8.224   9.442  10.137 -0.2151 -0.0591  0.1415
 6771W        W22580  10.337   4.895   4.518 -0.0436  0.3099 -0.1155
 6772W        W22581   6.404  14.228   9.948  0.2550  0.2020 -0.0594
 6773W        W22582  11.738  16.454   1.547 -0.3486  0.2145 -0.1051
 6774W        W22583  12.016  12.009   5.509 -0.0670  0.0089 -0.1271
 6775W        W22584  11.737  10.856  14.976  0.0373 -0.1891  0.1743
 6776W        W22585  11.379  18.469   0.003 -0.3543 -0.0632 -0.0958
 6777W        W22586   0.805   3.773   0.002 -0.2728 -0.2218 -0.0602
 6778W        W22587  12.620   0.435  11.816  0.1330  0.1852 -0.1259
 6779W        W22588  10.800   8.372   0.759 -0.0213 -0.1209 -0.0298
 6780W        W22589  10.948  11.175   4.064  0.0826 -0.0388  0.3161
 6781W        W22590  15.957  18.949  13.642 -0.1259 -0.1240 -0.0300
 6782W        W22591  12.962   2.506  14.294  0.0192  0.0070  0.1758
 6783W        W22592   8.296  11.492   2.618 -0.1398 -0.1780 -0.1950
 6784W        W22593  17.034  15.932   3.251  0.1063  0.1257 -0.2485
 6785W        W22594  11.458   3.019   2.280 -0.0329 -0.1285  0.3567
 6786W        W22595   6.463   1.764   1.624 -0.0380  0.0673  0.2900
 6787W        W22596  10.312   7.717  11.437 -0.0991 -0.2212  0.2166
 6788W        W22597   9.936   3.360   3.210  0.1601  0.0384 -0.0401
 6789W        W22598  11.904   2.911   4.954  0.2125 -0.0136  0.1161
 6790W        W22599   9.462  16.731   3.979 -0.1652  0.0155 -0.2311
 6791W        W22600  12.422   2.776   5.076 -0.4770  0.3715 -0.0327
 6792W        W22601   5.043  17.236   3.850 -0.0831  0.0033  0.1286
 6793W        W22602   7.365  13.247  13.476 -0.3042 -0.2728 -0.0009
 6794W        W22603  12.433   7.482  13.809 -0.0624 -0.2117  0.1476
 6795W        W22604   0.129   5.878  10.481 -0.1594 -0.0885 -0.2679
 6796W        W22605   2.529   8.847  12.646 -0.2124 -0.0623 -0.0468
 6797W        W22606  15.746  11.963   1.718  0.0274 -0.1930 -0.5230
 6798W        W22607   6.786   0.348  13.203 -0.1242 -0.0542  0.2023
 6799W        W22608   0.518   9.594  13.654 -0.0576  0.0051 -0.3201
 6800W        W22609   5.512   6.264   4.488  0.0567  0.1875 -0.0947
 6801W        W22610   7.346  10.507  11.316 -0.1874 -0.1631 -0.1436
 6802W        W22611   0.405  12.768  12.051  0.0744 -0.0670  0.3201
 6803W        W22612  13.991  12.404  15.175 -0.1897  0.1532 -0.0618
 6804W        W22613  18.259  18.833  13.432  0.3373  0.1551 -0.0081
 6805W        W22614  14.331   9.196  13.188 -0.1641  0.2058 -0.0011
 6806W        W22615  11.120  17.093  14.967 -0.3725 -0.2243 -0.0002
 6807W        W22616   1.029   2.760   2.319  0.0883 -0.0683  0.1540
 6808W        W22617   0.633   3.208  14.132  0.2819  0.2413  0.2131
 6809W        W22618   1.233   5.516   4.222 -0.0884 -0.0075 -0.2242
 6810W        W22619  17.305  16.307   5.739 -0.2425 -0.0447  0.1217
 6811W        W22620   6.929  18.781  13.987  0.1683  0.0487 -0.0747
 6812W        W22621  16.027  12.072  11.273  0.0223 -0.2752  0.0404
 6813W        W22622   3.765   0.435  14.282  0.0380 -0.1790  0.3348
 6814W        W22623  14.608   7.796  10.619  0.4415  0.1813 -0.1180
 6815W        W22624   4.646   2.053  14.566 -0.1060 -0.1480  0.0037
 6816W        W22625   5.014   1.994  14.113  0.1010  0.0634 -0.2814
 6817W        W22626  15.066   1.092   0.900  0.2206 -0.0168 -0.1973
 6818W        W22627   6.461  18.119   0.555  0.2930 -0.0985 -0.1887
 6819W        W22628   4.766   2.983  15.090 -0.0022 -0.2108 -0.0912
 6820W        W22629   5.948   1.700  14.945 -0.2046  0.0161 -0.0031
 6821W        W22630  17.773  12.972   1.053  0.2450  0.0041  0.2769
 6822W        W22631  15.607   0.686   1.274  0.1523  0.0539  0.1018
 6823W        W22632   8.073   4.324   3.780 -0.2637  0.2087 -0.1057
 6824W        W22633  12.196   6.844  14.703  0.0942  0.2686 -0.1906
 6825W        W22634   5.412  14.797   1.966 -0.0144  0.3443 -0.2825
 6826W        W22635  15.449  12.251   3.349  0.0978  0.0223  0.0309
 6827W        W22636   5.579   4.529  12.562  0.0656 -0.1655 -0.0107
 6828W        W22637   1.733  13.708  13.880  0.3410 -0.4476 -0.0615
 6829W        W22638  11.259  15.353   2.017 -0.0471 -0.0540 -0.1843
 6830W        W22639  13.057   9.778  14.932  0.0770  0.0322  0.2906
 6831W        W22640  15.555   0.373   4.522  0.3407 -0.1506 -0.0399
 6832W        W22641   8.701  14.311   2.391 -0.1546 -0.0823  0.0760
 6833W        W22642  10.599   0.901  15.079  0.0001  0.0110  0.0115
 6834W        W22643   8.120   2.841   3.627  0.2407 -0.1455 -0.1744
 6835W        W22644   6.412   3.885   1.950 -0.1275 -0.4960  0.1749
 6836W        W22645   2.487  11.712  14.283  0.0919 -0.0144  0.3060
 6837W        W22646   4.469  12.965  13.250  0.1125 -0.1659  0.2097
 6838W        W22647  11.973   7.854  15.055 -0.2494  0.0869  0.0963
 6839W        W22648   2.862   7.854  11.651 -0.1896  0.1190 -0.3011
 6840W        W22649  15.215   8.697   0.974  0.0986  0.3153 -0.0370
 6841W        W22650  13.437  16.522   4.639 -0.0179 -0.3963  0.0985
 6842W        W22651   6.468  18.923   2.618  0.1363  0.1178 -0.3578
 6843W        W22652   9.556  16.864   3.046 -0.0882  0.2021  0.0211
 6844W        W22653  13.454   5.460  15.182 -0.1079 -0.2436 -0.2589
 6845W        W22654   6.886   2.761   2.319  0.1315  0.0596 -0.3085
 6846W        W22655   0.590   9.417  14.569  0.0065 -0.2242 -0.0079
 6847W        W22656   7.296  13.311   2.854 -0.0561 -0.0815 -0.0276
 6848W        W22657   9.337  12.180   3.875  0.0388  0.4334 -0.0080
 6849W        W22658   2.325  18.445   4.560  0.0992  0.0866  0.1821
 6850W        W22659   8.936  17.661   1.652  0.1888  0.0598  0.0477
 6851W        W22660  18.842  11.087  11.544  0.1480  0.0398  0.0928
 6852W        W22661   0.280  12.697   5.236  0.0007  0.3131  0.1036
 6853W        W22662   4.553   3.866   1.877  0.2375 -0.0806  0.2306
 6854W        W22663   6.244   6.143  11.743 -0.1833 -0.3125  0.0710
 6855W        W22664  11.071  11.019   0.274  0.0484  0.1370  0.3036
 6856W        W22665   3.488   3.029  11.765  0.2425 -0.3310 -0.2127
 6857W        W22666   8.893   9.551   0.935 -0.2747 -0.4061 -0.0925
 6858W        W22667  10.209   9.256  15.064 -0.2779 -0.0666  0.1165
 6859W        W22668   3.647   1.773   0.380 -0.1773 -0.1091 -0.0352
 6860W        W22669   4.122  10.393  12.804 -0.1523  0.2782  0.0901
 6861W        W22670   6.475   8.160  12.837  0.2353 -0.2914  0.0838
 6862W        W22671  16.520   4.621   2.900 -0.0962  0.0277 -0.2275
 6863W        W22672  19.033  15.791   5.001 -0.0327 -0.2303  0.2004
 6864W        W22673  15.364   6.932   1.104  0.0631  0.3984  0.0566
 6865W        W22674  15.256  15.011   4.712 -0.0882  0.2909 -0.3128
 6866W        W22675  11.033  18.030   0.192 -0.2906 -0.0866 -0.0385
 6867W        W22676   1.079   7.869  14.231  0.1671 -0.0073  0.0262
 6868W        W22677  15.707   6.555   1.182  0.1701  0.3940  0.0926
 6869W        W22678  13.207  16.189   4.374 -0.2632  0.0031  0.2379
 6870W        W22679  18.539   2.342   5.847  0.1381 -0.0141  0.2575
 6871W        W22680  11.518  15.661  14.019  0.0494 -0.2047  0.0187
 6872W        W22681   4.994   6.767   5.460 -0.2223  0.0009 -0.3147
 6873W        W22682  15.601   7.662  12.021  0.0181 -0.0967 -0.2344
 6874W        W22683  16.117   0.713  13.920 -0.6354 -0.3126  0.1933
 6875W        W22684   6.217  18.291   2.128  0.0384  0.0479  0.0453
 6876W        W22685   9.490   8.862   3.913  0.3613 -0.1670 -0.0501
 6877W        W22686  15.350  15.099  14.189 -0.0129  0.2928 -0.1811
 6878W        W22687  14.589   0.357   2.678 -0.1702 -0.1124  0.0315
 6879W        W22688  13.069   7.546  12.435  0.0200 -0.0322  0.2205
 6880W        W22689  11.433  15.543   0.686  0.1481  0.0875  0.2334
 6881W        W22690   8.052  10.628  15.054  0.0959  0.0928  0.0148
 6882W        W22691  13.112  17.726   3.259 -0.3484  0.1146  0.2039
 6883W        W22692  16.710   9.780  11.412 -0.2641 -0.2182  0.3535
 6884W        W22693   7.220  10.009  14.966  0.0121 -0.2427 -0.2389
 6885W        W22694  10.875   9.669   1.891  0.1131  0.3001 -0.0355
 6886W        W22695  12.132  10.838   9.847 -0.0703  0.0530 -0.2257
 6887W        W22696  19.016   4.916   4.471 -0.0130  0.1040 -0.1815
 6888W        W22697   6.275   9.046  11.244  0.1438  0.1889  0.5117
 6889W        W22698   8.562  16.531   3.838  0.1188  0.0073  0.1154
 6890W        W22699  13.250   6.531  15.183 -0.3124  0.3169 -0.1189
 6891W        W22700  18.253   7.128   0.594 -0.0708 -0.0169  0.0736
 6892W        W22701  17.589   3.875   5.189  0.2648  0.2846 -0.1344
 6893W        W22702  16.677   6.784   3.331 -0.1544 -0.1127 -0.0619
 6894W        W22703   5.178   6.299   1.939  0.0888 -0.1879 -0.3412
 6895W        W22704  15.256   8.171  12.783  0.1134  0.0580 -0.4583
 6896W        W22705   8.053  12.198   3.734 -0.0400  0.1288  0.0014
 6897W        W22706  13.414  12.397  13.524 -0.2773  0.0713  0.1957
 6898W        W22707   0.901  18.411   2.283 -0.0937  0.0505 -0.1326
 6899W        W22708   4.464   5.316  11.820  0.0304 -0.2518 -0.1923
 6900W        W22709   5.509   2.769  11.664  0.0969  0.2788  0.0299
 6901W        W22710  15.805   7.764   2.348  0.1470 -0.1136  0.1812
 6902W        W22711  16.508   5.244   5.984 -0.2743  0.0698 -0.3623
 6903W        W22712  18.869  18.462   5.019  0.0943 -0.3122 -0.1919
 6904W        W22713   1.320  11.301   1.477  0.0024 -0.1449 -0.2935
 6905W        W22714   5.792   9.972   0.432  0.2757  0.2155  0.1979
 6906W        W22715  13.789  13.475   2.486 -0.3597  0.2516 -0.0413
 6907W        W22716  17.481  14.400  13.285  0.2183 -0.1822  0.1019
 6908W        W22717   5.782  13.914   5.615  0.0715  0.0580  0.1104
 6909W        W22718  15.799  14.169  11.879  0.0419  0.0687  0.1374
 6910W        W22719  11.641  15.863  12.694 -0.0291  0.1781 -0.0380
 6911W        W22720   5.534   9.198   2.399 -0.2262  0.2489  0.0118
 6912W        W22721   5.351  11.218  10.607  0.0372 -0.1449  0.5232
 6913W        W22722  12.055  18.015  13.401 -0.0731  0.1865 -0.2549
 6914W        W22723  12.387   2.566  12.049  0.0664  0.1368 -0.0428
 6915W        W22724   4.279  11.230   1.345 -0.2066  0.0530  0.2094
 6916W        W22725  16.677   4.196  11.827 -0.2214 -0.2225  0.0894
 6917W        W22726   5.040   2.577   3.408  0.0932  0.0456 -0.1165
 6918W        W22727   8.056   8.753  12.714  0.0704 -0.1026 -0.1396
 6919W        W22728  15.438  13.036   3.257 -0.1184 -0.0151 -0.3565
 6920W        W22729  18.018   8.892   3.948  0.3917  0.1602 -0.1844
 6921W        W22730   7.839  16.705   0.639 -0.0512  0.2175 -0.2022
 6922W        W22731  10.614   9.349   4.731 -0.3710  0.0962 -0.0517
 6923W        W22732   4.447  13.043  11.929 -0.1170  0.2691  0.1398
 6924W        W22733  15.297  10.095  15.092 -0.3221  0.2437 -0.0572
 6925W        W22734   3.580   4.790   0.857  0.2028 -0.1551 -0.3299
 6926W        W22735   2.877   1.591  15.079 -0.1145  0.1677 -0.2977
 6927W        W22736  10.713   4.801   2.452 -0.0856 -0.1518 -0.1203
 6928W        W22737   2.109   1.611   3.788 -0.0898 -0.1873 -0.1549
 6929W        W22738  15.340   3.155   2.426  0.1404 -0.0919 -0.1206
 6930W        W22739   7.096   3.008   3.001 -0.1895 -0.0863 -0.0098
 6931W        W22740   3.628  17.579   3.716 -0.1008 -0.1009  0.3744
 6932W        W22741   8.717  12.389  14.116 -0.0635 -0.1176 -0.1100
 6933W        W22742  15.590   2.409  14.757 -0.0346 -0.2353  0.0977
 6934W        W22743  11.713  14.993  11.400  0.0747  0.1974 -0.0222
 6935W        W22744  11.614  17.565   2.859  0.1188 -0.2333  0.0224
 6936W        W22745  11.476   0.914  13.940 -0.2150 -0.0571 -0.1503
 6937W        W22746  18.198  16.213   3.992 -0.0711 -0.1868  0.3192
 6938W        W22747  10.484   4.960   2.020 -0.0781  0.0422 -0.0047
 6939W        W22748  13.319   2.608   0.029 -0.0709 -0.1970  0.0422
 6940W        W22749  15.875   0.441   4.860  0.0590  0.2022  0.1152
 6941W        W22750  14.078  17.203  15.272  0.1601  0.3213 -0.1413
 6942W        W22751   0.404  18.932   0.005  0.2528 -0.1624 -0.0121
 6943W        W22752   5.417  14.933   0.983  0.2139 -0.1133  0.3656
 6944W        W22753   4.309  13.909  13.602  0.1670  0.2372  0.1850
 6945W        W22754  15.560   8.496   1.966  0.1142  0.3450  0.0198
 6946W        W22755  17.702   7.557   1.674 -0.1080 -0.1059 -0.0217
 6947W        W22756   0.313   0.654   5.151 -0.0580  0.4129  0.1160
 6948W        W22757  12.430   9.949   1.300 -0.1814 -0.0958  0.0999
 6949W        W22758   7.965   8.248   1.437 -0.1357  0.0445  0.2024
 6950W        W22759   8.887  10.239  14.755 -0.2637 -0.0325  0.2390
 6951W        W22760  14.723   1.629  14.442 -0.1490  0.1672  0.0878
 6952W        W22761   8.217  14.971  14.019 -0.0964 -0.2480  0.1246
 6953W        W22762  16.244   3.845   2.237 -0.0057 -0.0567  0.0904
 6954W        W22763  16.316   6.018  14.062 -0.1161 -0.1234 -0.0891
 6955W        W22764   6.260   6.303   2.678  0.0436  0.1112  0.0564
 6956W        W22765   0.428  18.137   3.432 -0.0346  0.1167 -0.0625
 6957W        W22766   5.633   3.351  11.332 -0.1727 -0.1005 -0.3094
 6958W        W22767   1.124   1.679   4.878  0.1134 -0.2756 -0.3026
 6959W        W22768   4.046  12.522   2.117 -0.0701 -0.0059 -0.1903
 6960W        W22769   4.811   9.896   1.803  0.2923 -0.1309 -0.2703
 6961W        W22770  11.104  15.321  14.243 -0.3480 -0.0221  0.0784
 6962W        W22771  14.599   1.646  13.987 -0.0194 -0.2756  0.2426
 6963W        W22772   7.971   8.469  13.352 -0.1604 -0.2001 -0.1226
 6964W        W22773   1.247   6.459   1.117  0.0086  0.3349  0.1112
 6965W        W22774  16.452   5.866  13.080 -0.0367  0.2936  0.2481
 6966W        W22775   1.992   2.797   4.272 -0.2552  0.3022  0.2349
 6967W        W22776  11.904  13.561   5.865  0.0417 -0.0878 -0.1407
 6968W        W22777  10.650   8.414   3.125  0.0251 -0.0885 -0.0565
 6969W        W22778   4.216   8.437  10.602  0.0757 -0.0031 -0.0905
 6970W        W22779  11.027   4.180  11.044  0.0979  0.0987  0.0677
 6971W        W22780  17.947  10.979  12.014 -0.0187 -0.2290  0.2710
 6972W        W22781   9.208  18.880   4.906 -0.3233  0.3733 -0.0991
 6973W        W22782   1.962   4.635   3.607  0.2513  0.1635 -0.1907
 6974W        W22783   7.568  14.905   0.260 -0.2468 -0.2165  0.1577
 6975W        W22784  10.937  13.606  13.753 -0.1493 -0.0880  0.3323
 6976W        W22785   5.906  15.952  14.748  0.1250  0.3320 -0.2355
 6977W        W22786   0.455  14.412   1.268  0.0856 -0.0167 -0.0342
 6978W        W22787   5.453   2.081   0.708  0.1088  0.3662  0.4203
 6979W        W22788  17.376  14.524   1.105  0.0277  0.3305 -0.0045
 6980W        W22789  16.388  11.602  13.502 -0.2250  0.2001 -0.1290
 6981W        W22790  12.255  15.423  14.068  0.0690 -0.0057  0.0517
 6982W        W22791  17.677   5.733  11.341  0.0841 -0.0375 -0.1466
 6983W        W22792  18.506  15.240   2.579 -0.1664 -0.0170 -0.1476
 6984W        W22793  17.092   4.990  11.572 -0.2555  0.3312 -0.0440
 6985W        W22794  17.265  13.379   1.917 -0.3865  0.2729 -0.1095
 6986W        W22795   8.900   4.102   4.075 -0.1423 -0.3530  0.3262
 6987W        W22796  10.498  16.983  11.812  0.2333  0.0175 -0.1690
 6988W        W22797  13.713   8.264   2.366  0.2246  0.1163  0.2551
 6989W        W22798   1.687   8.262  12.830  0.0926 -0.1111 -0.0235
 6990W        W22799  17.854  18.913   5.915 -0.1794  0.1655 -0.1439
 6991W        W22800  16.204  12.921   5.113  0.0202  0.1170 -0.2165
 6992W        W22801   8.599   8.649  12.236 -0.1839 -0.0165  0.1061
 6993W        W22802  17.894   2.042   0.062  0.0979  0.0733 -0.0288
 6994W        W22803  16.883   8.155  14.728  0.3186 -0.0094  0.4682
 6995W        W22804   6.626   1.346   4.700 -0.2246  0.2757  0.4324
 6996W        W22805  17.574   0.938   0.289 -0.1972 -0.0728  0.2088
 6997W        W22806  10.958  15.476   3.943  0.0836 -0.0838  0.0338
 6998W        W22807  15.447  13.193  10.698  0.2079  0.0425  0.0345
 6999W        W22808  18.636  18.282  14.321 -0.1219 -0.1157 -0.1322
 7000W        W22809   8.219  14.932   4.452 -0.2895 -0.3576  0.0437
 7001W        W22810   3.881   4.852  12.453  0.0240  0.0425  0.1350
 7002W        W22811   7.636   7.420  12.452  0.0032  0.0904  0.0287
 7003W        W22812   2.285   8.751  10.943 -0.1105 -0.0599  0.2507
 7004W        W22813   1.081   2.338  15.071  0.1164 -0.1692 -0.0862
 7005W        W22814   9.013  18.956  12.526 -0.2034 -0.1453 -0.1116
 7006W        W22815  18.605   6.422   6.468  0.1034 -0.2557  0.0909
 7007W        W22816  17.875  14.731  13.339  0.0235  0.0394  0.2072
 7008W        W22817   6.169   4.592   2.773 -0.3102  0.4635  0.2751
 7009W        W22818   2.627  12.110   0.465  0.2491 -0.1889  0.1352
 7010W        W22819  18.545  16.322  12.173 -0.0683 -0.3251 -0.1484
 7011W        W22820  17.636  13.426  13.068 -0.3735 -0.1344 -0.1048
 7012W        W22821   3.142  12.219  11.843  0.0869  0.0435  0.0785
 7013W        W22822   2.724   4.487   0.136  0.3420 -0.0379 -0.2059
 7014W        W22823  13.893   8.550  10.322 -0.2925  0.0072 -0.0426
 7015W        W22824   6.056   8.889   2.912  0.1164  0.1450  0.1681
 7016W        W22825   7.784   9.817  10.250 -0.1011  0.3903  0.2349
 7017W        W22826   8.184   5.459   0.579  0.0022  0.2235 -0.3501
 7018W        W22827   4.374  11.681   3.582  0.0371 -0.0356  0.0096
 7019W        W22828  11.344  17.587  14.264  0.2855 -0.1287  0.3060
 7020W        W22829  16.986  12.154  14.057  0.1153 -0.1311  0.2092
 7021W        W22830  18.798   6.265  13.653 -0.0154  0.1712  0.1973
 7022W        W22831   8.577  15.332  13.392 -0.0908  0.2716 -0.2993
 7023W        W22832  18.875   9.778  14.223  0.0301  0.0218 -0.2932
 7024W        W22833  18.069  17.231   4.944 -0.0727  0.0844  0.0170
 7025W        W22834   9.348   6.782  11.930 -0.1623 -0.0935 -0.1928
 7026W        W22835   4.524  15.145   3.241  0.3820  0.2738 -0.2655
 7027W        W22836  17.130   9.518   5.249  0.0875  0.4413  0.0651
 7028W        W22837  13.079   5.380   3.273 -0.0676 -0.0254  0.0112
 7029W        W22838   9.656   5.671  13.995 -0.3819 -0.1790 -0.1901
 7030W        W22839   8.949   5.348   4.258  0.1211  0.1166 -0.2165
 7031W        W22840   1.186   6.625  10.973  0.0849  0.0349  0.3788
 7032W        W22841  13.409   5.449   1.366  0.0481 -0.3604 -0.2524
 7033W        W22842   3.504  12.575  11.568 -0.3205 -0.1946  0.1936
 7034W        W22843   3.181  18.865   2.994 -0.2799  0.2396  0.0127
 7035W        W22844  17.695   5.465   2.648 -0.2376  0.1826  0.0635
 7036W        W22845  11.821  10.551   1.002  0.0818  0.0105 -0.3839
 7037W        W22846   1.844  18.848  13.655  0.1158 -0.1777 -0.2278
 7038W        W22847  17.863   2.430  11.406 -0.1095  0.0313 -0.1935
 7039W        W22848   4.730  14.217  12.370  0.1385  0.3035  0.2238
 7040W        W22849  11.030  14.939  13.613  0.1061  0.0361  0.1617
 7041W        W22850   2.075   6.580   1.899 -0.3425  0.1059 -0.2483
 7042W        W22851  10.820   1.676  12.394 -0.1945 -0.2744  0.3782
 7043W        W22852   6.699  13.377  15.215  0.2333 -0.0735  0.0253
 7044W        W22853  12.943  13.981   0.367  0.0820 -0.0718  0.2050
 7045W        W22854  16.302  13.454   1.486 -0.1664  0.0928  0.1078
 7046W        W22855   3.998   8.277  11.632 -0.0650 -0.1927 -0.0953
 7047W        W22856   2.233   5.317  11.302 -0.4419  0.1382 -0.1553
 7048W        W22857   8.747   2.932   1.027 -0.3682  0.0309 -0.1804
 7049W        W22858  16.845  17.389   5.039  0.0358 -0.2624  0.2096
 7050W        W22859  16.826   4.655  14.305 -0.1061  0.2033  0.1905
 7051W        W22860  12.649  11.136   0.773  0.0245  0.2181 -0.1461
 7052W        W22861   0.797   0.866   0.742  0.2165 -0.1575  0.0806
 7053W        W22862  18.653   3.009  11.944  0.0789  0.2882 -0.1574
 7054W        W22863  10.681  12.003   5.263 -0.3765 -0.0383 -0.1240
 7055W        W22864  12.780  13.652   1.464  0.1218  0.0459 -0.3040
 7056W        W22865  15.205   3.433  10.348 -0.3505 -0.0528 -0.2388
 7057W        W22866  17.865  15.957   2.154  0.0974 -0.1093  0.1574
 7058W        W22867  12.577   0.984   4.027  0.2272 -0.0973 -0.0758
 7059W        W22868   2.978  15.114   5.351  0.0019  0.0938 -0.0548
 7060W        W22869   3.707  14.489  13.021 -0.1636 -0.0566 -0.2540
 7061W        W22870   0.424  16.783   3.700  0.0974 -0.2726 -0.0192
 7062W        W22871   5.145   6.510  11.508 -0.0652  0.0096 -0.0052
 7063W        W22872   8.247   0.987   9.497  0.0315 -0.2456  0.1641
 7064W        W22873   0.058  16.283  14.941  0.0485 -0.1068  0.0384
 7065W        W22874   5.512   9.013  11.905 -0.0391  0.0716 -0.2068
 7066W        W22875  15.830   3.086  11.570 -0.1953  0.0906 -0.1833
 7067W        W22876  14.003   4.468  12.561  0.1833  0.0575  0.0933
 7068W        W22877   5.713  13.317   3.598 -0.2029 -0.1608  0.0449
 7069W        W22878   1.618   4.954  14.761 -0.3045 -0.1920  0.0160
 7070W        W22879  16.508   2.969  11.577  0.2837 -0.1137  0.2376
 7071W        W22880   8.807  17.379   2.036  0.1031  0.3098 -0.0870
 7072W        W22881  11.883  14.621  13.092 -0.5021 -0.0872  0.1391
 7073W        W22882  11.409   0.980  11.952 -0.0358 -0.0740 -0.0103
 7074W        W22883   9.685   3.537  14.196 -0.3154 -0.0329 -0.0036
 7075W        W22884   1.967   5.469   1.908 -0.0731  0.0792 -0.0533
 7076W        W22885  16.296   8.962  10.451 -0.1882 -0.1491 -0.0218
 7077W        W22886   5.678  18.363   3.386 -0.0880 -0.0313  0.0071
 7078W        W22887   9.732  18.221  11.343  0.1180  0.3410 -0.2869
 7079W        W22888   9.183   6.677   3.385  0.3984 -0.2841  0.1576
 7080W        W22889   8.036   7.220   3.886 -0.2734 -0.2794  0.0407
 7081W        W22890   0.728  13.630  15.103 -0.0310 -0.3115  0.1326
 7082W        W22891  14.900  16.732  11.452  0.0523 -0.2361  0.1111
 7083W        W22892  14.864   3.858   5.500  0.1248 -0.0778 -0.0891
 7084W        W22893   2.857   2.086  14.329  0.0031 -0.0787 -0.4819
 7085W        W22894  13.440  15.323   0.328 -0.1522 -0.0646 -0.0660
 7086W        W22895   2.111   6.355  11.672 -0.1752 -0.2016  0.1128
 7087W        W22896   1.424  13.453   0.563  0.2459 -0.1865 -0.1669
 7088W        W22897   8.723  14.497   3.637  0.1732  0.1634 -0.1484
 7089W        W22898   5.187   9.130  12.644 -0.1021  0.2804  0.1449
 7090W        W22899  13.716  13.550   3.775  0.1155  0.0027  0.0574
 7091W        W22900  11.547   0.611   0.571  0.0040  0.0739  0.2049
 7092W        W22901  11.080  13.759  15.172 -0.1434 -0.4055  0.0970
 7093W        W22902   6.000  10.823  14.048 -0.0291  0.1789  0.2635
 7094W        W22903   7.538  13.844  13.476  0.1986  0.0496  0.1101
 7095W        W22904  14.509   4.532  12.527 -0.4774  0.2700  0.1852
 7096W        W22905   7.752   1.578  11.264 -0.4003  0.0357 -0.4445
 7097W        W22906  11.878  10.990   5.098  0.1236 -0.0891  0.0721
 7098W        W22907  18.514  10.502   0.686 -0.1517 -0.0488  0.2091
 7099W        W22908   4.228  16.044  13.122  0.3399 -0.1151  0.3123
 7100W        W22909   3.239   2.314  12.279 -0.0765 -0.0660  0.0423
 7101W        W22910   9.135  14.264   9.909  0.2844  0.1927 -0.0529
 7102W        W22911  11.634   8.007  13.539  0.0360  0.0083  0.1677
 7103W        W22912  12.472   5.622  13.775  0.0166  0.1080 -0.1093
 7104W        W22913  16.275  17.653   2.294  0.0208  0.1894 -0.0164
 7105W        W22914  10.969   4.793  12.670  0.0357  0.0423 -0.2801
 7106W        W22915  14.585  12.437  12.920 -0.0655 -0.1151  0.1940
 7107W        W22916   8.001  17.976  12.009 -0.0414  0.1282 -0.1010
 7108W        W22917   0.663   2.648   3.944 -0.3923  0.3734 -0.1773
 7109W        W22918   7.307  16.445   3.430  0.0722 -0.1551  0.0402
 7110W        W22919  10.806  12.185   2.271 -0.1620 -0.4681 -0.0578
 7111W        W22920  10.321   1.137   3.840  0.0482  0.2271 -0.2157
 7112W        W22921  10.058  17.316   0.561  0.1410 -0.2149  0.0589
 7113W        W22922   8.959   5.315   3.152  0.0494  0.1933 -0.1049
 7114W        W22923   0.975   2.576  12.089  0.2725 -0.0195 -0.2141
 7115W        W22924  12.403   3.985  10.845  0.2433 -0.0835 -0.0694
 7116W        W22925   3.726   4.965  14.850 -0.0248  0.2551 -0.0550
 7117W        W22926  16.879   4.988   3.738 -0.1703  0.1305  0.4493
 7118W        W22927  15.232  10.559   5.464 -0.0685  0.1263 -0.1456
 7119W        W22928  14.286   9.842  11.772 -0.0476 -0.0056  0.1162
 7120W        W22929   8.206   9.486   5.654 -0.1650  0.2737 -0.3557
 7121W        W22930   1.693   2.251  15.128 -0.2559 -0.4860 -0.1475
 7122W        W22931   4.880   6.050  11.176  0.0523  0.3905  0.0624
 7123W        W22932   9.037   3.668  11.976  0.3031 -0.2790  0.0974
 7124W        W22933  18.101  11.543  14.946 -0.0068 -0.2311  0.0743
 7125W        W22934   1.257  15.111  12.978  0.0946  0.4731  0.2933
 7126W        W22935  14.023  14.303  14.379 -0.2161  0.2204 -0.1797
 7127W        W22936  15.513   8.743  10.487 -0.4619 -0.1692  0.0984
 7128W        W22937   2.774  18.008   3.003  0.3661 -0.3920  0.0091
 7129W        W22938   3.062  14.355   5.045 -0.2153  0.2192  0.3635
 7130W        W22939   8.983   7.258   2.945 -0.1414  0.0902 -0.2033
 7131W        W22940  12.157  10.161   4.753  0.1522  0.0154  0.2437
 7132W        W22941   4.597   8.776   2.023  0.0228  0.1370  0.1034
 7133W        W22942  18.568  15.921   4.244 -0.0242  0.1038  0.4278
 7134W        W22943  17.672   5.624   2.157 -0.2383  0.2166  0.0009
 7135W        W22944  15.447   1.879   5.278  0.0462  0.1697 -0.3131
 7136W        W22945  18.983  14.715   5.297 -0.1571  0.0031  0.1662
 7137W        W22946  10.151  12.058  11.328 -0.2353  0.0365 -0.1236
 7138W        W22947   8.862   3.079   9.703  0.0764  0.0164  0.0125
 7139W        W22948  14.814   7.523   4.234 -0.0169 -0.0899 -0.2356
 7140W        W22949   1.201   6.123  13.834  0.1463 -0.0160 -0.1390
 7141W        W22950   0.579  10.627  14.061  0.0712  0.3346 -0.0654
 7142W        W22951  14.866   1.957   1.663 -0.1774 -0.0736  0.1152
 7143W        W22952   1.817   1.281   4.097  0.0711  0.1708 -0.1606
 7144W        W22953   4.835  14.125   1.967 -0.2214 -0.1424  0.1525
 7145W        W22954   1.934   5.144   3.395 -0.1681 -0.0147  0.0106
 7146W        W22955   9.091   0.882  13.105  0.0289  0.0457  0.1180
 7147W        W22956   9.308  18.840  12.149  0.1430 -0.0319 -0.1782
 7148W        W22957   7.196   0.514  10.821 -0.0365 -0.1747 -0.1073
 7149W        W22958   8.066   6.762   0.799 -0.0194 -0.3826  0.4249
 7150W        W22959  12.519   8.232   1.019 -0.1061 -0.0160  0.1423
 7151W        W22960   4.404   1.307  12.876 -0.1612 -0.3315  0.1118
 7152W        W22961  15.302  11.982   0.912  0.1733 -0.1433  0.1829
 7153W        W22962   7.480   2.354   1.896 -0.0032 -0.0159 -0.1090
 7154W        W22963   0.977   7.401  12.241  0.0487 -0.0634 -0.0364
 7155W        W22964  13.760  12.673   4.300 -0.2034 -0.0932  0.2169
 7156W        W22965  11.752   7.170  12.414  0.0094 -0.0773 -0.0883
 7157W        W22966   1.572  18.585   2.715 -0.2588 -0.2015  0.0394
 7158W        W22967   4.931   6.783   2.068 -0.0555  0.1751 -0.2164
 7159W        W22968   7.357   4.537  12.469 -0.1252  0.1800 -0.0760
 7160W        W22969   0.881   6.272   4.678  0.3846  0.1249 -0.3320
 7161W        W22970  13.849  13.664   1.593  0.1908  0.1342  0.2794
 7162W        W22971   7.374   7.247   3.600  0.1953 -0.2298  0.0543
 7163W        W22972  14.353   9.769   3.866 -0.0465 -0.0579  0.1591
 7164W        W22973   7.646   6.193  11.546 -0.2140 -0.0514  0.2623
 7165W        W22974  15.421   1.760   0.421  0.1144  0.1394 -0.1235
 7166W        W22975   6.838  16.929   3.869 -0.2223 -0.0905 -0.1327
 7167W        W22976  12.447   2.842  13.755  0.0588 -0.1885 -0.0714
 7168W        W22977  10.251  12.824  10.849 -0.3749 -0.0761 -0.0544
 7169W        W22978   1.967   7.324  10.672  0.1033  0.1083 -0.0364
 7170W        W22979  16.250   8.385  11.676  0.4343 -0.0315  0.1787
 7171W        W22980   2.075  11.636   4.291  0.1081  0.1137 -0.0335
 7172W        W22981  18.786   9.480  14.804  0.0627  0.3620 -0.0813
 7173W        W22982  11.999   3.167  11.151  0.0828 -0.0598 -0.0966
 7174W        W22983  12.435   6.217  11.148 -0.2471  0.1995 -0.2213
 7175W        W22984   0.180  16.846  10.324 -0.1650  0.0866 -0.4989
 7176W        W22985   6.832   8.799   9.037  0.1526  0.3151 -0.4048
 7177W        W22986  10.260  19.011   0.781 -0.0768  0.1671  0.0908
 7178W        W22987  18.724  16.888  10.284  0.1908  0.0139 -0.0616
 7179W        W22988   0.061  11.482   2.457  0.1149  0.2441 -0.4088
 7180W        W22989   6.918   9.941   1.296  0.0628 -0.2847 -0.1236
 7181W        W22990   7.047  16.219  10.606 -0.1116  0.2955 -0.0127
 7182W        W22991   0.209   6.372   0.492  0.1496 -0.0056 -0.1330
 7183W        W22992  11.238  16.493  13.435 -0.4718  0.2406 -0.0426
 7184W        W22993   4.784   5.871   5.625  0.0934  0.0099 -0.0965
 7185W        W22994   1.671  12.477  10.826  0.1935 -0.2274  0.1239
 7186W        W22995   3.836  15.939  13.625 -0.0360  0.3128 -0.1799
 7187W        W22996  17.039  15.395   5.416  0.1341 -0.4271 -0.3695
 7188W        W22997  18.023  12.718   4.853 -0.0879  0.4510  0.1004
 7189W        W22998   7.680   4.330   3.001 -0.1800  0.0744  0.0645
 7190W        W22999  16.942   3.606  12.121  0.0399  0.1534 -0.1961
 7191W        W23000  16.028  17.852  13.100  0.0071 -0.2336 -0.1138
 7192W        W23001  14.181  10.689  10.998 -0.2088  0.0719  0.0325
 7193W        W23002  11.953   2.862   2.015  0.0159  0.0315 -0.4421
 7194W        W23003   6.820   3.600  10.713 -0.1976  0.2340  0.1466
 7195W        W23004   5.516   1.789  14.286 -0.0838  0.1829 -0.1069
 7196W        W23005   9.806  13.649  12.076  0.0033 -0.3233  0.0853
 7197W        W23006   9.143   4.819  13.308  0.2754 -0.0467  0.2751
 7198W        W23007   0.327   8.148  12.548  0.1987 -0.0306  0.3178
 7199W        W23008   2.286  17.964  11.699 -0.0552  0.2509 -0.1425
 7200W        W23009   0.344  16.931  13.847  0.1947 -0.0743  0.1943
 7201W        W23010   8.504   3.667  12.612  0.0836  0.3304  0.2759
 7202W        W23011  15.052  18.589  13.241 -0.0144  0.3440  0.1307
 7203W        W23012   3.399  16.278   3.399  0.2533  0.0765  0.0467
 7204W        W23013   7.824   3.641   2.853  0.0322 -0.1186  0.0010
 7205W        W23014   0.984   2.116  13.809 -0.3056 -0.1396  0.0731
 7206W        W23015  16.526   7.318   6.145  0.0704  0.1511 -0.1560
 7207W        W23016  17.388  15.786   5.153  0.4360  0.0977  0.0620
 7208W        W23017  15.636   6.069   1.429 -0.1720 -0.1052 -0.3340
 7209W        W23018   4.286   4.169   5.395  0.1590  0.4908 -0.1876
 7210W        W23019  10.892   2.712   5.526  0.0361 -0.3046 -0.0989
 7211W        W23020  16.645   1.338   2.887 -0.1918 -0.2100  0.0344
 7212W        W23021   5.729  13.510  11.032 -0.0865  0.0216 -0.1732
 7213W        W23022   4.410  14.999  11.101 -0.1285  0.1545 -0.0228
 7214W        W23023  11.131  10.524  14.535  0.0980 -0.0434  0.3540
 7215W        W23024  16.853  17.347   6.112  0.0921 -0.3352  0.0635
 7216W        W23025  11.057   4.966  12.178 -0.0281 -0.0906  0.0326
 7217W        W23026   7.960  18.684  14.182  0.2224 -0.0732 -0.0860
 7218W        W23027   6.773   6.462   0.545 -0.1893  0.2506  0.1540
 7219W        W23028   7.179  11.026  15.234  0.1684 -0.3543  0.0166
 7220W        W23029  11.540   9.720  11.029 -0.1205  0.0433  0.0732
 7221W        W23030  11.258  16.407  13.995 -0.0694  0.1130  0.1444
 7222W        W23031   1.196  10.149   3.844  0.2494  0.0337  0.1357
 7223W        W23032   0.145   7.848   0.431 -0.3972 -0.0793 -0.0989
 7224W        W23033   2.110   6.691   9.972  0.0435 -0.0981 -0.1815
 7225W        W23034   4.660   5.692   4.832 -0.2707  0.2059 -0.2649
 7226W        W23035  15.576   1.589   4.357  0.2745 -0.0739  0.0777
 7227W        W23036   0.008   5.802   4.311  0.0042 -0.0284  0.0539
 7228W        W23037   2.901  10.653   2.319 -0.1019 -0.3420  0.0045
 7229W        W23038   3.296   7.368   0.063  0.1250 -0.1089 -0.2020
 7230W        W23039   4.955  18.815  13.192 -0.2395  0.3932  0.0134
 7231W        W23040  16.916   1.142  12.487  0.0728  0.0243 -0.1801
 7232W        W23041  17.986  11.908  14.253  0.1733 -0.1624 -0.2032
 7233W        W23042   9.390  17.001  12.358  0.0683  0.2634  0.0869
 7234W        W23043  11.323   1.955  11.013  0.2648  0.1062  0.1945
 7235W        W23044  12.440  12.110   5.792 -0.1579 -0.0072 -0.1032
 7236W        W23045   6.831   7.642   4.487  0.1324 -0.0888 -0.0712
 7237W        W23046   9.343  11.015   4.840  0.0334  0.1522 -0.0815
 7238W        W23047   9.827   8.419   9.457  0.0204 -0.0683  0.0902
 7239W        W23048  11.498   2.092   4.502 -0.0212  0.0185 -0.2749
 7240W        W23049  18.946   2.363  12.145 -0.1081 -0.1936  0.1552
 7241W        W23050   6.062  11.855  14.416  0.2067 -0.2226  0.1902
 7242W        W23051   6.924  15.636  13.735  0.0224 -0.1173  0.0035
 7243W        W23052  17.752  13.110  12.047 -0.0483 -0.3046 -0.1059
 7244W        W23053   7.016   6.218  14.976 -0.0665 -0.0768  0.2028
 7245W        W23054  12.130  17.539  12.616 -0.1669 -0.0017 -0.2552
 7246W        W23055   0.340  17.167   0.285  0.1894  0.0039  0.0398
 7247W        W23056   8.683  11.033  14.265 -0.0460 -0.0774  0.0195
 7248W        W23057  15.097   9.462  12.138 -0.0673 -0.0516  0.1803
 7249W        W23058   1.033  16.693   5.196 -0.2148  0.2117 -0.2889
 7250W        W23059   5.199   3.175  11.539 -0.0821 -0.1521  0.0867
 7251W        W23060  11.021   1.554   3.737 -0.0729 -0.0477 -0.1615
 7252W        W23061  11.341  15.880  11.875  0.0720  0.1013  0.5112
 7253W        W23062  14.990   8.917   0.538 -0.0500  0.1636 -0.0709
 7254W        W23063   5.531  11.681  10.621 -0.1190  0.1262  0.0329
 7255W        W23064  13.927  10.572  14.096 -0.0352 -0.2151  0.5395
 7256W        W23065   7.953  12.984   1.531  0.0362 -0.0825  0.1889
 7257W        W23066   3.428  17.933   2.276 -0.0498 -0.1653 -0.3999
 7258W        W23067   9.278  17.981   3.947 -0.1373  0.1454 -0.0750
 7259W        W23068   9.666   6.123   4.591 -0.2275 -0.0917 -0.0680
 7260W        W23069   2.060  15.410  13.478  0.0978  0.3071  0.3143
 7261W        W23070  10.331  14.975  13.143 -0.1329 -0.2208  0.0866
 7262W        W23071  14.047   3.792  13.285  0.0694 -0.0466 -0.1124
 7263W        W23072   0.766  15.537  11.555  0.3497 -0.1263  0.1227
 7264W        W23073   0.427  12.317  11.586  0.5210 -0.0578 -0.0252
 7265W        W23074  18.052   1.268  14.319  0.1749  0.0409  0.3117
 7266W        W23075  12.289  15.837   3.654  0.0826  0.0997 -0.0968
 7267W        W23076  15.988  17.309   4.563 -0.0062  0.1974 -0.3070
 7268W        W23077   8.925   7.481  13.773  0.2663 -0.0017 -0.0648
 7269W        W23078   4.025   8.341   4.210  0.0252 -0.2258  0.0803
 7270W        W23079   7.743  16.167  12.349 -0.1091 -0.0320  0.1212
 7271W        W23080   6.979   7.305   2.386  0.0926  0.1554  0.2568
 7272W        W23081  12.343  11.320  11.713 -0.3469  0.2149 -0.0285
 7273W        W23082   2.890   3.644   2.918 -0.1771  0.2960  0.0717
 7274W        W23083  19.022  14.810  12.562 -0.1993  0.0797  0.4403
 7275W        W23084   1.144  10.610  11.565  0.0769 -0.0101  0.0013
 7276W        W23085   4.124   7.151   4.216 -0.2407 -0.1308  0.0095
 7277W        W23086   2.517  15.687  13.474 -0.2508  0.2971  0.0347
 7278W        W23087   9.999   8.308   9.964 -0.3779 -0.4877  0.0218
 7279W        W23088  12.972  12.096   1.531 -0.1443  0.0128  0.1554
 7280W        W23089   0.981  18.990  14.150 -0.1656 -0.1823 -0.5268
 7281W        W23090   5.300  13.990  13.769  0.3150 -0.1578 -0.0263
 7282W        W23091   3.720   3.452  13.524  0.0604  0.0926  0.0226
 7283W        W23092  12.066   7.126   9.693 -0.1794  0.1087  0.1258
 7284W        W23093  16.202   7.236  14.390  0.0443 -0.1048 -0.3169
 7285W        W23094   5.721  15.410  11.375  0.1345  0.0415  0.0371
 7286W        W23095  11.652  13.707  10.220 -0.1763  0.0704 -0.0384
 7287W        W23096  10.713  16.306   0.806 -0.0824  0.3817 -0.1478
 7288W        W23097  12.672  11.024  12.440  0.0479 -0.2388 -0.1300
 7289W        W23098   0.978   0.709  15.098  0.2470 -0.0829 -0.2185
 7290W        W23099   7.212  10.312   4.318  0.2259  0.3824 -0.0503
 7291W        W23100   7.697   9.151   2.868  0.1052 -0.2319  0.0752
 7292W        W23101   1.827  18.258  13.037  0.0582  0.2668  0.0705
 7293W        W23102   4.624   1.615   1.255 -0.1320  0.3021 -0.1011
 7294W        W23103   9.406   1.987   2.454  0.1107 -0.0965  0.3494
 7295W        W23104  13.473   1.474   5.575  0.2754  0.1936  0.0300
 7296W        W23105  16.088  11.743  14.434  0.1668 -0.0397  0.1877
 7297W        W23106   9.673   9.756   3.652  0.0787  0.0878  0.1339
 7298W        W23107  17.095   2.876  10.739 -0.1100  0.1900  0.1783
 7299W        W23108  10.326  12.949   0.614 -0.2258 -0.2529 -0.2064
 7300W        W23109  17.874  11.354   2.681 -0.2264 -0.0821 -0.1911
 7301W        W23110  10.220  10.133   4.893 -0.0575  0.1529 -0.0055
 7302W        W23111  16.771   1.692  13.220 -0.0826  0.0135 -0.0266
 7303W        W23112   2.751   9.283  11.267  0.1847  0.1169 -0.1676
 7304W        W23113  15.339   5.244   4.444 -0.2512  0.2048 -0.1920
 7305W        W23114   3.343   5.115   2.150  0.0680 -0.0240 -0.0255
 7306W        W23115  18.314  10.650   5.219  0.0973 -0.4555  0.1057
 7307W        W23116  10.900   5.298   1.937  0.0786 -0.2117 -0.0748
 7308W        W23117   9.906  11.313  13.518  0.1868  0.2492  0.1350
 7309W        W23118   3.910   7.923   1.230  0.1058 -0.0986 -0.0377
 7310W        W23119  14.980  14.910   2.600 -0.0453  0.1218  0.2950
 7311W        W23120  14.007  13.428   4.182 -0.2746 -0.3248 -0.0306
 7312W        W23121   8.800  16.395  14.007  0.0555  0.0704 -0.5137
 7313W        W23122  16.931   4.342   3.091  0.0327 -0.0820 -0.1773
 7314W        W23123  18.412  12.170  12.994  0.1609  0.1517 -0.1292
 7315W        W23124   4.976  14.007   4.004  0.0284  0.0218 -0.1613
 7316W        W23125  16.407   5.281   2.311  0.0903  0.3780  0.2704
 7317W        W23126   6.297  11.355  13.869  0.1138 -0.1596  0.2769
 7318W        W23127   9.013   7.484   9.516  0.3793  0.0381  0.0521
 7319W        W23128  13.719   3.615  12.173 -0.0437  0.5225  0.1254
 7320W        W23129  19.010  10.103  11.948  0.0765 -0.0827  0.0586
 7321W        W23130  14.672   9.930  14.412 -0.1407 -0.3789 -0.2189
 7322W        W23131   7.803   1.263  10.854 -0.0411  0.0184  0.1345
 7323W        W23132   4.085  10.530   2.706  0.0623 -0.0344 -0.1022
 7324W        W23133  12.346   2.308   3.428 -0.2343  0.2851  0.1646
 7325W        W23134  11.907   8.883   2.212  0.2055 -0.1192 -0.3704
 7326W        W23135  13.279  16.845  10.413  0.0894 -0.2600 -0.1172
 7327W        W23136  11.516  11.278   0.589 -0.3278  0.1999 -0.4162
 7328W        W23137   7.547  10.490   3.931 -0.1483 -0.0318 -0.3483
 7329W        W23138   5.184  13.883   0.836  0.1053  0.0925 -0.0109
 7330W        W23139  11.446  16.551  14.547 -0.1826  0.2673 -0.0428
 7331W        W23140   9.943   3.360  12.188  0.3271 -0.1491 -0.0317
 7332W        W23141   3.515  14.459  12.563 -0.4812  0.0349 -0.2601
 7333W        W23142  16.636   3.349  11.249 -0.0347 -0.1962 -0.1694
 7334W        W23143   2.069  13.326   3.855 -0.2177 -0.0932 -0.2177
 7335W        W23144  12.714  14.927   0.088  0.0700 -0.2655  0.2051
 7336W        W23145  13.875   9.708  13.867 -0.2158 -0.0553  0.0754
 7337W        W23146  16.012   2.824   1.850 -0.0102 -0.0721  0.1201
 7338W        W23147  12.159   5.069   4.801  0.2593 -0.2037 -0.1253
 7339W        W23148   7.817  13.182  12.241 -0.0816  0.4956  0.1756
 7340W        W23149  15.525   8.484   9.410  0.2246  0.1750  0.0781
 7341W        W23150  14.932   5.643  11.230 -0.1369  0.2736 -0.1218
 7342W        W23151   8.837   5.834  15.105 -0.2053 -0.0662 -0.0689
 7343W        W23152  15.072  10.665   4.160 -0.0579 -0.0684  0.1933
 7344W        W23153   4.399  13.931   0.168  0.0184 -0.2032 -0.0395
 7345W        W23154   0.693  10.399   4.104  0.0709  0.0211  0.3135
 7346W        W23155  13.905   6.466   4.305  0.0430  0.1272 -0.1526
 7347W        W23156  14.873   9.080  14.571 -0.0760 -0.0776 -0.2150
 7348W        W23157  12.075   2.622   3.039  0.1139  0.2009 -0.3030
 7349W        W23158   1.368   0.972   0.007 -0.0730  0.1785  0.0532
 7350W        W23159  13.877   6.766  14.674 -0.0799  0.0233 -0.3618
 7351W        W23160   3.884   2.977  11.496 -0.3074  0.0306  0.1031
 7352W        W23161  16.872  11.712  11.363 -0.0969  0.2572  0.0419
 7353W        W23162   2.433   9.768  14.870 -0.0533  0.1129 -0.0974
 7354W        W23163   9.740   8.511  13.540 -0.0911  0.2181  0.0237
 7355W        W23164   1.577  11.748   0.584  0.2395  0.0413 -0.0033
 7356W        W23165  14.509  15.720   3.502 -0.1124  0.3647  0.1510
 7357W        W23166  13.490   1.592  11.961  0.1025  0.0075 -0.2068
 7358W        W23167   2.226  14.094   0.421  0.0861 -0.1051  0.0290
 7359W        W23168  11.165   9.592  11.896  0.0684  0.1179  0.3563
 7360W        W23169   2.823  10.089  12.380 -0.1407 -0.1819  0.1749
 7361W        W23170  12.383   7.013   4.488 -0.1742  0.2471 -0.1487
 7362W        W23171  17.788   7.896  15.182  0.1995 -0.0374 -0.2110
 7363W        W23172  16.817  14.629  10.852 -0.2213  0.2403 -0.0072
 7364W        W23173  10.753  13.306   4.414  0.1084  0.0237 -0.1052
 7365W        W23174  10.412   2.125   3.836  0.2160  0.0343 -0.1959
 7366W        W23175   2.974   1.861   3.934  0.2163  0.1695  0.1341
 7367W        W23176  16.542   0.052   2.701 -0.0612  0.0582  0.0282
 7368W        W23177  16.451   5.835  10.151  0.0669  0.0857 -0.1108
 7369W        W23178  14.005  18.661  14.279  0.1979 -0.0475 -0.0713
 7370W        W23179   1.601  10.621  14.652 -0.2035  0.1818  0.1644
 7371W        W23180   5.502  14.516  10.835 -0.1522  0.3839 -0.2236
 7372W        W23181  13.552  13.695   5.057  0.0361  0.1040  0.0875
 7373W        W23182  15.471  10.331  11.109  0.2628  0.0400  0.2304
 7374W        W23183   1.755  11.651  10.726 -0.1113 -0.0679  0.0945
 7375W        W23184  10.229   6.170  13.663  0.0070 -0.1433  0.0896
 7376W        W23185   2.757   0.083   4.128 -0.0666  0.0983  0.3286
 7377W        W23186  18.108   6.447  12.980  0.0894  0.0451 -0.0122
 7378W        W23187   3.236  15.923   0.275  0.0373  0.3139  0.0201
 7379W        W23188  12.110   4.721   1.541 -0.0747 -0.1193 -0.3067
 7380W        W23189   5.911  11.428   3.092  0.1380  0.0160 -0.6357
 7381W        W23190  17.596  17.025   0.973  0.0657  0.2300  0.0374
 7382W        W23191  12.179   6.795  11.943  0.2267 -0.2384  0.1554
 7383W        W23192   7.682   1.627   3.170 -0.1939  0.1146 -0.0115
 7384W        W23193   5.225   8.232   4.964 -0.1436 -0.1155 -0.1593
 7385W        W23194   5.644   7.755  12.240 -0.1024  0.0738  0.2120
 7386W        W23195   5.810   8.054   0.818  0.2924  0.0952 -0.4759
 7387W        W23196   2.868  10.185   1.084  0.0719  0.2229 -0.2440
 7388W        W23197  15.054   2.238   1.119  0.3076 -0.0434  0.2127
 7389W        W23198   0.776  18.181   0.338 -0.1912  0.0365  0.2785
 7390W        W23199   7.003  11.674   2.720  0.1260  0.0991 -0.0316
 7391W        W23200   4.015   7.450   2.630  0.0626 -0.0064  0.1056
 7392W        W23201  14.735  11.598   3.045 -0.1418  0.2619  0.3417
 7393W        W23202   7.628   8.827  13.017  0.0798 -0.1427  0.1857
 7394W        W23203   0.276  18.040   1.013 -0.0577 -0.1853 -0.1688
 7395W        W23204  14.142  11.510   2.264  0.1526  0.0463 -0.1012
 7396W        W23205   9.547  14.955  13.556  0.0475  0.0803 -0.1404
 7397W        W23206  18.766   1.389   4.693 -0.1114 -0.0201 -0.2931
 7398W        W23207   5.853   1.599   2.963 -0.0731  0.0775 -0.0291
 7399W        W23208  16.080   7.524  12.802 -0.0226  0.3574  0.2606
 7400W        W23209   0.933  14.948   5.262  0.1859  0.3683 -0.1342
 7401W        W23210  16.806   9.291   3.419  0.0512  0.1620 -0.0798
 7402W        W23211   7.702  15.912  13.269 -0.2268  0.4044  0.1111
 7403W        W23212   5.039   4.210   1.534  0.1154 -0.1520 -0.0851
 7404W        W23213   4.069   1.697   2.893  0.0493  0.0585 -0.1423
 7405W        W23214  10.435   8.770   0.704  0.1263  0.4169 -0.0373
 7406W        W23215   6.992  12.237  14.179 -0.0923  0.1770 -0.0096
 7407W        W23216   2.411  10.520  13.277  0.1331 -0.4029 -0.2651
 7408W        W23217   7.126   9.580   0.045 -0.0386  0.0925  0.0638
 7409W        W23218   2.526  15.108   1.116  0.3017  0.3619 -0.0557
 7410W        W23219   6.603   8.552   0.902  0.0230  0.1316  0.0096
 7411W        W23220  18.854  17.960   1.348 -0.0305  0.0555 -0.2798
 7412W        W23221  18.167   8.089   1.278  0.3362 -0.1303  0.3328
 7413W        W23222   4.085   8.303   4.772  0.2510  0.2903 -0.0738
 7414W        W23223   4.261   9.665   0.202  0.0067 -0.0837  0.1415
 7415W        W23224   6.771   8.680   0.472  0.0607 -0.4175  0.0541
 7416W        W23225   3.892   6.075   0.244 -0.3134 -0.0440  0.1523
 7417W        W23226   4.690   4.499   3.502  0.0564 -0.2198 -0.2020
 7418W        W23227   9.330   4.306  14.423 -0.0856 -0.1222  0.0751
 7419W        W23228  12.796  15.224  11.505  0.1128  0.2356  0.2041
 7420W        W23229   6.711  14.570   3.043  0.1530 -0.1995  0.0240
 7421W        W23230   7.166   9.782   0.519 -0.0781  0.2978 -0.0343
 7422W        W23231   1.998  18.654  12.381 -0.0742  0.0177 -0.1926
 7423W        W23232  14.395   4.696   5.627 -0.0886 -0.1938  0.0068
 7424W        W23233   6.471   2.796   0.389 -0.0367 -0.2309  0.0123
 7425W        W23234  11.286   6.102   3.268 -0.2293 -0.1047  0.0323
 7426W        W23235   4.615  13.209  10.101 -0.0552 -0.1760  0.0104
 7427W        W23236   0.018  17.007   2.951  0.3097 -0.1368 -0.2565
 7428W        W23237   2.907   7.811  10.980  0.1232 -0.1543  0.2068
 7429W        W23238  12.865   5.537  13.313 -0.1156 -0.0152  0.2023
 7430W        W23239  16.808  14.926   0.080  0.0051  0.0491  0.2146
 7431W        W23240  16.899   1.048  13.220  0.3222  0.1582 -0.1013
 7432W        W23241  15.166   6.103   1.634 -0.2419 -0.4419  0.0390
 7433W        W23242   3.327   8.318   0.036 -0.2234  0.1036 -0.0921
 7434W        W23243  14.071  10.292   3.246  0.0392  0.2491 -0.2596
 7435W        W23244   5.520   9.765   0.924  0.1534  0.1718 -0.2079
 7436W        W23245  16.381  12.859   0.679  0.1805 -0.1107  0.0856
 7437W        W23246   7.385   9.423   0.776 -0.3892  0.0260 -0.0436
 7438W        W23247  11.909   0.663  15.188 -0.4838  0.3871 -0.2242
 7439W        W23248   9.504   3.842   4.222  0.1826 -0.0764  0.1049
 7440W        W23249   0.158  18.262   3.867 -0.2412  0.2257  0.1210
 7441W        W23250   4.837   8.233   0.228  0.1059  0.0742  0.0850
 7442W        W23251   0.349  17.799  13.670  0.2127  0.2284 -0.0683
 7443W        W23252  18.570   5.743   0.966  0.1418  0.0973 -0.0267
 7444W        W23253  15.331   0.479  13.682  0.0136  0.0517  0.1155
 7445W        W23254  18.690   7.861  14.083 -0.1700  0.0143  0.0396
 7446W        W23255  14.566   9.361   9.586 -0.1156 -0.0075  0.3475
 7447W        W23256   6.382  13.696   4.344 -0.0132  0.1846  0.1130
 7448W        W23257   6.467   3.385  14.325  0.0830  0.2936  0.1773
 7449W        W23258   9.730   2.288  12.385 -0.3827 -0.2668  0.0627
 7450W        W23259   3.462  12.514   4.112 -0.0271 -0.2150 -0.0420
 7451W        W23260   5.382   7.004  11.646 -0.0502 -0.1465  0.2375
 7452W        W23261  13.823  10.196  12.238 -0.3530 -0.1047  0.0654
 7453W        W23262  17.441  18.509  14.473 -0.2464 -0.1158  0.0749
 7454W        W23263   3.431   6.222   0.134 -0.2863  0.3794  0.1701
 7455W        W23264  11.317   6.257  10.597 -0.0267 -0.0067  0.1080
 7456W        W23265   1.626  16.224   3.464 -0.1687 -0.1377  0.0634
 7457W        W23266  18.045   6.060  13.499  0.0138 -0.0334  0.1773
 7458W        W23267  12.208   4.922   3.940  0.1683 -0.2739 -0.0458
 7459W        W23268  15.895   1.080   1.462  0.0202  0.3202 -0.0230
 7460W        W23269  18.071   1.812   3.453  0.0206  0.1774 -0.3624
 7461W        W23270   5.088  13.216   1.136 -0.0978  0.0284 -0.2210
 7462W        W23271   2.656   0.595  13.713  0.0512 -0.4503 -0.0345
 7463W        W23272  12.185   8.468   4.274 -0.1540  0.0803 -0.0726
 7464W        W23273   5.201  12.552   3.090 -0.0752 -0.0705  0.1327
 7465W        W23274  12.080   1.134   1.587  0.2127 -0.1383 -0.3256
 7466W        W23275   3.923   3.639   9.777  0.1350  0.4377  0.2577
 7467W        W23276  16.329  12.585   5.440  0.0921 -0.1751 -0.4269
 7468W        W23277   8.374   5.605  10.515  0.2095 -0.0630 -0.4004
 7469W        W23278   1.450   9.548   0.210 -0.3744 -0.0794 -0.0760
 7470W        W23279  17.589  12.198  12.266 -0.2256 -0.1512  0.0439
 7471W        W23280   1.172  11.743   0.188  0.3141  0.1221  0.1484
 7472W        W23281   8.331   1.258  11.992  0.0600 -0.2245  0.0486
 7473W        W23282   9.710  18.384  10.514  0.0853  0.1605 -0.1455
 7474W        W23283   6.724  12.545  13.961  0.1720 -0.0360  0.1464
 7475W        W23284   3.715  10.081   9.594  0.4108  0.1427  0.1244
 7476W        W23285   4.614   1.809  15.137  0.0682  0.0697  0.3910
 7477W        W23286   2.819  13.407   0.326  0.0946 -0.3812 -0.0018
 7478W        W23287   1.804  12.150   5.019  0.3499  0.1468 -0.4463
 7479W        W23288  17.890   5.096  14.936 -0.2319  0.1878  0.0201
 7480W        W23289  17.648  17.025   5.017  0.1010 -0.2448  0.0749
 7481W        W23290   0.560  18.817   4.978 -0.1474 -0.1031  0.1938
 7482W        W23291   3.523  15.262   2.789  0.1369 -0.0070  0.0818
 7483W        W23292   3.061   8.708  15.059 -0.1578 -0.2732 -0.1516
 7484W        W23293  10.400  13.647   4.246  0.2035  0.0234  0.1401
 7485W        W23294   0.613   1.090   3.366  0.3571  0.3706 -0.1336
 7486W        W23295  11.920  16.117   1.881 -0.2571  0.2058  0.1293
 7487W        W23296   8.807  14.845  11.186  0.1422  0.4028 -0.1585
 7488W        W23297   5.547   4.439   4.318  0.0112 -0.1537  0.1380
 7489W        W23298   4.176  16.881   4.095  0.0701 -0.1409  0.2264
 7490W        W23299  14.870   4.498   5.514  0.3707 -0.0856 -0.1425
 7491W        W23300  14.654   2.880   5.479  0.1223 -0.0479  0.0171
 7492W        W23301   5.499   1.159   9.624  0.0163  0.1785  0.1428
 7493W        W23302  14.647  13.154   3.252 -0.0948  0.1083  0.0805
 7494W        W23303  16.704  14.284  14.891 -0.0095  0.0754 -0.0839
 7495W        W23304   3.026  13.772  11.134 -0.0505 -0.0752  0.2471
 7496W        W23305   8.999   1.161   3.989 -0.2882 -0.2062  0.0656
 7497W        W23306   1.659  17.670   0.902  0.0471  0.2322  0.0904
 7498W        W23307  15.246  17.559  14.849  0.0699  0.0174  0.2549
 7499W        W23308  11.194  12.929   2.772 -0.1931  0.3893  0.0703
 7500W        W23309  17.684   4.851   0.294 -0.0018  0.1896  0.4525
 7501W        W23310  18.740  13.241   2.225 -0.4435  0.2443 -0.2143
 7502W        W23311   1.470  18.092   3.498 -0.1514 -0.0481  0.5431
 7503W        W23312   0.367   0.695  10.098  0.2550  0.1437 -0.0427
 7504W        W23313  16.296  13.245  14.574 -0.5696 -0.3658  0.2099
 7505W        W23314  12.134   7.918   1.065 -0.0311  0.1859  0.0734
 7506W        W23315  13.333   7.597   3.318 -0.1667 -0.1489  0.1647
 7507W        W23316   2.351  11.258   3.991 -0.1875  0.0291 -0.1705
 7508W        W23317  14.928  11.202   4.134  0.0980 -0.2705  0.1989
 7509W        W23318   7.789  11.429   0.156 -0.0247 -0.2831 -0.2240
 7510W        W23319  15.716   2.194   0.986 -0.0813  0.2943 -0.1577
 7511W        W23320  16.448  18.480  12.581  0.2786 -0.4050 -0.1287
 7512W        W23321   9.254   8.513   2.693  0.1016 -0.0164 -0.1269
 7513W        W23322  16.188  10.133   3.553 -0.0496 -0.1981 -0.0302
 7514W        W23323   5.805   9.906  15.231  0.1107 -0.1759  0.1190
 7515W        W23324   5.702   8.102   2.971 -0.1148 -0.4188 -0.2345
 7516W        W23325  13.688  13.337   2.008 -0.0512 -0.1430 -0.1131
 7517W        W23326   9.121  15.953   1.410 -0.4814 -0.0729  0.1021
 7518W        W23327  15.301  15.429  15.252  0.2321  0.2807 -0.0992
 7519W        W23328  13.112   4.935   5.867 -0.1906 -0.0531 -0.2549
 7520W        W23329   6.322  15.700  12.943 -0.0420 -0.1099 -0.0158
 7521W        W23330  15.311  13.528  14.810 -0.0644 -0.1944  0.1911
 7522W        W23331   7.295  11.031   0.804  0.1146 -0.1139 -0.2364
 7523W        W23332   4.466   7.937  13.752  0.0817  0.0423 -0.0486
 7524W        W23333   0.213  16.113  11.370 -0.4286 -0.1168 -0.2389
 7525W        W23334  17.914   6.394  14.945 -0.2287  0.3339 -0.0444
 7526W        W23335   5.006  16.780   2.750 -0.1002 -0.1045  0.1549
 7527W        W23336   4.107  10.878  12.911  0.0776  0.3118 -0.0687
 7528W        W23337   0.428  17.498  15.186  0.0800 -0.1323 -0.2644
 7529W        W23338  10.130  13.102   2.604 -0.3253  0.2287  0.1622
 7530W        W23339   0.280   8.077  14.811 -0.3017 -0.3805 -0.1767
 7531W        W23340   9.347   8.537  14.355 -0.1622  0.0045  0.1023
 7532W        W23341  16.121  14.155   2.117 -0.0235  0.2405  0.1913
 7533W        W23342  11.331   9.827   3.764 -0.0509  0.1989 -0.4332
 7534W        W23343  16.771   2.514  11.655 -0.2499 -0.2379  0.0509
 7535W        W23344   7.078  16.525  14.730 -0.2146 -0.0092 -0.1144
 7536W        W23345  16.698   5.912   3.988 -0.1410  0.1326 -0.0116
 7537W        W23346   3.942  12.619   5.686  0.0583  0.3228 -0.3432
 7538W        W23347   5.469  15.698  11.739  0.1018  0.3384 -0.0588
 7539W        W23348   3.617  15.576   2.299 -0.2179  0.0987 -0.0915
 7540W        W23349   6.725  13.204   2.990 -0.1436 -0.0390  0.1170
 7541W        W23350   9.941  13.951   4.199 -0.0183 -0.0084 -0.2117
 7542W        W23351  17.741   9.886   0.445  0.1733 -0.1571 -0.1990
 7543W        W23352   4.707  16.811   3.956 -0.1914 -0.1631  0.0437
 7544W        W23353  15.878  13.636   3.805 -0.1019 -0.0151  0.4222
 7545W        W23354   4.760   0.163  12.899 -0.0870 -0.0531 -0.2716
 7546W        W23355   0.579   3.798  14.304  0.2756  0.0337 -0.2125
 7547W        W23356  16.190  12.757   3.429  0.0066 -0.3618  0.1530
 7548W        W23357   8.425  10.351   2.992  0.3256  0.2768  0.1050
 7549W        W23358   3.989  14.956   3.404  0.2513  0.0708  0.0362
 7550W        W23359   0.483  10.260  13.721 -0.2122 -0.1276  0.0399
 7551W        W23360  11.984  11.702  11.694 -0.3127 -0.1802 -0.1159
 7552W        W23361   9.146  12.592  10.502  0.1025 -0.0234 -0.2210
 7553W        W23362   3.556   6.313  13.565 -0.1583 -0.0139  0.0420
 7554W        W23363   6.872  15.644  15.087 -0.2227  0.1029  0.1202
 7555W        W23364  12.142   6.063   4.653 -0.1577 -0.0455 -0.1177
 7556W        W23365  11.658  18.828   9.913 -0.0499  0.1437 -0.1133
 7557W        W23366   8.737   1.026  11.759 -0.0023  0.3980 -0.2893
 7558W        W23367  13.652  13.054   3.989  0.1000 -0.3883  0.1905
 7559W        W23368   5.570  14.010   1.785  0.3200  0.0658  0.1487
 7560W        W23369   4.065  17.929   4.037 -0.1250 -0.0122  0.0177
 7561W        W23370  17.873   7.860   3.713 -0.1327 -0.2969  0.0296
 7562W        W23371   2.014   9.694   0.480 -0.0534 -0.3884 -0.0391
 7563W        W23372  14.729  17.667   4.346 -0.1118  0.2842  0.0387
 7564W        W23373   3.753   1.991   1.667 -0.1279 -0.1695  0.0579
 7565W        W23374   9.280   7.656   2.386 -0.2162 -0.2379 -0.1473
 7566W        W23375  17.377   2.602  11.488 -0.1703  0.0702  0.1084
 7567W        W23376  16.586  16.029   2.977  0.3763  0.1845  0.0728
 7568W        W23377   5.818  13.283   2.710  0.0567 -0.0072 -0.1645
 7569W        W23378  11.780   4.998  10.565  0.0996  0.2274  0.4571
 7570W        W23379  11.328  16.883   1.091 -0.2424  0.1291 -0.0806
 7571W        W23380  15.266   9.953   3.454 -0.1496  0.3150  0.2110
 7572W        W23381   0.809   6.251   1.239  0.1188  0.2494  0.2557
 7573W        W23382  12.626   0.254  12.245 -0.1690  0.2318 -0.2953
 7574W        W23383   8.975  11.345   3.939 -0.0277 -0.1863  0.1947
 7575W        W23384  18.094  11.710   3.535  0.0873  0.0416  0.2109
 7576W        W23385   5.127  13.558  13.965 -0.2694 -0.1526 -0.1786
 7577W        W23386  10.441   6.973   3.951  0.1135  0.1094  0.0871
 7578W        W23387  11.900   3.748   5.291 -0.1864  0.2106  0.0758
 7579W        W23388  17.046  11.171  13.912  0.1889  0.1132 -0.0374
 7580W        W23389   1.326   9.008  12.132  0.3088  0.4281 -0.0723
 7581W        W23390  12.059  11.918   1.241 -0.1810 -0.2450  0.2472
 7582W        W23391  10.504   1.117  11.418 -0.1409  0.2096 -0.2303
 7583W        W23392  17.091  12.826  12.506  0.0670  0.1002 -0.2234
 7584W        W23393  13.613  18.857   3.840  0.0395 -0.2267  0.0889
 7585W        W23394  18.283  11.656   0.169 -0.0721 -0.2765 -0.1790
 7586W        W23395   0.112   4.049  12.100  0.1678  0.0583  0.0792
 7587W        W23396   4.021  16.876   0.470 -0.1145  0.6442  0.0669
 7588W        W23397  14.301  16.588  13.192 -0.0286  0.0677 -0.3775
 7589W        W23398   0.604  16.361   0.603  0.0150  0.4830 -0.4150
 7590W        W23399  10.788  13.174   1.189  0.0289 -0.0837 -0.1161
 7591W        W23400   8.312  17.855  10.697  0.0551 -0.2333  0.0533
 7592W        W23401   4.468  14.404  13.157 -0.1793  0.6006 -0.0692
 7593W        W23402   7.872   6.044  11.996  0.0704 -0.3266  0.1900
 7594W        W23403   5.549  13.227   4.546  0.1511  0.1003  0.0948
 7595W        W23404   9.301   1.778   5.140  0.0056 -0.1125 -0.1690
 7596W        W23405   9.842  16.674  14.426 -0.1296  0.2302  0.0060
 7597W        W23406   2.330  13.560   2.439 -0.0712  0.0932  0.1511
 7598W        W23407   2.280  12.742  14.974 -0.1238 -0.0357  0.0787
 7599W        W23408  12.323  14.040  13.846  0.1273  0.0256  0.1063
 7600W        W23409  13.544  10.618   3.622 -0.2181  0.1460  0.3833
 7601W        W23410   7.721  10.531  12.905 -0.3947  0.0264  0.1072
 7602W        W23411   2.442  10.905  11.763  0.0115 -0.0103  0.1886
 7603W        W23412   7.722   5.406   2.100 -0.2442  0.3337  0.2151
 7604W        W23413  14.578   1.045   5.824 -0.1826 -0.0677  0.1484
 7605W        W23414   8.380   7.851   1.446  0.3524 -0.1595  0.2311
 7606W        W23415   1.921   8.664   0.301 -0.1282  0.3825 -0.0475
 7607W        W23416   8.696  11.750   3.973 -0.0729  0.1171 -0.1251
 7608W        W23417  15.735   3.151  14.509 -0.2335  0.0057 -0.0568
 7609W        W23418   9.706  13.915  15.265 -0.1931  0.0062  0.1978
 7610W        W23419  14.546  13.876  15.057 -0.0436 -0.0619  0.2400
 7611W        W23420  13.405  15.730   2.658  0.2782 -0.0874  0.1431
 7612W        W23421  17.046  15.489   6.012  0.1425 -0.3395 -0.1956
 7613W        W23422  18.846   7.172  13.443 -0.0990 -0.1648 -0.3436
 7614W        W23423   1.483  13.838   0.283  0.0718  0.1372  0.1619
 7615W        W23424  16.966  10.491   3.997 -0.0266 -0.0884  0.1718
 7616W        W23425   0.921   0.779   5.084 -0.1388  0.0062 -0.4231
 7617W        W23426   9.496  13.612   2.649  0.0365  0.0200 -0.4021
 7618W        W23427   7.513  11.145  14.507  0.0267 -0.1503 -0.3891
 7619W        W23428  18.646   8.750   1.805  0.1875  0.0212 -0.2208
 7620W        W23429  15.947   8.575   0.622 -0.0876 -0.0546 -0.2763
 7621W        W23430  15.100  11.862   4.204 -0.0587  0.0278 -0.0808
 7622W        W23431  10.136   6.797   0.201 -0.0336 -0.1709 -0.1981
 7623W        W23432  14.194   9.521   4.263  0.1307  0.0532  0.1089
 7624W        W23433   6.905   0.187   2.761 -0.4318 -0.3200  0.1016
 7625W        W23434   6.310   4.084   4.551 -0.1972  0.4208 -0.2397
 7626W        W23435   5.585  16.121  14.403 -0.0110  0.0100 -0.1834
 7627W        W23436  11.481   4.710  15.208  0.0225  0.0444 -0.1811
 7628W        W23437  12.618  16.125   2.566  0.0891 -0.5011  0.2306
 7629W        W23438   1.196  14.836   4.667 -0.0136  0.1777  0.0897
 7630W        W23439  16.591  14.215   1.262  0.3750 -0.0310  0.1158
 7631W        W23440  19.011  12.671   0.500 -0.0100  0.1124 -0.0008
 7632W        W23441  16.637  14.923   1.218 -0.2693 -0.0265  0.2466
 7633W        W23442  12.927  14.816  14.910 -0.2892 -0.1880  0.1161
 7634W        W23443   9.664   6.471  11.702 -0.4323  0.0578 -0.2122
 7635W        W23444   0.978  11.841   0.711 -0.1100  0.0113  0.2897
 7636W        W23445  13.967  17.673  11.348 -0.2028 -0.2614 -0.1066
 7637W        W23446  10.644   2.461  11.082 -0.2909 -0.4159 -0.1415
 7638W        W23447  11.353  10.366  14.963  0.0755  0.1904  0.6076
 7639W        W23448   9.040   5.769  12.765 -0.1380 -0.0914  0.1498
 7640W        W23449   1.201   3.562   1.326 -0.2662  0.1395 -0.2084
 7641W        W23450  10.876   3.908  14.513 -0.0162 -0.1627  0.0550
 7642W        W23451  18.883   2.642   0.203 -0.2136 -0.0797  0.0838
 7643W        W23452   0.793  10.060   1.952 -0.2419 -0.0013 -0.2764
 7644W        W23453   1.342   6.437   3.503 -0.0384 -0.1141  0.2313
 7645W        W23454  13.984   8.558  14.093 -0.1566  0.4043 -0.4177
 7646W        W23455  10.681   8.187   0.090  0.0497  0.1870  0.1850
 7647W        W23456   1.303   7.972   3.596 -0.2404 -0.2950 -0.1698
 7648W        W23457  10.951  18.926   1.708  0.0001  0.1733  0.0179
 7649W        W23458  16.125  10.256   1.033 -0.2685 -0.0795 -0.0381
 7650W        W23459   9.434   3.716  14.966  0.0446 -0.0512 -0.1857
 7651W        W23460   2.790  15.741  11.126  0.1354 -0.2707 -0.0467
 7652W        W23461  10.453  12.431   1.428  0.1345 -0.0118 -0.1336
 7653W        W23462   7.414   8.648   4.079 -0.1741  0.0806  0.1315
 7654W        W23463  10.226  15.335  10.019 -0.0934 -0.0376 -0.1761
 7655W        W23464  10.972   1.174   1.910 -0.1742  0.0166 -0.0802
 7656W        W23465  13.597  12.224  12.069 -0.0764 -0.0323  0.1019
 7657W        W23466   5.727  17.244   2.006  0.2924  0.0111 -0.1995
 7658W        W23467   5.050  15.376   2.200  0.0107  0.0315 -0.2513
 7659W        W23468  17.885   9.929  14.239 -0.0257  0.0490 -0.2217
 7660W        W23469  18.681  11.356  10.173  0.1157  0.1256 -0.0344
 7661W        W23470  14.481   8.076  11.086 -0.2304  0.3775 -0.3253
 7662W        W23471   1.116   3.489  13.842  0.1047  0.1045  0.0878
 7663W        W23472   4.046  11.922   3.211  0.0489 -0.1126  0.3488
 7664W        W23473   9.995  12.810  15.252 -0.0843  0.1199 -0.0808
 7665W        W23474   8.499  16.129   2.392 -0.1846 -0.1226 -0.0652
 7666W        W23475   5.837  15.849   2.243  0.2471  0.2556 -0.1101
 7667W        W23476  16.001  11.345   4.165  0.0448 -0.0453 -0.1567
 7668W        W23477   2.892  14.747   2.342 -0.2126 -0.0911  0.0756
 7669W        W23478  15.741  18.973   1.551 -0.0516  0.0954  0.0670
 7670W        W23479   6.196   3.921  12.177 -0.1059 -0.1143 -0.3308
 7671W        W23480  16.144   5.864  13.438  0.0413  0.0022 -0.0319
 7672W        W23481  15.611  16.841   2.187 -0.2063  0.1242  0.0917
 7673W        W23482  12.690   8.194   1.997  0.1901  0.0629  0.4047
 7674W        W23483  10.772   2.447  13.367 -0.0611  0.1432 -0.1357
 7675W        W23484   7.625   6.744   0.984 -0.0270  0.4234 -0.1187
 7676W        W23485   0.098   3.855  12.872 -0.1367  0.1570  0.0165
 7677W        W23486  13.944  11.932  14.918 -0.1468  0.1003  0.1513
 7678W        W23487  11.175   1.731  13.612 -0.0949  0.0402 -0.1442
 7679W        W23488   3.227  13.328   2.687  0.0701  0.1048 -0.1762
 7680W        W23489   8.185  15.820  12.396 -0.1931  0.0129 -0.2254
 7681W        W23490   2.784   8.368  14.881 -0.0004 -0.1434 -0.0042
 7682W        W23491  13.904   4.674  11.986 -0.2420 -0.0709 -0.3065
 7683W        W23492   6.356  10.538  10.759 -0.1001 -0.1937  0.3476
 7684W        W23493   9.995   8.750   0.448  0.2682  0.1078  0.1457
 7685W        W23494   1.747   5.440  10.344 -0.1896 -0.0547  0.1292
 7686W        W23495  16.147   9.374  10.763  0.3692 -0.2609 -0.0632
 7687W        W23496  11.391  11.813  12.304  0.1285  0.2082  0.2583
 7688W        W23497  11.666  18.056   2.998  0.3018 -0.2190 -0.2013
 7689W        W23498   3.557   0.222   5.908 -0.1586 -0.1709  0.2714
 7690W        W23499   6.378  12.834  15.267  0.0478  0.0681 -0.3087
 7691W        W23500  15.457   5.674   4.239 -0.0175 -0.1573 -0.0071
 7692W        W23501  13.429   3.483   1.606  0.2528 -0.0255  0.0500
 7693W        W23502  10.424   3.258  10.682  0.0896  0.1494  0.1214
 7694W        W23503   2.889   0.537  15.020  0.1629  0.1797 -0.3604
 7695W        W23504   9.465   0.140  11.503  0.0358 -0.2898 -0.0593
 7696W        W23505   5.162  10.106   4.714 -0.1127  0.0232 -0.0713
 7697W        W23506  17.954   9.204   1.027 -0.1454 -0.1115 -0.3706
 7698W        W23507   1.034   5.759  10.889  0.0037  0.1812  0.1650
 7699W        W23508   2.582  12.117  14.546  0.1123  0.0350  0.2591
 7700W        W23509   7.751   8.052  13.632 -0.0201 -0.0550  0.1447
 7701W        W23510   3.302   9.295  12.468 -0.0574  0.0793  0.0391
 7702W        W23511  14.332  10.031   1.454  0.1382  0.1301 -0.1732
 7703W        W23512  13.782   8.233   1.830  0.0293 -0.0517  0.0607
 7704W        W23513   0.587   7.060   2.778 -0.0913  0.0941  0.0024
 7705W        W23514   7.237  14.241   2.510  0.0106  0.3510  0.1839
 7706W        W23515  16.160  18.676  14.584  0.1080 -0.3007 -0.0591
 7707W        W23516  16.700  11.552  15.104 -0.1769 -0.1871  0.0398
 7708W        W23517   0.939   3.847   2.558 -0.0200 -0.0880 -0.1045
 7709W        W23518  16.263   5.535  11.964 -0.0210  0.1403 -0.1763
 7710W        W23519  16.697  15.418  11.203  0.2162  0.0275  0.2676
 7711W        W23520   1.679   0.042  12.319  0.2685  0.1409  0.1870
 7712W        W23521   8.379  13.596  15.036 -0.0461  0.1578  0.3187
 7713W        W23522  14.821  16.573   0.018  0.1905  0.1410  0.0589
 7714W        W23523  18.190  18.659  13.892  0.0607 -0.1407  0.0345
 7715W        W23524   8.941   9.442   4.480  0.0219  0.1339  0.1839
 7716W        W23525  11.765   6.585  11.428 -0.0809 -0.1150 -0.1045
 7717W        W23526  12.936  12.521  13.528 -0.2052  0.0717 -0.2024
 7718W        W23527   1.855   8.742  14.728 -0.0169  0.0565 -0.1502
 7719W        W23528   0.884  12.415   2.397  0.1046 -0.2282  0.2339
 7720W        W23529   3.669   9.206  10.545  0.1552  0.0888 -0.0168
 7721W        W23530   2.386  13.377  12.017 -0.0434 -0.0017 -0.1353
 7722W        W23531   9.912   0.277   2.780 -0.1754 -0.1757  0.1589
 7723W        W23532  18.017   4.128  10.923  0.0104 -0.0147 -0.0188
 7724W        W23533   9.233   4.322   1.085 -0.1887 -0.1723 -0.2119
 7725W        W23534  16.511   8.805   0.262 -0.3340 -0.0294  0.4532
 7726W        W23535  11.157  13.684   0.338 -0.0783  0.0639 -0.1648
 7727W        W23536  18.489  12.039   5.459 -0.0871  0.3369 -0.2550
 7728W        W23537   6.482  10.211   4.577  0.0757 -0.0310  0.3094
 7729W        W23538  14.255   4.853  13.996 -0.0328 -0.1467 -0.1292
 7730W        W23539  12.178  16.392  11.653 -0.0438 -0.3449  0.0674
 7731W        W23540   2.481  13.543  14.179 -0.2481 -0.0006 -0.1378
 7732W        W23541  17.286  10.790  13.582 -0.2830 -0.1352 -0.1777
 7733W        W23542   3.268   2.617   0.709  0.2049 -0.1372  0.3390
 7734W        W23543   5.703   5.184   0.367 -0.1428 -0.0417  0.0952
 7735W        W23544  13.987  10.288  10.716 -0.1317 -0.2720  0.2324
 7736W        W23545  13.699  14.990  15.148  0.1499  0.0011 -0.0484
 7737W        W23546  12.173   0.905   2.852  0.2225 -0.0245  0.0324
 7738W        W23547  15.485  13.039  13.896  0.1513 -0.0706 -0.0475
 7739W        W23548   6.741   4.028   3.727  0.0980 -0.1203 -0.1942
 7740W        W23549  13.789   9.266   0.565 -0.0759 -0.2153 -0.0485
 7741W        W23550  18.056   1.100  13.181  0.1380  0.0706 -0.2997
 7742W        W23551   4.482   2.887   3.167  0.0115  0.0979  0.2060
 7743W        W23552   1.838  15.347  12.895 -0.0159  0.1785 -0.0601
 7744W        W23553   9.363   7.512  10.232  0.0632  0.0879 -0.2695
 7745W        W23554  17.353  15.086   4.330 -0.0891  0.3180  0.0396
 7746W        W23555  11.733   9.757   2.004  0.2922 -0.1847 -0.0414
 7747W        W23556   5.156   2.900  10.576  0.0215  0.0794  0.1495
 7748W        W23557   5.226   3.058   2.117 -0.0092  0.0198 -0.0346
 7749W        W23558  14.382   3.496  14.135  0.1371  0.0775  0.1642
 7750W        W23559   5.217   3.683  11.611  0.0806 -0.0215 -0.0922
 7751W        W23560   0.424  12.640  14.169  0.0819  0.1299 -0.1961
 7752W        W23561   7.476   6.641  13.495 -0.2672  0.1221 -0.0441
 7753W        W23562  15.786  10.772   2.205 -0.2065 -0.1013 -0.2798
 7754W        W23563   7.305   2.839   2.023  0.0897 -0.0150 -0.1783
 7755W        W23564   6.371  12.819  12.815  0.3216 -0.0020  0.1821
 7756W        W23565  10.107  14.540  10.949 -0.1359  0.1944 -0.0789
 7757W        W23566   4.678   5.093   1.349 -0.1556  0.2140  0.0128
 7758W        W23567  14.490  10.573   3.000  0.0312 -0.1102  0.2486
 7759W        W23568  10.978   1.344  11.726  0.1269  0.0551  0.4851
 7760W        W23569   2.864  16.090   3.953 -0.0654 -0.1208  0.0029
 7761W        W23570   5.889   7.048  11.397 -0.2405 -0.0307 -0.1962
 7762W        W23571  16.659  13.754  14.792  0.3785 -0.2743  0.1045
 7763W        W23572  15.014  10.980   4.555  0.1156 -0.1995 -0.0134
 7764W        W23573  13.968  16.384  15.014  0.2570 -0.1941  0.1225
 7765W        W23574   8.843   1.756  13.391  0.3521 -0.4482  0.0530
 7766W        W23575   4.853   8.749   1.470  0.0523 -0.0950  0.0572
 7767W        W23576   0.039  13.776   0.516 -0.2471 -0.1089  0.1152
 7768W        W23577  17.760   2.735   3.504  0.2394 -0.0026  0.1739
 7769W        W23578   6.566   0.429   1.995 -0.0590  0.1396  0.2593
 7770W        W23579  13.065  13.865   2.965  0.2288 -0.2827 -0.3479
 7771W        W23580  14.477   5.523   0.405 -0.1260  0.1793  0.0681
 7772W        W23581  12.936   1.142   1.838  0.0312 -0.1302 -0.4755
 7773W        W23582  17.868   3.118   3.253 -0.2108 -0.1187  0.2732
 7774W        W23583  13.662  12.672  14.998 -0.2356  0.1302  0.0457
 7775W        W23584   6.841  16.689   2.413 -0.1178 -0.1862 -0.0859
 7776W        W23585  18.060  10.835  13.655 -0.0808 -0.1179  0.0967
 7777W        W23586  17.023   2.896  11.908 -0.1773 -0.0456 -0.0005
 7778W        W23587  16.589  17.027   2.985 -0.1364  0.2665 -0.0108
 7779W        W23588   6.712  11.527  10.722  0.1672  0.1904 -0.2768
 7780W        W23589  18.095  17.897  12.021 -0.1382 -0.2724  0.3900
 7781W        W23590  10.831  17.913  12.649 -0.0185 -0.0064 -0.3723
 7782W        W23591   1.135  14.681   0.077 -0.1374  0.2023  0.3347
 7783W        W23592  18.306   2.595   3.518 -0.0413 -0.1099  0.2523
 7784W        W23593  16.527  15.772   5.928  0.1280 -0.1652  0.0576
 7785W        W23594   2.801   5.007   4.901  0.2752 -0.1301  0.2141
 7786W        W23595   8.232   3.712  13.716 -0.2783 -0.0093  0.3432
 7787W        W23596   2.855   1.784   3.015 -0.1557  0.1279 -0.1949
 7788W        W23597   6.700  18.448   0.873  0.0467 -0.0398 -0.0419
 7789W        W23598  11.906   0.289  12.902  0.0775  0.3433  0.2431
 7790W        W23599   0.699   7.665   2.913  0.2352  0.0927  0.0302
 7791W        W23600  12.155   3.275   3.787  0.0185  0.1840  0.2746
 7792W        W23601  14.497  10.382   3.530  0.0360 -0.3887  0.1629
 7793W        W23602   8.846   8.540  11.269  0.3479 -0.2094  0.0092
 7794W        W23603  18.927   2.177  10.495 -0.4636  0.0870 -0.2686
 7795W        W23604  12.974   2.628  13.794  0.0682  0.0344  0.1132
 7796W        W23605   5.889  18.394   1.369 -0.4342 -0.1705 -0.0785
 7797W        W23606   0.762   1.116   4.255  0.2122 -0.0620  0.2495
 7798W        W23607   1.895   8.934  13.964 -0.0453  0.3029 -0.3072
 7799W        W23608   2.899   4.795  10.270 -0.1285  0.1363  0.0192
 7800W        W23609  17.239   0.911   3.611 -0.0214 -0.1189 -0.0763
 7801W        W23610   4.441  18.547   3.255  0.1415  0.0084 -0.0418
 7802W        W23611  17.498   5.296  14.329 -0.3756  0.0566 -0.1064
 7803W        W23612  15.219   4.369  15.018  0.0341  0.1454  0.0114
 7804W        W23613   7.816   4.856  15.225 -0.2697  0.2487  0.2675
 7805W        W23614  13.738  14.545  13.434 -0.1596  0.0512 -0.1040
 7806W        W23615   9.027   1.832   3.320 -0.0573  0.3457 -0.1376
 7807W        W23616  18.321  15.833   0.276  0.1390 -0.2657  0.1713
 7808W        W23617  12.146   8.023   0.230 -0.0103  0.1477 -0.0982
 7809W        W23618  14.918   3.392  13.980  0.2080 -0.1686  0.0903
 7810W        W23619   0.143  10.749   3.139 -0.0442 -0.0013  0.1660
 7811W        W23620   4.138   5.382  13.540 -0.4701  0.1322 -0.2497
 7812W        W23621  10.848  16.717   3.548 -0.0628  0.3830 -0.1110
 7813W        W23622   6.049   3.995   9.724 -0.4060 -0.2785 -0.0848
 7814W        W23623   7.243   0.438   4.626 -0.2214  0.2242 -0.1721
 7815W        W23624   1.509  11.318  13.576  0.2176 -0.2063 -0.0357
 7816W        W23625  15.881   9.877  11.510  0.2021  0.0347 -0.0854
 7817W        W23626   3.473   3.770   2.302 -0.1988 -0.1003  0.0541
 7818W        W23627  16.469   8.605  14.696 -0.2500  0.1619 -0.2712
 7819W        W23628   5.472  14.423  13.431 -0.1222  0.0204 -0.2619
 7820W        W23629   8.620  12.046   9.901 -0.3254 -0.4641  0.0273
 7821W        W23630   9.436   0.335   0.821 -0.5567 -0.0610 -0.1545
 7822W        W23631  17.190  18.681   3.947  0.0798  0.1587  0.4192
 7823W        W23632  11.210  12.993   4.650 -0.1273 -0.1037 -0.1996
 7824W        W23633  11.889  16.634   2.500 -0.4180  0.1140 -0.0152
 7825W        W23634   4.556  14.372  15.104 -0.0929 -0.3333 -0.3776
 7826W        W23635  11.886   4.866   3.108  0.0179 -0.4955 -0.1366
 7827W        W23636  15.638  15.845   2.164 -0.2358 -0.0701 -0.0957
 7828W        W23637  10.408   3.284  12.995 -0.0491 -0.1501  0.1491
 7829W        W23638  15.273   8.951  13.357 -0.3460 -0.0118 -0.0336
 7830W        W23639   8.316  18.090  11.246 -0.1384  0.1549  0.0784
 7831W        W23640   0.236   8.951   3.338 -0.1639  0.1621  0.4042
 7832W        W23641  12.571   8.778  14.664 -0.1390 -0.2696  0.1710
 7833W        W23642   8.892  18.322   2.208  0.2121 -0.1741 -0.0532
 7834W        W23643   0.986   0.735  12.169 -0.1304  0.3938 -0.0823
 7835W        W23644  16.078   4.495   3.820  0.0089  0.0065 -0.0133
 7836W        W23645   9.866  10.178   1.703  0.1849  0.1399  0.0331
 7837W        W23646   1.700  15.478   2.070  0.1586  0.1829 -0.1355
 7838W        W23647  16.265   6.009  12.622  0.1058 -0.2880  0.1823
 7839W        W23648  15.621  17.659   0.117 -0.1076  0.1236 -0.1258
 7840W        W23649   3.366  15.724  13.601  0.4939  0.1871 -0.0172
 7841W        W23650   4.615  17.137   0.016 -0.3097 -0.1521 -0.0196
 7842W        W23651  12.897   3.363   2.798  0.0255 -0.1236  0.2349
 7843W        W23652  14.667  10.847   3.390 -0.1643  0.1203  0.0617
 7844W        W23653  13.450  13.089  15.227 -0.0602 -0.0743 -0.0092
 7845W        W23654   5.994  17.914   3.555 -0.1106  0.1242 -0.5277
 7846W        W23655   7.875   0.595  10.197 -0.1947 -0.4164  0.3824
 7847W        W23656   0.369   7.030   1.767  0.1736 -0.2140  0.0338
 7848W        W23657   8.542  14.302   0.633  0.1351 -0.1682  0.0008
 7849W        W23658   2.702   5.772  12.443 -0.3586  0.0686  0.5715
 7850W        W23659  17.693   5.459  10.123 -0.0809 -0.4163 -0.2394
 7851W        W23660  14.811  16.337   1.652  0.3462  0.1440  0.1176
 7852W        W23661  12.089  11.708  12.978  0.1419  0.1954  0.1662
 7853W        W23662  10.162   4.549   1.052  0.1606 -0.0900  0.3254
 7854W        W23663  12.286  10.733   0.739  0.1642 -0.0722  0.0700
 7855W        W23664  12.605   7.398   5.006  0.1609 -0.1452 -0.1286
 7856W        W23665  11.428  14.127   4.989 -0.1911 -0.0272 -0.1094
 7857W        W23666  14.793   6.358   0.685  0.0381  0.1870  0.0004
 7858W        W23667  15.190   9.291  14.165 -0.4040 -0.1285  0.0709
 7859W        W23668   5.325  12.590  13.343 -0.0556 -0.0540 -0.0305
 7860W        W23669  17.140  12.325  12.472  0.1883  0.1926  0.2756
 7861W        W23670  18.258  17.713   4.910 -0.0288 -0.0051  0.1043
 7862W        W23671   6.338   5.840  14.692  0.0118  0.2078  0.0168
 7863W        W23672   1.870   6.381   5.572  0.2474  0.1849 -0.1113
 7864W        W23673   8.041   5.487  10.203  0.1680 -0.0882  0.0445
 7865W        W23674   0.323  18.032   0.529  0.4293 -0.1572 -0.0287
 7866W        W23675  13.043  12.695   5.383  0.0822 -0.2091  0.0655
 7867W        W23676  11.288  18.018  12.509  0.3131  0.1183 -0.2397
 7868W        W23677   5.272   5.103  14.525 -0.0362  0.0218 -0.2691
 7869W        W23678  15.656  11.554   2.038 -0.0478 -0.1497 -0.1018
 7870W        W23679   6.295  15.090  10.520 -0.1109 -0.3181  0.0843
 7871W        W23680   2.785   9.766  11.078  0.0012 -0.0994  0.0150
 7872W        W23681  12.200  17.317  14.045  0.0378  0.1479 -0.0484
 7873W        W23682   8.382  12.591   3.911 -0.2918 -0.0806  0.1137
 7874W        W23683  17.601  12.628   4.491 -0.1763 -0.2182  0.2993
 7875W        W23684   3.996   6.416   0.691 -0.0500  0.0931 -0.1518
 7876W        W23685   0.276   7.034   3.496 -0.3286 -0.1963 -0.1533
 7877W        W23686   1.666   0.627  15.162 -0.0815  0.0846  0.0198
 7878W        W23687  11.079   0.164  12.597  0.0160  0.1138  0.2934
 7879W        W23688   6.057   1.116  13.578  0.2598  0.0600  0.0148
 7880W        W23689  16.993   8.485   2.637  0.2736  0.1566 -0.1797
 7881W        W23690  12.545  18.517   0.921  0.2189 -0.1538 -0.0119
 7882W        W23691   8.074   1.038   1.034 -0.2180  0.2854 -0.2302
 7883W        W23692  12.959   5.503  12.476 -0.1556  0.1130 -0.1409
 7884W        W23693  17.615   2.136  11.747  0.1145  0.3820  0.0224
 7885W        W23694  10.457   0.729   5.161 -0.0843 -0.0800  0.0893
 7886W        W23695   7.358  10.213  13.393  0.4039 -0.0539 -0.3264
 7887W        W23696   7.081  11.128  10.521 -0.0491 -0.4259 -0.3324
 7888W        W23697   1.524   4.115  15.223 -0.1507  0.0883 -0.1423
 7889W        W23698  10.689  16.285   3.287  0.1699 -0.0285 -0.1035
 7890W        W23699  15.799  18.037  12.668  0.1860  0.1722  0.2963
 7891W        W23700  15.450  12.202  12.274 -0.1078  0.2485 -0.2127
 7892W        W23701   2.634   8.003  13.018  0.0854 -0.1397  0.1331
 7893W        W23702   7.593  15.494  11.839  0.2277 -0.1296 -0.1488
 7894W        W23703   1.203   7.821  13.030 -0.1412 -0.1222  0.3007
 7895W        W23704   2.164  10.300   0.486  0.2314 -0.0530  0.3828
 7896W        W23705   0.163   4.363  10.726  0.1276  0.2009 -0.1297
 7897W        W23706   0.584  12.190   3.663 -0.1156  0.0326 -0.0917
 7898W        W23707   3.956  10.824   2.304 -0.3417 -0.2943  0.2352
 7899W        W23708   2.447   1.303  13.282  0.2314 -0.7646 -0.0637
 7900W        W23709  16.224  17.696   5.135 -0.4329 -0.1204 -0.2470
 7901W        W23710  10.339  12.899   1.294  0.0675  0.3682  0.0240
 7902W        W23711   2.966  14.957   3.372  0.1605 -0.1749 -0.4388
 7903W        W23712   5.766   4.658   0.675 -0.4257 -0.1015 -0.0775
 7904W        W23713  18.564  14.337  11.456 -0.2166 -0.3444 -0.3312
 7905W        W23714   0.000   3.893   0.724  0.2752 -0.0614  0.1023
 7906W        W23715   2.972  18.439  10.840 -0.2096 -0.3787  0.0857
 7907W        W23716  17.091   3.477  13.694 -0.2414 -0.2313  0.0072
 7908W        W23717   1.398  18.034  13.465 -0.0525  0.1216 -0.0240
 7909W        W23718   8.303   0.427   2.528  0.0579  0.0418  0.1119
 7910W        W23719  14.003  12.922   2.244  0.0669 -0.1531  0.2719
 7911W        W23720  17.400  16.482   0.989 -0.0721 -0.0183  0.1875
 7912W        W23721   8.383  17.084  13.035  0.2874 -0.0820  0.0298
 7913W        W23722   3.236  12.158   3.334  0.0113  0.0058  0.0362
 7914W        W23723  13.431   4.344  14.431  0.0327  0.0366  0.0288
 7915W        W23724   6.660  17.547  12.277  0.0292 -0.0834 -0.1920
 7916W        W23725   4.640   5.900   1.048  0.1873 -0.0252  0.2490
 7917W        W23726  13.695   7.935  11.684 -0.0952 -0.1040  0.3359
 7918W        W23727   7.880  11.472  14.945  0.1834  0.2747 -0.1229
 7919W        W23728   4.114  18.386   1.082  0.3820 -0.0616 -0.1159
 7920W        W23729   8.385   3.953   2.510 -0.1416  0.1499 -0.2166
 7921W        W23730   7.415  13.149   3.909 -0.1270  0.3288 -0.0349
 7922W        W23731  12.534  14.066   9.677  0.0492 -0.0602  0.0923
 7923W        W23732   1.030  17.001   5.932 -0.2566  0.0765 -0.0499
 7924W        W23733   2.474   7.102  12.005  0.0764  0.1110  0.2909
 7925W        W23734   0.251   5.600   3.516  0.1787 -0.1239 -0.0269
 7926W        W23735  10.757  11.057  14.638  0.1892 -0.0784 -0.0317
 7927W        W23736   2.448   2.589   4.497 -0.1868 -0.0901 -0.0196
 7928W        W23737  12.921   7.271   0.717 -0.0538  0.1369 -0.3026
 7929W        W23738  17.214   7.065  10.770 -0.1630  0.2441  0.2308
 7930W        W23739   4.212   1.245   0.568  0.2905  0.2413 -0.0889
 7931W        W23740   6.985   7.953  14.968 -0.0730 -0.0037 -0.1896
 7932W        W23741  14.636  16.144   0.389  0.2840 -0.1687  0.1410
 7933W        W23742  15.365  11.741  12.536  0.3168 -0.2083  0.1174
 7934W        W23743   1.976   0.226   0.653  0.3538 -0.4978 -0.3534
 7935W        W23744   3.340   8.019   2.730  0.0827 -0.2792  0.0461
 7936W        W23745  14.852   0.992   4.347  0.0271 -0.2482  0.1061
 7937W        W23746   9.869  15.935   4.512  0.0417 -0.4253  0.2532
 7938W        W23747  12.945   0.156  13.056  0.0817 -0.5541  0.0480
 7939W        W23748   6.595  14.197  12.511  0.1062  0.1312 -0.2788
 7940W        W23749  16.265  15.914  11.969  0.1658  0.3963  0.2762
 7941W        W23750   4.803  12.699   4.666  0.3784  0.2571  0.2246
 7942W        W23751   6.115  16.342  14.443 -0.1203  0.2569 -0.0087
 7943W        W23752   6.947   6.186   4.317  0.1065 -0.1698 -0.2990
 7944W        W23753  12.828  17.052  12.731 -0.0368 -0.0799  0.1542
 7945W        W23754   4.012  12.056  14.041  0.0620  0.1810  0.0154
 7946W        W23755  12.636  12.728   2.652  0.0084  0.1303 -0.1296
 7947W        W23756  18.387  10.405  12.606 -0.1204 -0.1887 -0.1569
 7948W        W23757   4.400  17.200   3.336  0.2085 -0.1884  0.0568
 7949W        W23758   0.710  18.301   1.198 -0.3094 -0.0192 -0.1102
 7950W        W23759   7.695  12.032  13.155 -0.0275  0.0110  0.0094
 7951W        W23760   4.172  18.600   0.437 -0.1976 -0.0579 -0.0100
 7952W        W23761   3.783  11.807  13.127 -0.0544 -0.2896 -0.1749
 7953W        W23762   4.672  16.288   3.123 -0.0106  0.0961 -0.0694
 7954W        W23763   5.101  14.712  11.816  0.0499 -0.1331 -0.1494
 7955W        W23764  18.700   7.627  12.758  0.2320  0.0486 -0.1319
 7956W        W23765  10.064   2.553   5.118  0.1236  0.3280  0.1846
 7957W        W23766  11.983  13.127   4.227  0.2891  0.2615 -0.0029
 7958W        W23767   9.279  15.076  11.285  0.0595  0.0303  0.1880
 7959W        W23768   3.929  13.878   2.916 -0.0201 -0.4517 -0.0356
 7960W        W23769   3.890  14.380  13.818 -0.0714  0.0691 -0.2986
 7961W        W23770  18.156  15.552   1.882  0.0241  0.0295 -0.1613
 7962W        W23771   0.912   9.190   0.839 -0.1086 -0.0935  0.0767
 7963W        W23772   2.474  17.194  13.797 -0.1730 -0.1683  0.0127
 7964W        W23773  12.990   8.294   0.839 -0.1175 -0.0526 -0.4481
 7965W        W23774   1.468   0.017   4.740 -0.0944 -0.0346  0.1833
 7966W        W23775  15.592   5.931  13.384  0.0367  0.1214 -0.0399
 7967W        W23776   0.022  10.603  13.801  0.3458  0.0162 -0.2105
 7968W        W23777   9.525   8.978  14.494 -0.1473  0.0802 -0.3097
 7969W        W23778   3.801  15.795  11.265  0.2545 -0.0844 -0.2172
 7970W        W23779   2.624  17.046  11.857  0.0812  0.3021  0.0335
 7971W        W23780  11.716  16.985   1.669  0.2999 -0.0573  0.1128
 7972W        W23781  12.692   3.085  11.336  0.1818  0.0276  0.2588
 7973W        W23782   2.222   2.896   4.850 -0.1905  0.3169  0.0366
 7974W        W23783  18.892   2.767   9.615  0.1939  0.0713  0.1831
 7975W        W23784  12.657   8.322  10.881  0.1547 -0.0591 -0.0750
 7976W        W23785   1.688   0.036  13.233 -0.2744 -0.0818  0.2541
 7977W        W23786  13.028   8.591   4.021  0.1425 -0.2382  0.0689
 7978W        W23787   6.691   4.622   0.530 -0.1895 -0.2118  0.1570
 7979W        W23788  14.518  17.078  11.399  0.0963  0.0808 -0.0089
 7980W        W23789   9.269   3.054  12.917  0.1684  0.2316  0.0423
 7981W        W23790  16.320  11.142  13.199  0.0904  0.0011  0.2337
 7982W        W23791   5.272  14.927  12.710  0.1653  0.0148 -0.1469
 7983W        W23792   4.666  10.105  11.909 -0.1578 -0.1668  0.0545
 7984W        W23793   2.808   4.769   1.500 -0.2344  0.1067 -0.1304
 7985W        W23794   1.083   1.348  12.835  0.5149 -0.2568  0.2388
 7986W        W23795   5.414  10.511   0.016  0.3690  0.1717 -0.2244
 7987W        W23796  18.329  17.556   2.988  0.1087 -0.1522 -0.1009
 7988W        W23797   8.420   8.109   2.621 -0.0011  0.0762  0.2654
 7989W        W23798   2.977  15.439  13.616  0.3403 -0.0343 -0.2189
 7990W        W23799   5.966   7.606   1.625  0.0354  0.0660 -0.3725
 7991W        W23800  17.518   0.614  11.975 -0.2397 -0.2247 -0.0237
 7992W        W23801   8.061   3.587   2.447 -0.0705  0.3752  0.0525
 7993W        W23802   7.553  13.025  11.395 -0.2238 -0.0063  0.0692
 7994W        W23803   7.455  18.329   4.496  0.1249 -0.2539  0.0588
 7995W        W23804   3.024  10.029  11.857  0.3617 -0.2334 -0.1309
 7996W        W23805   1.979  14.005  14.146  0.2164 -0.1726 -0.0311
 7997W        W23806   0.520  10.025  14.595  0.1062 -0.1471  0.2425
 7998W        W23807  15.926   9.185   3.663 -0.0958  0.1737  0.0143
 7999W        W23808   7.699  14.540  10.387 -0.4171  0.2150  0.1904
 8000W        W23809   6.412   6.557  10.936 -0.1388  0.2590 -0.2666
 8001W        W23810   9.023   4.654  14.577 -0.2643  0.0128  0.0917
 8002W        W23811   7.345   0.991   4.451  0.0903  0.0050  0.2425
 8003W        W23812   8.533   3.744  10.885 -0.2140  0.0453 -0.2377
 8004W        W23813   6.230  13.784  14.867  0.2563  0.0571 -0.1176
 8005W        W23814   9.089  11.061   5.270 -0.3395  0.1455 -0.1001
 8006W        W23815   9.040   3.668  11.015 -0.0157 -0.0752  0.2113
 8007W        W23816  10.701   6.990   0.948 -0.2225  0.1473  0.0295
 8008W        W23817   9.905  10.599  14.551 -0.2881 -0.2061 -0.0494
 8009W        W23818  17.186  15.550  10.589 -0.2500 -0.2534 -0.2360
 8010W        W23819   4.467  12.969   2.939 -0.3538 -0.0558  0.4236
 8011W        W23820  16.013  18.357   4.639 -0.0728  0.2310 -0.0126
 8012W        W23821   1.206  14.682  11.898  0.0221 -0.2020  0.2303
 8013W        W23822  17.259   1.550  13.259 -0.0215  0.1963 -0.0563
 8014W        W23823   4.623   8.946   3.217  0.1284 -0.0022 -0.0211
 8015W        W23824   6.490   2.848   3.072 -0.1670 -0.1368  0.0196
 8016W        W23825   0.724  17.106  14.988 -0.2639  0.2669 -0.3236
 8017W        W23826   1.456   4.943   1.486 -0.0201 -0.1995 -0.0202
 8018W        W23827   0.246  17.319   2.701 -0.1041  0.1553  0.2292
 8019W        W23828   1.849  10.491   1.390  0.1203 -0.1719  0.1216
 8020W        W23829  10.730  14.930   4.664 -0.3778  0.0810  0.2646
 8021W        W23830  18.903   5.413   0.786 -0.2231  0.0433 -0.4449
 8022W        W23831  10.520   7.219   1.322  0.0797  0.0703 -0.3405
 8023W        W23832   1.361   3.156  14.085  0.0134 -0.1401  0.0799
 8024W        W23833  13.849  15.078   1.903 -0.1547  0.1375  0.1311
 8025W        W23834  12.582   7.861  12.754  0.0582  0.0852  0.0318
 8026W        W23835   4.892   1.506   2.826 -0.1835 -0.1452 -0.0422
 8027W        W23836   7.774   1.782  12.414 -0.4560 -0.1268  0.1396
 8028W        W23837   1.562  11.866   4.612  0.1271  0.0590 -0.1067
 8029W        W23838   8.513   9.944   3.820  0.4308  0.0738 -0.1188
 8030W        W23839  14.491   0.834   2.861  0.1390  0.2054 -0.2387
 8031W        W23840   3.229  12.755  12.606  0.4207 -0.0877  0.1464
 8032W        W23841  12.146  16.148   2.345  0.1267 -0.3415 -0.2382
 8033W        W23842  15.023  12.805   3.618  0.1015 -0.0289 -0.2754
 8034W        W23843   8.104   2.421  13.537  0.0459 -0.0083 -0.2967
 8035W        W23844   5.032  12.616   0.235  0.0760  0.0797  0.1895
 8036W        W23845  12.451   4.717   1.875 -0.5555 -0.0716  0.1653
 8037W        W23846   7.867   2.411   1.526 -0.0906 -0.3383  0.0309
 8038W        W23847  16.787  11.077   0.377 -0.1242  0.0195 -0.1784
 8039W        W23848   6.090   5.979   0.760  0.1793  0.0975  0.1244
 8040W        W23849  17.003   0.251  12.756  0.0088  0.2199 -0.0580
 8041W        W23850  12.830  12.390  14.443  0.0060 -0.0041 -0.0133
 8042W        W23851  14.678   5.559   6.158 -0.1390  0.1039  0.2362
 8043W        W23852  18.911  10.805   4.125  0.1716 -0.2617 -0.0368
 8044W        W23853   6.445  18.968  11.415  0.0012 -0.2409 -0.3177
 8045W        W23854   4.154  18.111   3.586  0.5095  0.1343  0.4226
 8046W        W23855  14.651   8.704   1.509  0.0329 -0.1422  0.0693
 8047W        W23856   6.282  15.949   4.842 -0.3397 -0.0397  0.2199
 8048W        W23857  18.017   3.059  14.437 -0.3330  0.3185 -0.0440
 8049W        W23858  15.282   7.259   4.279  0.3723  0.0539  0.0647
 8050W        W23859  12.756   0.393  11.177  0.0787 -0.1300  0.2178
 8051W        W23860   4.355   6.594  14.668  0.0838 -0.2175  0.1301
 8052W        W23861  16.804   5.519   2.527  0.0670  0.3783 -0.5849
 8053W        W23862  18.549  10.605  13.917 -0.0903 -0.1965  0.0393
 8054W        W23863  13.913   3.790   4.553 -0.1199  0.2684 -0.0085
 8055W        W23864  16.856   9.908   2.140  0.0442 -0.2291  0.0881
 8056W        W23865   9.371  10.500   2.070 -0.3143 -0.0678  0.1620
 8057W        W23866  13.366  12.598  11.801  0.0882  0.0180 -0.1637
 8058W        W23867   4.617  11.152   1.709  0.1705 -0.3848  0.4705
 8059W        W23868   4.003  17.404   4.026 -0.0839  0.0321 -0.1639
 8060W        W23869  16.270  11.377   1.250  0.0128  0.3250 -0.2814
 8061W        W23870  13.850   9.297   9.860  0.0505  0.4481 -0.2846
 8062W        W23871   1.703  14.774   3.822  0.2997  0.0533  0.3972
 8063W        W23872   2.539   3.609   4.428 -0.0907 -0.1129 -0.1066
 8064W        W23873  10.688  15.780  10.922 -0.1115  0.3873 -0.0092
 8065W        W23874  15.906  17.164  10.037 -0.0675 -0.5294  0.2962
 8066W        W23875  10.837   5.585  14.318 -0.2130  0.3118 -0.2610
 8067W        W23876   4.567   9.784  10.969 -0.0456 -0.1451 -0.1817
 8068W        W23877  13.362  15.307   4.832  0.1463  0.2906 -0.1829
 8069W        W23878   6.242   2.549  15.171  0.1321  0.0981 -0.0570
 8070W        W23879   0.044   4.910   1.873 -0.0851 -0.1025 -0.4416
 8071W        W23880  17.469  10.587   1.215 -0.0479 -0.0356 -0.1798
 8072W        W23881  15.443   0.873   2.619 -0.0869 -0.2110 -0.0588
 8073W        W23882   1.581   9.168  11.703  0.0847  0.0812  0.1039
 8074W        W23883   5.352   1.043   1.978  0.1162 -0.2309 -0.0117
 8075W        W23884   6.931   8.538   2.828 -0.2305 -0.1463  0.0834
 8076W        W23885   6.515  11.157  11.580  0.1859  0.2355  0.0097
 8077W        W23886  10.263   5.788   2.574  0.1826 -0.1433  0.0429
 8078W        W23887  15.653   9.939  12.385  0.1346  0.1352 -0.0664
 8079W        W23888   3.747   9.677   1.468 -0.1325 -0.0260  0.1542
 8080W        W23889   4.020  13.102  12.457  0.0184 -0.2530  0.1820
 8081W        W23890   2.924  17.671  13.027 -0.2065 -0.0571  0.0477
 8082W        W23891   1.022   6.747   5.289  0.2502 -0.3411  0.1314
 8083W        W23892   1.620   2.271  14.515 -0.0508 -0.2667 -0.0076
 8084W        W23893  15.309  18.127   3.764  0.2022 -0.5481  0.0933
 8085W        W23894  14.477   9.533   4.660  0.3200  0.0241  0.1604
 8086W        W23895   0.653  18.406  10.887 -0.3081  0.0900  0.2361
 8087W        W23896  13.313   6.300  13.311 -0.0246 -0.0318 -0.0942
 8088W        W23897  10.650  11.363  13.655 -0.1296  0.0502 -0.0962
 8089W        W23898   0.483   6.513   5.095 -0.2071  0.0432 -0.2718
 8090W        W23899  14.967  17.344  11.379  0.2929  0.4309 -0.1339
 8091W        W23900   8.253   0.796  10.469  0.0114 -0.0130 -0.1295
 8092W        W23901   5.432  14.586   2.461  0.1426  0.1054  0.0174
 8093W        W23902  16.959  14.589   1.453 -0.0792 -0.2876 -0.3380
 8094W        W23903  18.289  13.107  14.544 -0.0430 -0.3313 -0.1540
 8095W        W23904   9.553  15.900   4.908  0.0205  0.3452 -0.0545
 8096W        W23905  10.945  14.742   4.271 -0.2025  0.2266  0.5464
 8097W        W23906   0.665   6.435   5.574 -0.0777  0.2846  0.1285
 8098W        W23907  15.446   6.414   2.841 -0.0997 -0.2177 -0.3332
 8099W        W23908   3.428  16.756   3.550  0.1285  0.2898  0.0823
 8100W        W23909  17.905  15.768  13.217 -0.0398 -0.3859 -0.0836
 8101W        W23910  17.134  16.799  13.568 -0.0163  0.1363  0.1506
 8102W        W23911  13.650   6.745  11.293  0.0492 -0.0475  0.0102
 8103W        W23912   9.110   5.413  11.741  0.0835  0.1965 -0.0916
 8104W        W23913  10.747   4.297   3.761  0.0614 -0.1960  0.0249
 8105W        W23914   4.543  12.662  14.717 -0.2387 -0.1979 -0.0537
 8106W        W23915   1.797   2.991   5.033 -0.0510 -0.0469 -0.0790
 8107W        W23916   5.005   4.307  14.190 -0.0213 -0.1782  0.0879
 8108W        W23917   3.659  16.712  14.232  0.0427  0.5090 -0.0990
 8109W        W23918  11.516  18.152   1.535 -0.0412  0.1497  0.2151
 8110W        W23919  13.237  11.461   3.336  0.0569 -0.0201 -0.1427
 8111W        W23920  11.692   2.977   0.967  0.0513 -0.0135 -0.1300
 8112W        W23921   2.928  16.451  13.662 -0.0297 -0.0608 -0.2686
 8113W        W23922   3.182   6.157   3.046  0.2196  0.2105 -0.0898
 8114W        W23923   1.601  12.552  12.599  0.4592  0.0670  0.2551
 8115W        W23924  13.630  18.968   4.645  0.2196  0.1696 -0.1008
 8116W        W23925   3.814  12.924  15.092 -0.2392 -0.0155 -0.1998
 8117W        W23926   1.068  18.462  11.925  0.1749 -0.0625 -0.2500
 8118W        W23927  14.689  11.248  11.372 -0.0249  0.2481  0.1065
 8119W        W23928   6.125   5.767   5.137  0.2531  0.1899  0.1532
 8120W        W23929   8.961  16.821   1.575  0.0773 -0.4086 -0.1648
 8121W        W23930   0.606   2.175   2.432 -0.0962  0.1334 -0.0917
 8122W        W23931  17.482   4.048  14.087  0.0828  0.1606  0.0477
 8123W        W23932   8.118  10.223   2.582 -0.3987 -0.1871  0.0118
 8124W        W23933   1.546  11.841  14.497  0.5469  0.0724  0.1479
 8125W        W23934  10.603   9.169   0.457 -0.2063  0.1590  0.1627
 8126W        W23935   0.616  10.960  10.378  0.0303  0.1460 -0.3766
 8127W        W23936   1.262   6.351   4.385  0.0051 -0.4149 -0.0670
 8128W        W23937   1.160   7.513  10.703 -0.1983  0.0290  0.1095
 8129W        W23938  15.753   3.370  13.722 -0.1317 -0.1018 -0.2358
 8130W        W23939  15.193  16.883  13.174  0.2474  0.3709 -0.0123
 8131W        W23940   5.951   9.640  14.292 -0.0019  0.3635  0.0513
 8132W        W23941   3.915   8.162   5.296 -0.0820 -0.0735 -0.1867
 8133W        W23942   7.742   9.120  12.515 -0.1709  0.0522 -0.1466
 8134W        W23943   4.390  10.003   5.205 -0.1267  0.0779 -0.1058
 8135W        W23944   3.238  13.135  14.780 -0.0475 -0.1158 -0.1562
 8136W        W23945   7.454   2.517   1.211  0.3132 -0.2435  0.1243
 8137W        W23946   7.045  16.632  15.252  0.1780  0.0421  0.0565
 8138W        W23947  11.505  10.021   1.540 -0.2093  0.0874 -0.0340
 8139W        W23948   8.496   9.199  10.453 -0.0154  0.1105 -0.1199
 8140W        W23949  14.975   8.858   5.369  0.2297  0.0377 -0.0963
 8141W        W23950   3.632  11.217  13.580  0.4517 -0.0393 -0.0985
 8142W        W23951   8.492  12.578  11.609 -0.2322  0.0160  0.3287
 8143W        W23952  15.319  11.087   5.559 -0.4624 -0.0309 -0.3027
 8144W        W23953  11.205   4.218   2.787  0.1500 -0.1033  0.2430
 8145W        W23954   6.567  18.408  14.828  0.0041  0.1611 -0.0834
 8146W        W23955  15.957   0.107  11.374  0.2753  0.1001  0.2150
 8147W        W23956   2.565  16.952   4.261  0.0171 -0.1721  0.0317
 8148W        W23957  10.936  12.397  12.741  0.2084  0.0668  0.0203
 8149W        W23958   1.170   3.234  11.513  0.3638  0.1015 -0.2984
 8150W        W23959  13.079  11.801  10.973  0.0018  0.2453  0.2224
 8151W        W23960   8.145  12.318  13.382  0.4692  0.0084 -0.0666
 8152W        W23961  10.493  14.473  12.762 -0.0287  0.2125  0.1803
 8153W        W23962  17.264   0.017   4.907 -0.2947  0.2494 -0.0156
 8154W        W23963  12.323  16.412  14.440  0.1698  0.0592 -0.0867
 8155W        W23964   4.718  13.099  14.532  0.2610  0.1422  0.3116
 8156W        W23965  18.994  12.625  10.795  0.1677 -0.0865  0.0104
 8157W        W23966  15.016   4.485  12.621 -0.1432  0.5206  0.0830
 8158W        W23967  13.499   3.285   3.682 -0.2378  0.3079  0.0963
 8159W        W23968   7.751  13.735  12.316  0.0948 -0.0246  0.0307
 8160W        W23969   1.051   9.028   1.702  0.1948  0.1763 -0.3809
 8161W        W23970  16.355   3.048   4.279 -0.0351 -0.0227  0.2641
 8162W        W23971  13.468  18.849   1.770 -0.4100 -0.0391 -0.1532
 8163W        W23972  18.188  18.515  11.755 -0.3222  0.2064  0.0828
 8164W        W23973  10.658   5.106   4.150 -0.1008 -0.0924 -0.2293
 8165W        W23974  10.290  10.963  13.665 -0.1292 -0.1534 -0.1899
 8166W        W23975  10.403   6.381  12.802 -0.3571 -0.0136 -0.0476
 8167W        W23976  17.169  11.476   0.191 -0.0505 -0.1711  0.2553
 8168W        W23977  15.433   0.097   1.127  0.1208 -0.0226 -0.3615
 8169W        W23978   8.964  13.086  14.868 -0.2235 -0.0333 -0.0094
 8170W        W23979  12.946   5.417   4.568 -0.0643 -0.1555 -0.2152
 8171W        W23980   9.057  18.433   0.556  0.3050  0.1707 -0.1565
 8172W        W23981  11.429  10.551   2.415 -0.3642  0.1240 -0.1467
 8173W        W23982  14.192   9.106   5.994 -0.1763  0.2269  0.0855
 8174W        W23983  14.230  12.400   3.996  0.0910 -0.2354  0.0859
 8175W        W23984   4.643  12.559   3.239  0.0276  0.0368 -0.2263
 8176W        W23985   0.877   9.611  14.039 -0.2742  0.3903  0.1119
 8177W        W23986   6.443  17.205  12.709 -0.0168 -0.4060 -0.1094
 8178W        W23987  16.383  14.470   2.444  0.2921  0.4114  0.2466
 8179W        W23988   6.872  15.602   1.297 -0.1587 -0.1105  0.0113
 8180W        W23989   9.731  14.013   4.732  0.0590 -0.2196 -0.2654
 8181W        W23990   8.736  12.646  15.174  0.1352  0.1515  0.1459
 8182W        W23991   8.161   1.686   3.366  0.0925  0.2497 -0.1115
 8183W        W23992   2.703   0.358  11.820 -0.2785  0.2168  0.0659
 8184W        W23993   8.641   3.725   3.219  0.2899  0.0111  0.0904
 8185W        W23994  15.591   7.045   3.904  0.0278 -0.2013  0.1543
 8186W        W23995   0.648  16.122   1.050  0.5287 -0.3199 -0.0052
 8187W        W23996  16.099   0.615   5.779  0.0691 -0.0984 -0.1801
 8188W        W23997   3.723   9.344   0.908 -0.1056 -0.1281 -0.0879
 8189W        W23998  15.185   8.095   2.704 -0.0308  0.1543  0.0057
 8190W        W23999  12.267   5.521  13.282 -0.2366 -0.0508 -0.0754
 8191W        W24000  16.452  16.273  13.818 -0.4120  0.1511  0.0189
 8192W        W24001  17.858   4.836   5.598  0.2433 -0.0905 -0.0460
 8193W        W24002  13.951  12.946   9.629  0.1936  0.5369 -0.0136
 8194W        W24003   5.947   2.908   2.864 -0.1907 -0.0584 -0.0021
 8195W        W24004   0.824   9.206  10.928 -0.1157 -0.0343  0.0521
 8196W        W24005   5.683  16.723   4.439 -0.2082  0.1301  0.1528
 8197W        W24006   2.312   7.183   2.139 -0.1922 -0.0724  0.0413
 8198W        W24007   1.761   9.092   4.431  0.2114  0.1787 -0.1743
 8199W        W24008   7.252   1.490   2.924 -0.0761 -0.2731  0.0132
 8200W        W24009   6.532   4.651  14.021 -0.1048 -0.1833  0.1259
 8201W        W24010   7.826   5.939   3.312  0.1445 -0.0066  0.1627
 8202W        W24011  17.655  17.586  14.440  0.0286 -0.0003  0.0728
 8203W        W24012  18.167  12.591   2.878 -0.3078  0.1562  0.2351
 8204W        W24013   1.352  17.912  14.883  0.1975  0.2183  0.0012
 8205W        W24014  18.395  10.643  10.324 -0.1341  0.2705  0.1217
 8206W        W24015   4.894   2.592  14.080  0.1235 -0.0050  0.0538
 8207W        W24016   8.158   0.311  10.473  0.1650 -0.1025 -0.1110
 8208W        W24017  12.113   9.304   1.827  0.2471  0.3087  0.2379
 8209W        W24018  12.096   0.218   3.563  0.1809  0.2079  0.0262
 8210W        W24019   4.733  14.039  10.394 -0.2405  0.0016  0.0772
 8211W        W24020   2.836   1.998   0.090  0.1302 -0.1524 -0.1447
 8212W        W24021   6.126   4.961  13.894  0.0573 -0.0697 -0.0030
 8213W        W24022  12.601   2.919   1.711 -0.0268  0.0662 -0.0562
 8214W        W24023  13.272  18.913   1.330 -0.0839  0.2780  0.1191
 8215W        W24024  17.327  16.763   1.444  0.2270  0.0181 -0.1152
 8216W        W24025  13.869   0.349  13.477  0.2325 -0.0079  0.2564
 8217W        W24026  12.110   7.415   5.070 -0.0831  0.0009 -0.0714
 8218W        W24027   6.873   7.170  15.251  0.1377  0.0204  0.0850
 8219W        W24028   2.988  13.090  12.210 -0.2683  0.0717  0.1323
 8220W        W24029  16.520   9.372   0.157  0.2405 -0.1238 -0.2261
 8221W        W24030  17.228   4.421   4.279 -0.0455  0.0074  0.0144
 8222W        W24031  18.875   5.665   3.856  0.1925 -0.1625 -0.5434
 8223W        W24032  17.925  17.717   3.971  0.1598 -0.1418  0.2652
 8224W        W24033  15.079  16.449   0.501  0.0222 -0.0847  0.0096
 8225W        W24034  11.190   3.787   4.739 -0.1246  0.0210 -0.0734
 8226W        W24035  14.652   5.937   3.677  0.0354 -0.2463 -0.0838
 8227W        W24036   6.737   0.912   3.614  0.0600 -0.0906 -0.0352
 8228W        W24037   1.040   4.461  14.570 -0.0715  0.1331 -0.2265
 8229W        W24038  11.026  11.587   2.552  0.0096  0.0951  0.0718
 8230W        W24039  16.803  19.017  12.396 -0.0198 -0.2360  0.0436
 8231W        W24040   1.724   6.308  10.738 -0.0272 -0.0163 -0.0141
 8232W        W24041  14.668   3.473   2.061  0.1073  0.2752  0.1403
 8233W        W24042  12.123  18.964   3.067  0.1454  0.2449 -0.2064
 8234W        W24043  14.151   0.529   4.315 -0.1805  0.0927 -0.1866
 8235W        W24044   0.700  11.762  12.277  0.0333  0.2885  0.4345
 8236W        W24045  16.155  17.601   1.685  0.1435  0.1584  0.0108
 8237W        W24046  18.553   5.704   2.545  0.1369 -0.0908  0.2760
 8238W        W24047   7.777   3.203  10.935 -0.1350  0.0732  0.2128
 8239W        W24048   5.733   3.365   2.988 -0.5722 -0.0530 -0.0933
 8240W        W24049   6.175  15.204  14.741 -0.1185 -0.0227 -0.1218
 8241W        W24050  12.025   9.407  15.115  0.2663 -0.2087  0.1237
 8242W        W24051  18.093   3.619   0.985 -0.0658  0.1248  0.0177
 8243W        W24052   1.920   4.361   0.129  0.2282 -0.0545  0.0729
 8244W        W24053   1.952   7.815  12.981 -0.2213 -0.5318  0.2663
 8245W        W24054  12.358   0.120  14.433  0.1769  0.1210 -0.1686
 8246W        W24055  17.295  12.833   1.019 -0.1897 -0.1045 -0.3293
 8247W        W24056   9.662  17.716  11.712  0.2667  0.0081 -0.2609
 8248W        W24057  11.091  13.372   1.552  0.2218 -0.3387 -0.0564
 8249W        W24058   0.349   0.912  13.318 -0.1119 -0.0824 -0.2439
 8250W        W24059   8.365   7.305   4.240 -0.3063  0.0829 -0.0505
 8251W        W24060   7.335   3.842   4.624  0.0794 -0.0971 -0.4494
 8252W        W24061   2.725  10.085  15.106  0.3679 -0.0934  0.1905
 8253W        W24062  18.787  18.190  14.816  0.0345 -0.1005  0.0618
 8254W        W24063  14.988   2.716   1.280 -0.2766  0.0550 -0.1562
 8255W        W24064  18.752   9.838  13.405  0.3022  0.1375  0.1908
 8256W        W24065   3.513  10.343  13.989  0.1285 -0.1141 -0.2488
 8257W        W24066   0.489   5.837   1.102 -0.3019  0.1378 -0.2980
 8258W        W24067  10.259  16.128  11.788  0.1913 -0.2131  0.2877
 8259W        W24068   3.780   8.866   2.213 -0.1433 -0.3147 -0.0125
 8260W        W24069   5.337  14.094   4.511  0.2478 -0.0164  0.1925
 8261W        W24070  11.680  15.657  12.184 -0.0201 -0.2215  0.1044
 8262W        W24071   0.640   4.920   5.015 -0.4365  0.3826  0.1566
 8263W        W24072   0.326  17.301  10.066 -0.1924  0.3785  0.0845
 8264W        W24073   5.342  17.552   5.685  0.0768 -0.0439  0.0045
 8265W        W24074  16.979  16.096  12.879  0.0336  0.2590  0.2555
 8266W        W24075  11.268  14.894   2.352 -0.0297  0.2309  0.5441
 8267W        W24076   9.773   9.557  13.595 -0.0019  0.0695 -0.0147
 8268W        W24077   3.270   8.750  11.078 -0.1255 -0.0250  0.1083
 8269W        W24078   7.326   1.188   3.946 -0.1581  0.0573  0.1911
 8270W        W24079  14.747   9.114   3.004  0.2776  0.0600  0.0330
 8271W        W24080   0.196   5.521  12.375 -0.0963  0.1056  0.1664
 8272W        W24081  15.667  11.214   2.418  0.1366 -0.2523 -0.0934
 8273W        W24082   6.089  11.710   0.325 -0.1842 -0.1946  0.2207
 8274W        W24083   6.052  13.685   2.508  0.3420  0.1997 -0.0106
 8275W        W24084   7.269  14.319  11.562 -0.1271  0.0232 -0.0258
 8276W        W24085   4.535  14.348   2.432 -0.2708  0.1085  0.2670
 8277W        W24086   8.615  10.215  10.694  0.1591  0.0184 -0.3490
 8278W        W24087   9.416  15.627   1.230  0.1432 -0.0736 -0.3923
 8279W        W24088  11.987  14.070  13.465 -0.0341 -0.1709 -0.1853
 8280W        W24089  17.004  13.959  10.247 -0.3772  0.0238 -0.3657
 8281W        W24090   2.505  17.097  15.148 -0.0293 -0.0375 -0.3480
 8282W        W24091  10.843   6.289  15.084 -0.0818 -0.0592  0.1085
 8283W        W24092  10.583   4.134  14.101  0.1667 -0.2691  0.0700
 8284W        W24093  17.976   9.212   2.069 -0.0826  0.1024 -0.2595
 8285W        W24094   5.618   1.130   0.539  0.0970  0.1005 -0.0254
 8286W        W24095   0.634  10.582  10.905  0.0848 -0.0809 -0.0793
 8287W        W24096   8.401   9.346  13.611 -0.1100 -0.3239  0.0620
 8288W        W24097  17.337  11.388   4.025  0.2331 -0.0509 -0.0171
 8289W        W24098   8.535   1.815  15.245 -0.1573  0.0213  0.1547
 8290W        W24099   7.726   6.912   0.370 -0.0486 -0.1705  0.0394
 8291W        W24100   5.380   8.954   1.355 -0.0852  0.1599  0.1664
 8292W        W24101   1.839  16.614  14.418  0.0173  0.3150 -0.2202
 8293W        W24102   4.104  11.426  11.305 -0.0892  0.1451 -0.1851
 8294W        W24103  14.225  16.894   3.187  0.1308 -0.0092 -0.2431
 8295W        W24104  17.243   8.935  12.087 -0.0643  0.0107  0.0585
 8296W        W24105  11.562   9.221  11.090 -0.5466 -0.3400 -0.1544
 8297W        W24106  14.100   2.601  13.809  0.2031 -0.3071  0.1037
 8298W        W24107   1.110  19.027  12.626 -0.0248  0.0453 -0.0148
 8299W        W24108   9.403   4.380   4.159 -0.0201  0.4078  0.0029
 8300W        W24109  12.380   6.735  12.458 -0.2045 -0.2680 -0.0165
 8301W        W24110   9.373  11.461  14.391  0.2009 -0.1457 -0.0054
 8302W        W24111  17.423   6.145  11.447 -0.2018  0.1484 -0.0369
 8303W        W24112  12.798  17.723  15.266  0.2198 -0.1125 -0.0913
 8304W        W24113   3.773  14.192  10.611  0.1618  0.2349 -0.0636
 8305W        W24114   5.816  13.632   1.391  0.3022  0.1314  0.0273
 8306W        W24115  12.641   3.808   2.778 -0.0504  0.3136  0.1481
 8307W        W24116   9.746   8.773   3.495  0.0754 -0.0214  0.0141
 8308W        W24117   8.628   4.000   4.848 -0.3273 -0.0390  0.0225
 8309W        W24118   3.446   0.768   2.839  0.2053  0.2401 -0.5015
 8310W        W24119  15.235  12.710  14.725  0.0161  0.1209 -0.0247
 8311W        W24120   2.153  13.737   3.501  0.1955  0.3859 -0.0939
 8312W        W24121  13.025  15.808   4.947  0.0924 -0.3318  0.2000
 8313W        W24122   4.340  14.692   0.123  0.0596  0.2655  0.1530
 8314W        W24123   3.140  16.612  11.569  0.2230  0.1323 -0.3133
 8315W        W24124   3.101   9.230   3.700 -0.1837 -0.0779 -0.1238
 8316W        W24125   4.775   7.761   0.952  0.1052  0.1242 -0.0016
 8317W        W24126  11.924  13.186  13.475  0.0289  0.1490  0.2127
 8318W        W24127   8.914   6.560   4.830 -0.1135  0.0143  0.2083
 8319W        W24128  17.936  17.153  13.981 -0.0115 -0.2359 -0.1640
 8320W        W24129  18.094  13.616   2.360  0.2497 -0.3090  0.0874
 8321W        W24130  13.667  15.308   2.672 -0.1164 -0.2691 -0.1531
 8322W        W24131   7.566   7.841  10.496  0.3044  0.0408 -0.1190
 8323W        W24132   6.565  15.504  10.633 -0.0140 -0.3243  0.1669
 8324W        W24133  13.496  16.515  14.788 -0.0981  0.3201 -0.0621
 8325W        W24134  11.056  13.951  11.847  0.0804  0.0357 -0.2060
 8326W        W24135   3.194   8.152   1.212  0.0127  0.1882 -0.0724
 8327W        W24136  14.890   1.298  15.258  0.1594 -0.0705  0.1833
 8328W        W24137  18.841   3.535  11.965  0.0537  0.2980 -0.0141
 8329W        W24138   7.349  14.465  10.862  0.0355 -0.2083 -0.1267
 8330W        W24139   1.533   1.901   0.375  0.1790 -0.0607 -0.2190
 8331W        W24140  11.022   9.415   2.935 -0.3739 -0.1210  0.1016
 8332W        W24141   5.515  14.060   2.613 -0.1374 -0.1410 -0.0534
 8333W        W24142  14.227  17.363  11.037 -0.1463 -0.2409 -0.1473
 8334W        W24143   9.744   5.201   3.828 -0.6260  0.1707 -0.2048
 8335W        W24144  16.429   2.361   5.395  0.1593  0.1736 -0.0483
 8336W        W24145   8.387   1.511   0.358 -0.0262  0.4635  0.3616
 8337W        W24146   8.576  15.380   5.511  0.0907 -0.0683 -0.1938
 8338W        W24147   9.385   7.827  12.922 -0.1011  0.3254 -0.0532
 8339W        W24148  17.161   2.370   1.076  0.1810 -0.2077 -0.0409
 8340W        W24149   5.957  16.573  12.400  0.1356 -0.2436  0.0333
 8341W        W24150  12.022  18.696  14.196 -0.0890  0.0717 -0.1082
 8342W        W24151   0.858  10.087   3.231 -0.0553  0.0406  0.0970
 8343W        W24152  14.476  17.280   2.032  0.0547 -0.0217  0.0934
 8344W        W24153   1.176  12.847   4.842 -0.3201 -0.1137  0.0406
 8345W        W24154   5.160   8.809  13.786 -0.0052 -0.3311  0.1351
 8346W        W24155  12.248  15.925  12.886  0.0566 -0.0842  0.2155
 8347W        W24156   5.060  16.805   0.193 -0.0579  0.1231 -0.1317
 8348W        W24157   4.257  18.069   0.452 -0.1915 -0.2300  0.1033
 8349W        W24158   1.261  12.803   3.307  0.0086 -0.1872  0.0306
 8350W        W24159  16.807  17.287   3.465  0.0649 -0.1663  0.2822
 8351W        W24160   5.075  13.171   1.781  0.3153 -0.2477  0.0538
 8352W        W24161  16.904   1.651   4.268  0.0214 -0.0079 -0.0996
 8353W        W24162   6.915   3.704   3.430  0.2626  0.0091  0.0954
 8354W        W24163   2.322  15.933  14.307 -0.0640  0.5698  0.1529
 8355W        W24164   3.474  16.425  11.969 -0.0487  0.0484  0.1058
 8356W        W24165   0.294   0.113   2.701 -0.2539 -0.1131  0.0213
 8357W        W24166  16.732   9.509  11.819  0.1262  0.1252 -0.0636
 8358W        W24167  15.056  16.876  10.568 -0.0934 -0.2274 -0.0471
 8359W        W24168   2.867  10.249  11.437  0.2854  0.1352  0.0633
 8360W        W24169  14.266   0.685  12.896  0.1086  0.2641 -0.1069
 8361W        W24170  17.813   0.238  11.722 -0.1804  0.1022  0.2238
 8362W        W24171  17.848   9.023  13.621 -0.0795 -0.1063 -0.2502
 8363W        W24172  17.854   0.770  12.325  0.1170 -0.1011 -0.3582
 8364W        W24173   0.651   6.366   0.156 -0.1453  0.0397 -0.1211
 8365W        W24174  18.947  18.677   3.814  0.3174 -0.0241 -0.0415
 8366W        W24175  14.369   3.550   4.322 -0.1146 -0.1976  0.2250
 8367W        W24176   1.066   3.551   4.624  0.0585  0.1016 -0.2900
 8368W        W24177  16.551  18.379  14.975  0.3612 -0.1973  0.0855
 8369W        W24178  17.477  17.307   0.122 -0.0805  0.1926 -0.3097
 8370W        W24179   9.590   5.413   2.573 -0.0462  0.2274 -0.4644
 8371W        W24180  18.058   8.162   4.813 -0.0685 -0.1427 -0.1704
 8372W        W24181   5.960  11.146   0.341  0.2275 -0.3606 -0.3569
 8373W        W24182   0.741   7.308   2.139  0.1197 -0.0249 -0.4048
 8374W        W24183   1.034  17.113  12.745 -0.0089 -0.2373  0.1894
 8375W        W24184   4.428  16.431  14.122 -0.0029 -0.1554  0.3703
 8376W        W24185  17.748   7.815  11.311  0.1447  0.1243 -0.1969
 8377W        W24186  10.775   6.701  11.467 -0.0904 -0.0933 -0.1019
 8378W        W24187  13.123   5.827   3.029  0.1065 -0.1321  0.2907
 8379W        W24188  11.163   8.299   1.802  0.2503  0.0727  0.1335
 8380W        W24189   1.700   4.137   5.422  0.1516 -0.0577 -0.2437
 8381W        W24190  13.803  17.591  11.808  0.2687 -0.0047  0.0269
 8382W        W24191  17.982   0.823   3.377  0.0799  0.1557 -0.0218
 8383W        W24192   7.515   8.387   5.607  0.3468 -0.3037  0.0201
 8384W        W24193   0.837  15.346   0.460 -0.0213  0.1508  0.0196
 8385W        W24194  11.246  16.610   1.617  0.0098  0.0814  0.2990
 8386W        W24195  10.320   5.041  13.824  0.4069  0.1157 -0.1326
 8387W        W24196   9.661  16.679  11.989  0.1948  0.3341  0.1185
 8388W        W24197  11.838   7.083  14.450  0.1759 -0.1111  0.1986
 8389W        W24198   0.460  10.995   1.306  0.0598  0.1303  0.2071
 8390W        W24199  17.711   0.494   3.075 -0.3880  0.4059 -0.2044
 8391W        W24200  14.479  16.162  15.179 -0.2594  0.0808 -0.1334
 8392W        W24201  11.588  12.400  13.980  0.1204  0.0731  0.0924
 8393W        W24202   2.235   5.148   5.078  0.1545  0.1714  0.1866
 8394W        W24203  15.205  10.855  14.149  0.3799 -0.0826 -0.0393
 8395W        W24204   3.440  11.904   1.342  0.1204 -0.1853 -0.2204
 8396W        W24205  14.826   5.889  10.253 -0.0185 -0.0877 -0.1458
 8397W        W24206  11.579  16.928   3.987  0.1107  0.3827 -0.1901
 8398W        W24207  15.277   1.328   2.492 -0.2696  0.1172 -0.4029
 8399W        W24208   3.201   7.303  12.367  0.1115 -0.0978  0.0229
 8400W        W24209   2.311   4.289  12.745  0.0365  0.2553  0.1565
 8401W        W24210   0.617   4.951   1.250 -0.1920  0.2188  0.1308
 8402W        W24211  18.558   0.223   1.339 -0.2931  0.3342 -0.0685
 8403W        W24212   6.351   8.956   5.101 -0.0863 -0.2082 -0.1888
 8404W        W24213  12.267  12.843   3.143  0.3056 -0.1339 -0.1038
 8405W        W24214  15.151  15.266   2.967  0.1916 -0.2724 -0.0070
 8406W        W24215   7.630  11.435   4.388 -0.1319 -0.0278 -0.3642
 8407W        W24216   5.427   9.200  11.435 -0.1429  0.3047 -0.2968
 8408W        W24217   5.953   0.388  12.559 -0.0004  0.1413  0.0820
 8409W        W24218   1.341   6.098   4.840 -0.2864  0.1167 -0.1956
 8410W        W24219   3.976   6.243  13.926  0.3380 -0.1223  0.2751
 8411W        W24220   1.633   6.021   3.500 -0.0571  0.1575 -0.3510
 8412W        W24221   3.406   7.762  12.148 -0.0591 -0.1709 -0.0988
 8413W        W24222   5.902   8.949  11.585 -0.0039 -0.1063 -0.1361
 8414W        W24223   9.582   8.641   4.418 -0.0386  0.0808 -0.2625
 8415W        W24224  16.678   8.700   3.413 -0.0770  0.2469 -0.2854
 8416W        W24225  11.985   2.212  12.137 -0.0431 -0.0626  0.0616
 8417W        W24226   3.708  14.227   0.729  0.2981  0.0606 -0.1553
 8418W        W24227  12.850   5.807  12.023  0.0022 -0.0521 -0.1779
 8419W        W24228   2.294  14.656  11.267  0.2093  0.2236  0.0021
 8420W        W24229  14.211   0.182  12.219 -0.0490  0.0338 -0.1659
 8421W        W24230  18.337  10.131   1.478  0.2379 -0.2842 -0.3233
 8422W        W24231  16.538  15.839   1.718  0.0018  0.1161  0.2653
 8423W        W24232  10.172   6.666  13.632  0.0555 -0.4342  0.0407
 8424W        W24233   0.247   2.703   2.552  0.1196  0.0695 -0.0914
 8425W        W24234   7.333   2.146   3.714 -0.1633 -0.3242  0.0617
 8426W        W24235  12.079   3.076   2.553 -0.1445  0.0854  0.1371
 8427W        W24236   7.043   4.107  14.316  0.1988  0.0818 -0.2375
 8428W        W24237   6.175   5.565  13.427  0.0389  0.0697  0.2614
 8429W        W24238   5.351  16.854  12.926 -0.0911 -0.2939  0.0602
 8430W        W24239  17.356  15.945  14.914 -0.1364 -0.2005 -0.0622
 8431W        W24240  14.022  13.810   5.101 -0.3284 -0.1295  0.1310
 8432W        W24241   6.891  10.668   4.504  0.1052 -0.0611 -0.1622
 8433W        W24242   4.674  11.449  12.211 -0.3940  0.1201 -0.1904
 8434W        W24243  16.433  13.445   4.913  0.1882 -0.0328  0.0952
 8435W        W24244   7.907   9.489   3.202 -0.0661  0.1604  0.2251
 8436W        W24245  18.273  18.121   3.059  0.5124 -0.0127 -0.1206
 8437W        W24246   1.337   7.785   2.840  0.0620 -0.1739  0.3410
 8438W        W24247  16.092   2.496   4.971 -0.0682 -0.0453  0.1188
 8439W        W24248  15.337  11.670  13.495  0.1035 -0.1566 -0.2404
 8440W        W24249  13.673   8.803  12.770  0.1999 -0.2393  0.1135
 8441W        W24250   9.653  16.587   4.773  0.1421 -0.5805  0.1837
 8442W        W24251   2.341   3.308  13.914  0.3514 -0.0469 -0.0457
 8443W        W24252  17.080  14.498  15.257  0.1078  0.1513  0.0771
 8444W        W24253   9.785  10.288   2.275  0.0128  0.1052 -0.0403
 8445W        W24254  16.771  13.561  11.628  0.0517  0.1111  0.2287
 8446W        W24255  11.352  10.206  13.695  0.0098  0.0678  0.2089
 8447W        W24256  12.213  18.251   2.260  0.1000 -0.0196 -0.0691
 8448W        W24257  12.209   2.973  12.771 -0.1307 -0.2129 -0.1352
 8449W        W24258  13.659  13.264  11.432  0.0244 -0.1297 -0.2504
 8450W        W24259   9.864  11.326   4.424  0.1486 -0.2370  0.2952
 8451W        W24260  10.612  17.549   0.689  0.1146  0.2116 -0.0270
 8452W        W24261  14.458  16.205  11.779  0.2495  0.3580  0.2479
 8453W        W24262  12.543  10.217  14.257 -0.2493  0.6390  0.5178
 8454W        W24263  16.826   8.503   4.341 -0.1118  0.1388 -0.0610
 8455W        W24264   7.697  14.484  14.803  0.0942  0.0928 -0.1765
 8456W        W24265   9.492  10.293   0.946  0.1088 -0.2428 -0.0415
 8457W        W24266  16.774   8.678  13.807  0.0098  0.0019  0.1974
 8458W        W24267  13.458  17.814   0.458 -0.2556  0.3222  0.0672
 8459W        W24268   9.641   5.006   2.233 -0.1269  0.0962  0.0577
 8460W        W24269  11.187   3.251   2.611  0.2448  0.0507 -0.0173
 8461W        W24270  12.053   0.517   0.617 -0.0992 -0.2533 -0.1390
 8462W        W24271  12.659  14.106   3.886 -0.3478 -0.0568  0.3287
 8463W        W24272  10.303   0.225   1.761  0.1723 -0.0822  0.1398
 8464W        W24273   3.175   2.208  14.006 -0.2837  0.0620  0.0239
 8465W        W24274  18.033  15.846  12.442 -0.3637 -0.2857 -0.0187
 8466W        W24275   6.428  13.422  14.589 -0.5066 -0.0753 -0.4339
 8467W        W24276   4.628   4.435  12.185  0.0359 -0.1083 -0.0134
 8468W        W24277   8.286   8.217  11.867 -0.1489 -0.1340 -0.0665
 8469W        W24278  11.812   6.667   0.441 -0.0039  0.1870  0.0249
 8470W        W24279   5.032  18.246   4.420 -0.0911 -0.2754  0.2275
 8471W        W24280   4.300  10.143  11.521 -0.2850  0.2540 -0.0154
 8472W        W24281  16.579   0.267  11.260  0.3342 -0.1107  0.2834
 8473W        W24282   8.571  15.967   0.576  0.0135  0.0630 -0.1428
 8474W        W24283  18.106  18.295   3.636  0.0610  0.2911  0.1854
 8475W        W24284  13.646   1.122   9.813  0.4707 -0.0506  0.2632
 8476W        W24285  18.913  18.495  13.004 -0.2468 -0.1987  0.0096
 8477W        W24286  17.447   6.274  14.993  0.0733 -0.0371 -0.1527
 8478W        W24287   2.826   6.011   1.005  0.2734  0.2683 -0.4696
 8479W        W24288  13.235  12.321  11.204 -0.2551 -0.0979  0.1123
 8480W        W24289  12.504  16.348  13.186  0.0897 -0.2667  0.0024
 8481W        W24290   6.537   2.918  15.087 -0.1299  0.1898 -0.1154
 8482W        W24291  11.991   9.678   1.544 -0.1566 -0.2066  0.0618
 8483W        W24292   0.544   5.168   3.170  0.0954 -0.0669 -0.1970
 8484W        W24293  10.750  15.806   1.051 -0.0109 -0.3258 -0.2147
 8485W        W24294  15.424   3.047   1.064  0.0012 -0.0061  0.3028
 8486W        W24295   5.167   7.937  14.433 -0.0473  0.2182 -0.0313
 8487W        W24296   5.177   7.849  12.044 -0.2767 -0.1874 -0.2760
 8488W        W24297   2.591  14.132   5.227  0.1336 -0.0460  0.4095
 8489W        W24298  18.394  12.660  11.637 -0.1989 -0.0996 -0.2168
 8490W        W24299   0.422   2.058  12.093  0.0168 -0.0607  0.3178
 8491W        W24300   0.402  14.563   0.802 -0.0847 -0.3523 -0.4101
 8492W        W24301  17.901  17.992  10.756 -0.1693  0.0406  0.1648
 8493W        W24302  18.307   8.389   1.969 -0.0127 -0.1051  0.2178
 8494W        W24303  16.434   3.722  12.015 -0.0426 -0.1285 -0.0513
 8495W        W24304  16.688  18.052   3.712  0.2935 -0.0800  0.2394
 8496W        W24305  11.408   7.485  13.573 -0.2054 -0.0760  0.2281
 8497W        W24306   0.433  17.584  14.247 -0.0637  0.1497  0.2617
 8498W        W24307   9.143  10.767   0.333 -0.0890  0.1506 -0.0435
 8499W        W24308  16.297  15.691   1.039  0.2550 -0.1206 -0.2767
 8500W        W24309   6.253   6.847   2.765 -0.4309  0.0853  0.0216
 8501W        W24310   2.303   2.377   4.091 -0.1284  0.1831  0.0290
 8502W        W24311  17.033   5.036  14.571  0.1082  0.6554 -0.2341
 8503W        W24312  10.075  11.563  13.120 -0.0864  0.1421 -0.5995
 8504W        W24313  13.709  15.974   3.392  0.3756 -0.0964  0.0376
 8505W        W24314   4.296   7.678  12.060  0.2293  0.0773 -0.2131
 8506W        W24315  10.750  13.503   5.245 -0.1317 -0.1179 -0.0682
 8507W        W24316  14.320   1.962  15.189  0.0037 -0.2250  0.0685
 8508W        W24317  10.009   4.893   0.473 -0.3294 -0.0841 -0.3550
 8509W        W24318  10.624  16.959  14.180  0.1779 -0.1389  0.1160
 8510W        W24319   4.755  10.554   3.691 -0.0544  0.1614  0.1019
 8511W        W24320  18.012   2.446   0.402  0.0888 -0.1556 -0.1241
 8512W        W24321  16.209  14.164   0.945 -0.1889 -0.2091  0.0577
 8513W        W24322   2.270   2.114   0.925 -0.0236 -0.1804  0.0718
 8514W        W24323   8.080   2.386   2.108 -0.0544 -0.1997 -0.0657
 8515W        W24324   2.077  10.744  14.909 -0.1046  0.1192  0.1339
 8516W        W24325  14.374   3.117   0.585  0.1100  0.2066 -0.1791
 8517W        W24326  14.741  11.069   0.137 -0.1026 -0.0314 -0.1958
 8518W        W24327   1.247   5.915   1.338 -0.0040  0.1162 -0.0302
 8519W        W24328  11.748  14.759   1.141  0.1845 -0.2231 -0.1075
 8520W        W24329  16.077  18.661   5.095  0.1513 -0.1621 -0.2404
 8521W        W24330   9.799  11.144   3.954  0.0747  0.0647 -0.0137
 8522W        W24331  11.086  10.992   3.140  0.0391  0.1926  0.0023
 8523W        W24332   5.791  14.811  10.496  0.0835  0.0187  0.0767
 8524W        W24333  17.337   0.055  11.861  0.3533  0.2071 -0.1457
 8525W        W24334  12.629  16.440   4.668 -0.0681 -0.2841  0.0896
 8526W        W24335  15.839   3.102   2.484 -0.1541  0.1542 -0.0806
 8527W        W24336   7.804   7.500   4.420 -0.3287 -0.1396 -0.0808
 8528W        W24337  14.685  16.809  12.760  0.1078 -0.1831 -0.0866
 8529W        W24338  10.365   8.867   0.089 -0.0479 -0.0223  0.0005
 8530W        W24339  10.110   1.302   5.431  0.4582  0.1406  0.0789
 8531W        W24340  15.812  15.713   0.533  0.2796 -0.0831  0.1696
 8532W        W24341   4.733  18.581  11.763  0.1303 -0.0766 -0.3891
 8533W        W24342  12.312   9.980   0.679  0.1750  0.2609 -0.1728
 8534W        W24343   6.976   3.685   2.558  0.0196  0.0647  0.1106
 8535W        W24344   4.747  10.853  12.237  0.0900 -0.1311  0.0517
 8536W        W24345  12.545  14.504   3.627  0.0104 -0.1802 -0.1068
 8537W        W24346  16.744   1.363  13.623  0.0250  0.0977 -0.0762
 8538W        W24347  17.615   3.182  15.076  0.0113  0.1049 -0.0772
 8539W        W24348   8.838   3.103  15.085 -0.0707  0.0855 -0.1863
 8540W        W24349   4.612  15.222  11.534  0.0929 -0.4080 -0.0634
 8541W        W24350   8.950  12.234   4.822  0.1887 -0.0875  0.0872
 8542W        W24351  10.706   8.871   3.029  0.0527  0.1227  0.0158
 8543W        W24352  17.094  16.954   4.329  0.1012  0.2230 -0.0682
 8544W        W24353  18.201  12.643   2.384  0.0376  0.2784  0.1012
 8545W        W24354   7.650   5.892  13.139  0.1786 -0.2035  0.0102
 8546W        W24355   8.051   1.065  13.429 -0.4383  0.1849  0.3430
 8547W        W24356   9.438  18.018  10.843  0.0100 -0.1678  0.1857
 8548W        W24357   2.889  16.264   0.011 -0.0755  0.1171 -0.2545
 8549W        W24358   3.667  15.174  11.858  0.2962 -0.2037 -0.2930
 8550W        W24359   2.704  12.545  12.027  0.2329 -0.2665  0.0906
 8551W        W24360  15.923  12.485   5.065 -0.1041 -0.1950 -0.1303
 8552W        W24361  16.718   7.860  14.350  0.1291  0.4280 -0.0736
 8553W        W24362   3.816  17.306  15.045 -0.0158  0.0294  0.1440
 8554W        W24363   5.159  12.315  12.354 -0.0879 -0.0692 -0.2963
 8555W        W24364  10.886   5.554  10.832  0.0195 -0.1257  0.0909
 8556W        W24365  17.615  18.105   5.395  0.2164  0.0487  0.0135
 8557W        W24366   8.617  16.766   1.226 -0.2078 -0.0554 -0.0512
 8558W        W24367  10.565  15.907   2.437 -0.1766 -0.2177  0.3747
 8559W        W24368   8.858   4.321   3.497 -0.0536 -0.0206  0.4030
 8560W        W24369  13.458  13.842   2.527  0.0593 -0.1166  0.1515
 8561W        W24370   9.393   8.951   3.056  0.1182  0.3394 -0.0708
 8562W        W24371   4.774   1.147  13.328 -0.0131 -0.0933 -0.1250
 8563W        W24372   5.858   4.421   5.362 -0.1422  0.1454  0.2418
 8564W        W24373  16.496   1.128   3.410 -0.1131 -0.0736 -0.1647
 8565W        W24374  13.069   8.125  11.511  0.1517 -0.2163 -0.0284
 8566W        W24375  14.465  10.501  15.150 -0.0740 -0.1689 -0.0563
 8567W        W24376   0.259  13.004  11.472 -0.0335  0.0607 -0.5243
 8568W        W24377   9.217  12.666  14.962  0.0639 -0.0889 -0.0884
 8569W        W24378  18.693   8.427  15.176 -0.3655  0.1349 -0.1280
 8570W        W24379   6.842  15.818   1.808  0.0763 -0.0141 -0.2232
 8571W        W24380  12.504   6.441  12.014 -0.1496 -0.0728  0.1891
 8572W        W24381  14.572  12.261   3.657  0.2736 -0.0168 -0.0651
 8573W        W24382  10.790   5.239  12.893 -0.0226 -0.1603  0.2022
 8574W        W24383  18.027  11.498  13.167 -0.0208 -0.2091 -0.1169
 8575W        W24384  14.321  11.080  12.949 -0.0726 -0.0554 -0.2381
 8576W        W24385   7.958   9.580   0.703 -0.1835 -0.0356 -0.1093
 8577W        W24386  12.590  12.365   4.961  0.4015  0.3517 -0.2283
 8578W        W24387  18.328   5.001  13.790 -0.0960  0.1802 -0.0714
 8579W        W24388   8.248  17.243   0.608 -0.0734  0.1166  0.1398
 8580W        W24389   0.531   6.605   4.540  0.0439 -0.0256 -0.0456
 8581W        W24390  11.226  15.922  10.889 -0.1657 -0.0336  0.3824
 8582W        W24391   7.209  10.779  12.239 -0.2998 -0.0134 -0.0946
 8583W        W24392   3.876  14.465   2.306  0.0386 -0.0611  0.3930
 8584W        W24393   5.666  18.819   0.862 -0.2063 -0.0184  0.1395
 8585W        W24394   9.993   1.397  12.744  0.0616  0.1423 -0.1273
 8586W        W24395  13.231  17.335  11.180 -0.1085  0.0269 -0.1635
 8587W        W24396  17.798   6.464   0.129 -0.1915  0.0446 -0.1485
 8588W        W24397  12.688   7.026  13.851  0.1356  0.1561 -0.0421
 8589W        W24398   7.566   6.879  12.306  0.1482 -0.0322  0.1343
 8590W        W24399  12.679  17.433   1.530  0.0950 -0.3094  0.1965
 8591W        W24400  15.775   0.464  13.506 -0.2881  0.0151 -0.1918
 8592W        W24401   1.238  14.486   2.692  0.0201  0.0407  0.2800
 8593W        W24402  18.657   1.464  11.863 -0.1323  0.0072  0.0311
 8594W        W24403  13.207   0.029   5.564  0.0222 -0.0164  0.2588
 8595W        W24404  14.487  10.720  13.330 -0.1249 -0.0304  0.2934
 8596W        W24405   0.627  18.058  14.169 -0.0246 -0.1903  0.2531
 8597W        W24406   7.719   9.596   2.644  0.0720 -0.1206  0.2500
 8598W        W24407   7.682   0.618  12.629 -0.0591  0.0375 -0.1138
 8599W        W24408   7.754  18.060   2.675  0.0741 -0.0867 -0.2433
 8600W        W24409   3.487   5.376   1.270  0.3164  0.2362 -0.0649
 8601W        W24410  16.655   9.957   4.678 -0.1995 -0.0800 -0.0560
 8602W        W24411   0.376   0.557   2.206  0.2571 -0.4834  0.5398
 8603W        W24412   2.151  10.353   5.449  0.0520 -0.3331  0.2463
 8604W        W24413  15.905  16.733   4.264  0.1048  0.1215  0.2164
 8605W        W24414   0.540  13.238   2.271  0.2973  0.1134 -0.2778
 8606W        W24415  18.779  18.723   0.999  0.1530 -0.0297  0.0140
 8607W        W24416  10.773  16.152  12.900 -0.3391  0.3116 -0.0957
 8608W        W24417  17.165  18.965  15.076 -0.2743  0.1427 -0.1416
 8609W        W24418  15.994   8.728  13.416 -0.0451 -0.0505  0.0784
 8610W        W24419  15.757   0.353   0.173  0.0248  0.1725 -0.0654
 8611W        W24420  17.714   9.816   4.302  0.2467  0.0717 -0.2278
 8612W        W24421   7.092   7.564   3.961  0.4162  0.0634 -0.1040
 8613W        W24422   6.131  12.017   2.344 -0.1786 -0.1253 -0.1888
 8614W        W24423   4.625  17.635   2.680  0.0135  0.1361  0.0163
 8615W        W24424  14.090  14.901  12.894  0.1918 -0.2185 -0.2553
 8616W        W24425  17.021   7.260   4.144  0.1481 -0.0147  0.3078
 8617W        W24426   1.172   0.672   2.934  0.3612 -0.2168  0.2503
 8618W        W24427   7.406   9.221  12.164 -0.2323 -0.0119 -0.1545
 8619W        W24428   6.124   2.049   4.109 -0.0237  0.1811 -0.1395
 8620W        W24429  11.389  13.414  13.865 -0.1663 -0.2929  0.2703
 8621W        W24430   9.685   5.646  13.486  0.1359 -0.1704 -0.0200
 8622W        W24431   6.619   2.359   0.168 -0.0718 -0.0362  0.1307
 8623W        W24432   5.196   5.038   2.972 -0.1130 -0.0297 -0.2383
 8624W        W24433  18.247  18.090  14.584  0.1305  0.2624  0.0831
 8625W        W24434  11.046  15.455  13.701 -0.2440  0.1486 -0.3525
 8626W        W24435  11.681   9.112   1.851 -0.0856 -0.1977  0.1859
 8627W        W24436   6.790  15.209  13.969  0.3384 -0.1774  0.0814
 8628W        W24437  11.286  11.862   4.302  0.1429  0.0973  0.0150
 8629W        W24438  17.284  13.080   2.704  0.0989 -0.1496  0.1309
 8630W        W24439   1.416   8.062   4.839  0.1218  0.0787 -0.0995
 8631W        W24440   0.128  14.482   3.820 -0.1886 -0.2353 -0.1330
 8632W        W24441  18.137  18.934  12.157  0.2281 -0.0954 -0.3066
 8633W        W24442   7.467   4.104  12.017 -0.3726  0.0685  0.0254
 8634W        W24443  16.471   4.225   0.168  0.1040  0.0661 -0.3457
 8635W        W24444  17.127  12.752   3.792  0.1126 -0.2068 -0.0679
 8636W        W24445  10.515  14.873  14.914 -0.3592  0.3940 -0.1306
 8637W        W24446   8.743   9.813  11.444 -0.0764 -0.2610  0.0060
 8638W        W24447  18.999   7.769  10.707 -0.1278 -0.0800 -0.1594
 8639W        W24448  13.850  14.628   1.688  0.2926 -0.0473  0.2445
 8640W        W24449  11.758   2.031   4.037  0.3913  0.1756 -0.2250
 8641W        W24450   0.450   7.388  13.182 -0.0309  0.1766 -0.0083
 8642W        W24451   8.416  13.047   5.198 -0.0616  0.1052  0.0028
 8643W        W24452  14.926  11.545   4.823 -0.2025  0.6022  0.1078
 8644W        W24453   2.628   8.403   0.663 -0.2097  0.0053  0.0841
 8645W        W24454  15.211  14.653  13.848 -0.2133  0.2475 -0.2410
 8646W        W24455  10.144  14.871   2.085 -0.3263 -0.2636 -0.3180
 8647W        W24456  18.564   0.002  12.423 -0.3078  0.3677 -0.0937
 8648W        W24457   3.631   2.953   2.794  0.1364  0.0558  0.1832
 8649W        W24458   3.745   0.341  12.826 -0.3924 -0.3164 -0.0177
 8650W        W24459   5.222   1.876   2.905 -0.1571  0.1765  0.0092
 8651W        W24460   7.594   3.202   2.190  0.1108  0.2096 -0.3177
 8652W        W24461   9.152  13.989   0.180 -0.3566 -0.3311  0.0130
 8653W        W24462  18.003  12.807  11.256 -0.0211 -0.1174  0.5310
 8654W        W24463  18.826  16.191  11.126 -0.2756  0.0128  0.0427
 8655W        W24464  11.661  17.352   4.241 -0.3758  0.1782 -0.0048
 8656W        W24465   4.488   1.603   0.782  0.2954 -0.1920 -0.0789
 8657W        W24466   8.769   4.410   1.200  0.1194  0.0068  0.2250
 8658W        W24467   6.733  18.599   0.391 -0.1130  0.1836  0.0705
 8659W        W24468  18.208   2.962  13.176 -0.0100  0.3010 -0.2280
 8660W        W24469   6.981   4.233   0.957 -0.0246  0.0542 -0.2462
 8661W        W24470  14.041   1.894   2.924 -0.1224  0.1099  0.2645
 8662W        W24471  17.343   3.800   4.694 -0.0733  0.2364  0.1174
 8663W        W24472   2.018   6.299   4.418  0.2731 -0.1172  0.0599
 8664W        W24473   6.171   2.737   4.164  0.0860 -0.0861 -0.1595
 8665W        W24474   3.890  10.859  14.646 -0.2296  0.0878  0.1276
 8666W        W24475   6.779   3.028  13.316  0.2151  0.1621 -0.3130
 8667W        W24476   8.460  12.155   4.771 -0.1044  0.1040 -0.1200
 8668W        W24477  14.780  10.235   4.243  0.2020 -0.2066 -0.1056
 8669W        W24478   3.154   1.431   4.105 -0.0573 -0.0239 -0.0903
 8670W        W24479  13.745  16.945   3.302 -0.0563  0.0729 -0.4128
 8671W        W24480  14.905  12.372  14.358  0.1436 -0.1393  0.1130
 8672W        W24481  13.264   0.537  13.606 -0.2298 -0.1753  0.0514
 8673W        W24482   1.502  18.716   3.908  0.1798  0.1002 -0.0878
 8674W        W24483   4.639  15.525  12.278  0.0164  0.1920 -0.1464
 8675W        W24484  15.442  13.983   3.897  0.0285 -0.0590 -0.0001
 8676W        W24485  12.762   7.072  11.215 -0.2584  0.0939 -0.2705
 8677W        W24486   4.674  15.028  10.275 -0.1019  0.0291  0.2330
 8678W        W24487   1.719  10.227  14.958  0.2115  0.0200 -0.2119
 8679W        W24488   2.749  16.845   1.247  0.3292 -0.0701 -0.0848
 8680W        W24489  14.360   3.227  14.634  0.2381  0.1863 -0.0571
 8681W        W24490  15.947   6.783   3.124  0.0830  0.1024 -0.1075
 8682W        W24491  18.109   7.725  13.109  0.0227 -0.0983  0.0516
 8683W        W24492   3.829   4.696   4.863  0.2540  0.0890 -0.1302
 8684W        W24493  14.894   0.313   3.862  0.0273 -0.0239 -0.0318
 8685W        W24494   3.680  13.037  10.799  0.0572 -0.1888 -0.1432
 8686W        W24495   0.155   6.338   4.783  0.0322  0.1466 -0.2349
 8687W        W24496  10.372   8.465  15.100  0.0851 -0.0159  0.3509
 8688W        W24497   3.648  11.479  12.306 -0.0877  0.0883 -0.2078
 8689W        W24498  14.808  18.677   5.113  0.0907  0.0680 -0.1055
 8690W        W24499  10.529  12.552  11.708  0.1723 -0.1303  0.0829
 8691W        W24500   4.440   1.221   1.623 -0.2391 -0.3753  0.1594
 8692W        W24501  11.159   5.082  13.760 -0.2298  0.0745  0.0064
 8693W        W24502   2.015   2.364   0.562  0.0210 -0.0779 -0.1910
 8694W        W24503  12.757   5.405  10.904  0.2362 -0.1165 -0.1056
 8695W        W24504  14.082   7.189   0.715 -0.0708  0.1103  0.0601
 8696W        W24505  14.419   4.194   3.118  0.2509  0.0986  0.1552
 8697W        W24506  10.603   2.875   1.876  0.0981 -0.0086 -0.1997
 8698W        W24507  15.520   9.877   5.198  0.0440  0.1669  0.0710
 8699W        W24508   2.442   9.396   3.170  0.1415 -0.2153  0.0917
 8700W        W24509   3.490   4.713   9.219 -0.1345  0.0721  0.1012
 8701W        W24510   1.686  16.648  14.951  0.1077 -0.0642  0.3340
 8702W        W24511   7.309   7.381   4.416 -0.2298 -0.0265  0.0539
 8703W        W24512  10.066   1.933   2.743 -0.0911 -0.1699 -0.1880
 8704W        W24513   0.595  12.094  14.806  0.1021 -0.1458  0.3481
 8705W        W24514   4.426  17.351  10.907 -0.1256  0.0794  0.1392
 8706W        W24515   4.141   2.179  12.667 -0.0156  0.0392 -0.1797
 8707W        W24516  10.018   7.207   1.246  0.0056 -0.0294 -0.1439
 8708W        W24517  11.263  11.721   1.511  0.0897 -0.2532  0.1449
 8709W        W24518   1.772  14.655   2.338 -0.0050 -0.0844  0.1412
 8710W        W24519   4.562  10.003   0.647  0.0151  0.0745  0.0845
 8711W        W24520  12.743   4.850   4.709  0.2385 -0.3267 -0.0778
 8712W        W24521   5.919   8.469   0.587 -0.0164 -0.1066  0.0247
 8713W        W24522   2.188   0.489   1.038  0.1565 -0.0528 -0.3920
 8714W        W24523  12.590   8.452  13.999  0.0041 -0.2666  0.5246
 8715W        W24524   0.275  14.147  13.926  0.0589 -0.1249 -0.2481
 8716W        W24525   1.864  13.927  14.698  0.1319  0.0865 -0.1758
 8717W        W24526  13.347   9.014   0.622  0.1464 -0.2874 -0.0446
 8718W        W24527   8.444   8.477  13.031  0.0794  0.0404  0.3968
 8719W        W24528   5.441  11.392   2.082 -0.3995 -0.0512  0.2203
 8720W        W24529   9.340   9.236  13.441  0.3776  0.0089 -0.1610
 8721W        W24530   5.332   2.507  13.246 -0.1502 -0.2534  0.4637
 8722W        W24531   1.516  16.119   0.521 -0.0096  0.4385 -0.0432
 8723W        W24532  18.618   8.166  13.628  0.0499  0.3801  0.1756
 8724W        W24533   0.444  10.083  12.244 -0.0277 -0.2851 -0.2827
 8725W        W24534  10.208   3.631  11.897  0.1353 -0.2943  0.0346
 8726W        W24535   5.902   8.818  12.705 -0.0025 -0.4041 -0.0075
 8727W        W24536   9.217  11.960  10.390  0.1366 -0.0382  0.2532
 8728W        W24537  11.700  18.440  13.308  0.1337 -0.1517 -0.1604
 8729W        W24538  12.594   0.493   1.091  0.0990  0.0594  0.0146
 8730W        W24539  14.863  17.662   3.406 -0.0709  0.0294  0.1488
 8731W        W24540  17.655  17.102   3.297  0.2621  0.0637 -0.2348
 8732W        W24541   9.113  15.420  12.671  0.1409 -0.2514 -0.0713
 8733W        W24542   8.208   9.809   2.883 -0.0722  0.0747 -0.2206
 8734W        W24543  15.230  10.242  12.680 -0.0010  0.0208 -0.2589
 8735W        W24544  16.860   5.723   9.840  0.1353 -0.0120  0.3164
 8736W        W24545   0.748   9.778   3.624  0.0442 -0.2585 -0.1635
 8737W        W24546   0.208   1.060  11.996  0.1538  0.0480 -0.0823
 8738W        W24547   6.783  11.287  13.857  0.5610  0.3065 -0.1299
 8739W        W24548  11.059   5.157   2.434 -0.0374  0.2128 -0.0812
 8740W        W24549  15.523   7.954   5.590 -0.1001  0.2011 -0.0147
 8741W        W24550  14.307  13.801   4.336 -0.0941 -0.0402 -0.0016
 8742W        W24551   6.594  13.213  13.991 -0.4684 -0.1988  0.1211
 8743W        W24552   7.500   2.831   1.585  0.0218 -0.2700 -0.1715
 8744W        W24553   3.881   5.188   0.004 -0.1717  0.0282 -0.2083
 8745W        W24554   0.819  12.170   1.770 -0.2077  0.4445  0.1603
 8746W        W24555  10.599   4.992  12.043 -0.1594 -0.1717 -0.0396
 8747W        W24556  12.873  11.617   0.768 -0.2452 -0.1243 -0.0212
 8748W        W24557  16.602   3.786  11.519  0.2660  0.2476 -0.1229
 8749W        W24558  13.538   9.042  14.292 -0.3627 -0.0619  0.0314
 8750W        W24559   8.487  12.428  12.065 -0.3206 -0.2166  0.0175
 8751W        W24560   0.409  16.634   5.078  0.0205  0.2220 -0.1154
 8752W        W24561   8.150   5.653   3.677 -0.2759 -0.0416 -0.0721
 8753W        W24562  16.943   4.937   2.275  0.0487  0.0523 -0.0256
 8754W        W24563  15.805  10.898  12.499  0.2559  0.0281  0.2225
 8755W        W24564   5.213  14.924  11.096  0.0690  0.0970 -0.1867
 8756W        W24565   4.708   1.585   1.847 -0.2219  0.0175  0.1441
 8757W        W24566  15.374  12.127  11.150  0.0989 -0.1671  0.1649
 8758W        W24567   8.997   6.705  11.054  0.5365 -0.2582  0.1074
 8759W        W24568  14.849  15.224   2.246 -0.2266 -0.0356  0.0128
 8760W        W24569   3.522  15.032   4.394 -0.0369  0.0400 -0.0705
 8761W        W24570   8.335   5.986   2.625 -0.1896 -0.2153  0.2072
 8762W        W24571   3.293  15.432   1.864 -0.0105  0.2256  0.1310
 8763W        W24572  15.082   3.926   4.760  0.2795  0.4959 -0.0645
 8764W        W24573   3.403   8.300  13.508 -0.1392  0.1221 -0.0645
 8765W        W24574   2.311  16.393  14.576 -0.2060 -0.3005 -0.2683
 8766W        W24575  18.735  18.810   2.507 -0.7358  0.1976  0.0508
 8767W        W24576   7.119   6.858  13.756  0.0816 -0.1115 -0.1554
 8768W        W24577   5.435  12.713  12.233 -0.0336  0.0676 -0.1539
 8769W        W24578   0.940  17.848   3.133  0.0557  0.1813  0.2481
 8770W        W24579   9.285  11.593  14.949  0.0252  0.1425 -0.0693
 8771W        W24580   1.680  13.029  10.693  0.1279 -0.1136 -0.3369
 8772W        W24581  11.395  11.148  15.187 -0.1327 -0.0455 -0.0021
 8773W        W24582   6.543  16.348  10.607  0.0215  0.0543  0.1450
 8774W        W24583   5.327  11.975   0.878  0.1403 -0.0150 -0.2357
 8775W        W24584   0.793  15.635   2.820 -0.1070  0.2468  0.1397
 8776W        W24585  14.402   3.444   1.113  0.0646  0.0636 -0.1793
 8777W        W24586  13.416   6.907   1.710  0.1357  0.0949  0.4541
 8778W        W24587  11.808   8.238  14.016 -0.3086 -0.1098 -0.0682
 8779W        W24588  18.609   9.821   1.940 -0.1764  0.0307  0.1629
 8780W        W24589  14.496   6.766   0.979 -0.1293  0.1105 -0.2689
 8781W        W24590   8.373   1.789  10.539 -0.0370 -0.0190  0.4091
 8782W        W24591  18.499   8.479   2.443  0.2190  0.0787 -0.1458
 8783W        W24592  17.291   0.624   4.986 -0.0702 -0.0402 -0.2765
 8784W        W24593   8.933  12.733   0.976 -0.1094  0.0241 -0.0990
 8785W        W24594   0.425   9.935  11.735 -0.3206  0.1802 -0.0101
 8786W        W24595   7.831   1.129   3.231  0.3257 -0.2458 -0.1128
 8787W        W24596   5.342   5.333   1.792 -0.0764  0.3541 -0.0456
 8788W        W24597  13.074  16.341  15.271 -0.0170  0.0799  0.2038
 8789W        W24598   8.413   1.973  11.135  0.0419  0.2374  0.1533
 8790W        W24599  10.807   8.648   0.370  0.0004 -0.0520  0.0719
 8791W        W24600   2.948  15.980  11.553 -0.0029  0.3213 -0.1688
 8792W        W24601   5.214   0.975  15.021 -0.2572  0.1248 -0.0880
 8793W        W24602  16.503  12.278  11.359 -0.3339  0.1508  0.1465
 8794W        W24603   8.230   7.632   0.444  0.0374 -0.0955  0.4227
 8795W        W24604  11.118  10.001  14.770  0.6719  0.0828  0.0069
 8796W        W24605  18.097  16.779  13.466 -0.0036  0.1062 -0.0541
 8797W        W24606   5.312   2.475   4.319  0.1883 -0.1750  0.1127
 8798W        W24607  15.238   2.510   4.487 -0.1251 -0.1729 -0.2255
 8799W        W24608   3.342   7.395   0.699 -0.0474 -0.2324  0.1632
 8800W        W24609   0.082  18.935   5.168  0.2050 -0.0515  0.1587
 8801W        W24610   5.267  11.631  12.998  0.0608  0.3250  0.1423
 8802W        W24611  15.305   0.943  14.166 -0.0197  0.0319  0.0967
 8803W        W24612   6.057  10.349  13.122  0.1187 -0.0646  0.2829
 8804W        W24613   2.337   6.345   3.259 -0.0111  0.1886  0.0310
 8805W        W24614  14.304  17.191   2.763  0.1093 -0.1082  0.0072
 8806W        W24615   7.400   9.734   1.579 -0.0364  0.0134 -0.1153
 8807W        W24616   2.549  16.708  12.187  0.2500  0.0651  0.0121
 8808W        W24617  16.310   9.637   3.162 -0.0128  0.0559  0.0349
 8809W        W24618   0.095   1.359   2.714 -0.3459  0.1338 -0.0831
 8810W        W24619   3.777   2.114  14.465 -0.1121  0.4420 -0.0606
 8811W        W24620   3.566  10.853  13.971 -0.1687 -0.2083 -0.2365
 8812W        W24621   3.039   6.223   4.461  0.2422 -0.1738 -0.2733
 8813W        W24622   5.894  18.918  14.289 -0.2981  0.1584 -0.2114
 8814W        W24623  18.869  16.719   0.218 -0.0377 -0.4645  0.3550
 8815W        W24624  18.396  17.364  14.141  0.1863 -0.2108  0.0553
 8816W        W24625  16.510   3.571  13.080  0.2642  0.2029 -0.0804
 8817W        W24626  16.563   4.424   1.139 -0.0418 -0.0473  0.0492
 8818W        W24627   3.515  14.673   2.073  0.0394 -0.0031  0.5529
 8819W        W24628  19.020   6.100  10.886  0.1286 -0.0899  0.0920
 8820W        W24629  18.730   8.317   5.675 -0.1572  0.1301  0.0991
 8821W        W24630   1.008  11.540   2.580  0.1343 -0.1182 -0.1293
 8822W        W24631   4.637  13.929  10.956  0.1323 -0.0176  0.0109
 8823W        W24632  17.869   5.544   5.921  0.1870  0.2104 -0.1396
 8824W        W24633  16.879   2.387   2.692  0.3160  0.1706 -0.1888
 8825W        W24634   9.558  17.305   2.724  0.4348 -0.3437  0.3158
 8826W        W24635  12.723  13.196  10.721 -0.3790 -0.1431  0.0723
 8827W        W24636  16.975   8.590   0.336  0.0614 -0.1499 -0.0200
 8828W        W24637  16.284  15.506  12.574 -0.1744 -0.2520 -0.0033
 8829W        W24638   0.963   8.797  10.561 -0.1075  0.1446  0.0701
 8830W        W24639   3.288   8.099   9.516 -0.3476  0.1271 -0.1508
 8831W        W24640   5.413  11.479  11.085 -0.1074 -0.1678 -0.1545
 8832W        W24641   6.301   0.562  11.851 -0.1041  0.1374 -0.0637
 8833W        W24642   0.757  16.425   3.798  0.2665  0.4545  0.1333
 8834W        W24643  18.512   4.920   3.949 -0.0026 -0.0896  0.3712
 8835W        W24644   4.872  13.342   2.757 -0.0181  0.2014  0.1573
 8836W        W24645   3.220   4.628   3.162 -0.0722 -0.3020  0.1531
 8837W        W24646   8.635  18.863   5.246 -0.0317 -0.1856 -0.1603
 8838W        W24647   1.597   6.626  14.713 -0.3089 -0.0006 -0.2216
 8839W        W24648   4.597  11.758   0.165  0.2471 -0.0633 -0.2498
 8840W        W24649  14.456   5.507  10.152  0.3318  0.2768 -0.2757
 8841W        W24650  18.418  15.149   1.564 -0.0641  0.1557  0.1978
 8842W        W24651   3.534  18.277   1.842  0.1442 -0.0062  0.0374
 8843W        W24652  13.826   2.929   3.692 -0.1695 -0.0706 -0.0273
 8844W        W24653   6.339   4.381   3.531  0.1826 -0.0461  0.0464
 8845W        W24654   3.204   7.614  13.167 -0.1779 -0.1463 -0.0097
 8846W        W24655   4.468   8.350  12.580  0.1364  0.0384 -0.4434
 8847W        W24656   9.107   7.634   0.853  0.1724 -0.4563 -0.4958
 8848W        W24657   0.527   8.002   3.235 -0.2140 -0.1678 -0.0987
 8849W        W24658  12.219   6.267   2.703  0.0773  0.1267  0.2993
 8850W        W24659  12.931  13.819  14.643  0.2486 -0.4293 -0.1011
 8851W        W24660   6.428   9.172  14.178 -0.2070  0.2656  0.1438
 8852W        W24661  18.065  11.665  11.702  0.4366  0.3142 -0.2122
 8853W        W24662  17.442  12.999   1.608  0.1374  0.0426 -0.0069
 8854W        W24663  14.629  15.433  13.678  0.1412 -0.0808  0.2085
 8855W        W24664   4.304   9.958   4.064 -0.0827 -0.3647  0.0771
 8856W        W24665  14.940   6.253   9.825 -0.0552  0.1950 -0.1514
 8857W        W24666  13.049   8.583  12.295  0.0301  0.0262 -0.0042
 8858W        W24667  15.610  13.273  13.072  0.3863  0.0746 -0.0845
 8859W        W24668  17.998   9.880  12.206  0.3378  0.2733 -0.2346
 8860W        W24669   6.692   8.450  10.992  0.2134 -0.3183  0.0230
 8861W        W24670   2.531  10.999   3.271 -0.1007 -0.0690 -0.3719
 8862W        W24671   3.783   9.663  15.221  0.0948 -0.0892 -0.0636
 8863W        W24672  15.857   1.713  14.156 -0.0077  0.0576  0.2132
 8864W        W24673   7.000  17.620  11.168 -0.0714 -0.0004 -0.1534
 8865W        W24674  15.673   0.383   3.951  0.1298  0.0784  0.1155
 8866W        W24675  14.467   4.987  11.508  0.1858  0.0748  0.3684
 8867W        W24676  15.587  16.779   1.632  0.1901 -0.0693 -0.0289
 8868W        W24677   9.906  10.238   1.222 -0.1334  0.0775 -0.2253
 8869W        W24678   6.609  12.210  12.051 -0.1847 -0.1116 -0.2202
 8870W        W24679   5.689  12.219   4.814  0.5183  0.1460 -0.2962
 8871W        W24680  17.887   9.439  13.923  0.0203 -0.1183 -0.1789
 8872W        W24681  13.578  18.342   3.892 -0.0961 -0.1963  0.1534
 8873W        W24682   2.979   8.514   4.924 -0.0765 -0.0278 -0.0900
 8874W        W24683  13.409  14.920   2.946 -0.0184  0.0160  0.0175
 8875W        W24684   1.899   7.553  12.427 -0.2980  0.0765 -0.0022
 8876W        W24685   3.087   4.256  13.857 -0.2689 -0.1916  0.0389
 8877W        W24686   1.638   3.403  10.518  0.0824  0.2136 -0.0785
 8878W        W24687  11.151   5.486   4.135  0.1349 -0.2816  0.3663
 8879W        W24688  18.352   5.436  10.787  0.3538 -0.3609  0.2255
 8880W        W24689  13.962  14.639  11.951  0.0345 -0.2470  0.1035
 8881W        W24690  14.332  13.702   3.833  0.3438  0.0591  0.1804
 8882W        W24691   0.115   3.620  12.384 -0.0799 -0.0807  0.1257
 8883W        W24692   6.810   1.770  13.767 -0.0762 -0.3045 -0.0812
 8884W        W24693   1.824   1.825   4.146 -0.3236 -0.0129  0.2107
 8885W        W24694   0.112   8.513   0.990  0.0171 -0.3606  0.0070
 8886W        W24695  11.591   0.050   1.262 -0.0416  0.1404  0.0874
 8887W        W24696   3.720   2.061  13.682  0.1993 -0.4188  0.0955
 8888W        W24697  14.100  17.500   5.295 -0.3959  0.0291 -0.2879
 8889W        W24698  12.456  11.734  13.311  0.0680 -0.1559  0.1708
 8890W        W24699  10.495   2.154  13.018  0.1352 -0.2908  0.1642
 8891W        W24700   3.820   7.405   0.340 -0.1959 -0.0591  0.1941
 8892W        W24701   4.311  15.406   0.888  0.2506  0.3984  0.0129
 8893W        W24702  12.159  14.404   2.627 -0.1463 -0.0175  0.0986
 8894W        W24703  12.398  12.969  11.104  0.0345  0.2786  0.2231
 8895W        W24704   9.891   0.537   3.232 -0.3514  0.2425 -0.0998
 8896W        W24705  13.272   8.317   5.751  0.3408  0.0136 -0.1307
 8897W        W24706   4.815   4.911  11.604  0.2146 -0.1270  0.0696
 8898W        W24707  17.393  10.793   3.886  0.1790 -0.1645 -0.0250
 8899W        W24708  15.704   6.821  11.371 -0.0209 -0.1896 -0.1764
 8900W        W24709   1.757  12.720  11.658  0.1171  0.0395  0.0159
 8901W        W24710  16.577  11.064   1.489  0.0193 -0.0373  0.0476
 8902W        W24711  18.061   4.503  10.640 -0.1286 -0.1166 -0.3073
 8903W        W24712  11.028   7.714   3.458  0.0636  0.1255 -0.0572
 8904W        W24713   2.913  13.928  14.714  0.1920 -0.0277 -0.0254
 8905W        W24714  13.253   2.810  14.863 -0.0763 -0.4590  0.0737
 8906W        W24715  17.776  12.290   1.719 -0.0389 -0.0124  0.1056
 8907W        W24716   3.872  16.011  15.128  0.1375 -0.2649 -0.0439
 8908W        W24717  18.529   8.091  11.232  0.2012  0.2707  0.2950
 8909W        W24718   7.079  12.602  10.770 -0.0571  0.0081  0.3744
 8910W        W24719   9.783  12.884   4.518 -0.1091  0.1717 -0.1480
 8911W        W24720   7.893   7.180   2.167  0.2224 -0.4853 -0.2925
 8912W        W24721   2.067   0.362  14.414 -0.0508  0.2925  0.0717
 8913W        W24722   4.100   1.134   0.110  0.3125 -0.2211 -0.3487
 8914W        W24723   0.271  17.092  14.911 -0.1386  0.1446  0.2448
 8915W        W24724  11.875  15.844   3.915 -0.0667  0.1833 -0.0087
 8916W        W24725   1.938   7.225   4.260  0.4145  0.0145 -0.0403
 8917W        W24726   4.596  10.329  12.974 -0.3999 -0.3542  0.0358
 8918W        W24727   5.050   8.371  11.106 -0.0157  0.0902 -0.2865
 8919W        W24728  18.544   7.388   0.926  0.2529 -0.0031  0.1769
 8920W        W24729   4.890  13.887   2.933  0.1035 -0.0331  0.0819
 8921W        W24730  13.562   4.495  12.853 -0.0864  0.1913 -0.1567
 8922W        W24731   4.816  16.994   3.484  0.2233 -0.0031  0.1459
 8923W        W24732   8.967   2.231   2.686  0.0908  0.0643  0.1276
 8924W        W24733   3.561  11.359  11.374  0.0429  0.3504 -0.0112
 8925W        W24734  18.805   5.453   3.435  0.0391  0.0827 -0.1213
 8926W        W24735   3.509  14.783   1.527  0.0744 -0.0507  0.1646
 8927W        W24736  11.818   1.667   5.691 -0.0196  0.0493  0.0496
 8928W        W24737   9.526  16.124  10.522  0.1231 -0.0627 -0.0121
 8929W        W24738  11.454  18.163   2.067 -0.0548 -0.3281  0.1140
 8930W        W24739   5.667   1.897   2.586  0.1395 -0.2309  0.4198
 8931W        W24740   0.515   8.641  10.539  0.1108  0.3037 -0.0041
 8932W        W24741  15.454  15.633  14.397  0.2517  0.1291  0.2051
 8933W        W24742  10.437   7.002  14.992 -0.0883  0.0053 -0.1521
 8934W        W24743  16.334  13.994  15.181 -0.0301 -0.0912  0.2807
 8935W        W24744   1.975  13.198  11.793  0.4352 -0.0772 -0.2610
 8936W        W24745  16.737   3.009   1.449  0.1076 -0.0730  0.0514
 8937W        W24746   4.235  12.571  10.906  0.0472  0.1315 -0.3694
 8938W        W24747  12.291  14.467   4.078 -0.0923 -0.2567 -0.0244
 8939W        W24748   7.890  16.657   1.436  0.0943 -0.0830 -0.0021
 8940W        W24749  16.039   8.757  14.514 -0.0770 -0.0032  0.0228
 8941W        W24750   7.338   4.537  14.174  0.0442 -0.0974 -0.0343
 8942W        W24751  15.206  12.724   1.965 -0.1525 -0.1092 -0.0916
 8943W        W24752   2.938   4.694   3.604  0.0795 -0.1433  0.2075
 8944W        W24753   8.638   7.523   1.717  0.0601 -0.2354  0.0853
 8945W        W24754  11.427  16.612   2.710 -0.0984 -0.0870  0.1157
 8946W        W24755   6.003   9.339  10.911 -0.0282 -0.1389 -0.2014
 8947W        W24756  18.689   6.556   0.478 -0.3061  0.1376  0.1196
 8948W        W24757   6.748   7.001  11.696  0.0041  0.2807  0.1437
 8949W        W24758  10.398  18.257  10.853 -0.3149 -0.0329 -0.1987
 8950W        W24759   1.736   5.430  11.291 -0.4082  0.0696 -0.0964
 8951W        W24760  10.827  11.134   1.288 -0.1111  0.0832  0.3944
 8952W        W24761  10.053   5.979   0.115  0.4192 -0.2914 -0.3466
 8953W        W24762   7.927  15.862  11.952  0.2051 -0.2414  0.2849
 8954W        W24763   5.528  17.004   0.470  0.1554 -0.3217  0.0910
 8955W        W24764   5.136   7.686  14.912 -0.4185  0.0242  0.1431
 8956W        W24765   8.656   3.517  13.523  0.0500  0.1282 -0.1682
 8957W        W24766   4.009   5.319   1.566 -0.1752 -0.3587  0.0139
 8958W        W24767  15.699   1.763  12.405 -0.2224  0.3080 -0.1679
 8959W        W24768  11.885  11.534  14.336 -0.0829  0.1234 -0.0082
 8960W        W24769  17.647   8.860   0.876  0.2240  0.0753  0.1233
 8961W        W24770   2.991   5.332   1.118 -0.0929  0.1102  0.3577
 8962W        W24771  14.807  13.234  14.623 -0.0249  0.1599  0.0681
 8963W        W24772  16.635   5.929   0.030 -0.0965 -0.0447 -0.0033
 8964W        W24773  17.032   0.636   5.861  0.1680  0.1007 -0.0045
 8965W        W24774  16.821   2.539   0.351  0.0141  0.3208  0.1990
 8966W        W24775   4.618   1.729   0.294  0.1045 -0.0659 -0.2272
 8967W        W24776   6.212   1.911  11.193  0.0433  0.0875  0.0108
 8968W        W24777   3.790   0.096   1.172  0.0318  0.0731  0.1789
 8969W        W24778   6.987  15.209  14.884 -0.0174 -0.1581  0.2718
 8970W        W24779   0.295   9.087   0.181 -0.0943 -0.1021 -0.2159
 8971W        W24780   3.920   5.595   5.424 -0.0052 -0.1875 -0.0318
 8972W        W24781   7.518   6.747  11.283 -0.3068 -0.1417  0.0226
 8973W        W24782  13.391   6.569   4.396  0.0169  0.2737  0.1408
 8974W        W24783  12.206  17.255   1.569 -0.0662  0.2098  0.0378
 8975W        W24784   1.153   1.746   2.883  0.2224 -0.1029  0.0525
 8976W        W24785   4.560  10.519   0.598  0.1163  0.2000  0.0524
 8977W        W24786   7.263   9.037  12.672  0.3399  0.2545 -0.0702
 8978W        W24787  14.526   0.217   1.040 -0.3083  0.0579  0.2768
 8979W        W24788   3.790  16.997  14.646  0.0724 -0.0421 -0.1049
 8980W        W24789   9.193  15.521   0.316  0.3845 -0.0209  0.1133
 8981W        W24790   8.065   4.830  13.876 -0.0190 -0.1665 -0.2016
 8982W        W24791  15.364  14.357   0.884 -0.0601 -0.0728  0.1118
 8983W        W24792   4.271  13.971  12.259  0.0104  0.0511 -0.1353
 8984W        W24793   4.618   9.465   4.185  0.1048 -0.0162 -0.1714
 8985W        W24794  11.226   1.031   4.596  0.4421  0.2714  0.1436
 8986W        W24795   4.601  10.933   4.072  0.2048 -0.0501  0.1912
 8987W        W24796   0.905   1.268   2.191  0.0559  0.2109  0.1269
 8988W        W24797  13.352   8.543   4.475  0.0800 -0.0233  0.2200
 8989W        W24798   9.944   4.279   1.611  0.2540 -0.0943  0.0823
 8990W        W24799  17.411  13.322   1.116 -0.0142  0.1559 -0.0838
 8991W        W24800   3.182  11.267  10.932 -0.2135 -0.0250  0.0235
 8992W        W24801  15.263   7.819   1.582 -0.1203 -0.1389 -0.1054
 8993W        W24802  17.468   7.393   3.866 -0.1364 -0.1265  0.2400
 8994W        W24803   9.038  15.978   3.685 -0.2532 -0.1356  0.0240
 8995W        W24804  10.543  14.364  12.063 -0.2892 -0.0031  0.1100
 8996W        W24805  13.546  11.007  12.038  0.0404  0.3244  0.2082
 8997W        W24806   2.199  14.624   4.574 -0.2134  0.0586 -0.0203
 8998W        W24807  18.251  15.414   5.326  0.0949  0.0317  0.1145
 8999W        W24808  15.498  18.846  13.521 -0.0925  0.1566  0.0571
 9000W        W24809  15.936   9.640   2.035  0.1702 -0.0241  0.0869
 9001W        W24810   5.032   6.464  12.342 -0.1752 -0.0706 -0.2646
 9002W        W24811   5.304  12.373   3.843 -0.1490  0.0898  0.0162
 9003W        W24812  12.064  15.396  11.214  0.0753  0.2263 -0.1977
 9004W        W24813  17.397   2.998  12.791  0.1973  0.1854  0.4724
 9005W        W24814   7.527  16.610  13.961 -0.0316 -0.1214 -0.4754
 9006W        W24815   8.903   4.910   2.710 -0.2104 -0.2860 -0.0343
 9007W        W24816   7.878  16.278  14.057  0.2921  0.0713  0.2537
 9008W        W24817   7.912   7.708   3.089  0.1534  0.2470 -0.0084
 9009W        W24818   4.873   5.188  15.142 -0.3908  0.4461  0.1818
 9010W        W24819   5.505   8.462   2.060  0.0075 -0.2079 -0.1619
 9011W        W24820   7.786  10.292  11.127 -0.0665 -0.1279  0.2032
 9012W        W24821   9.961   4.208  14.887 -0.1160 -0.5742 -0.4184
 9013W        W24822   7.623   6.709   2.278 -0.2214 -0.1887 -0.0160
 9014W        W24823   7.996  12.501   4.466  0.1748  0.0580  0.1082
 9015W        W24824  13.366  15.383   1.740  0.4138 -0.2080  0.1296
 9016W        W24825   1.222   7.237   1.444 -0.0607 -0.1133  0.0645
 9017W        W24826  18.053  16.048  11.376 -0.0245  0.2348 -0.0891
 9018W        W24827   7.131   9.881  12.549  0.1191 -0.0338 -0.1098
 9019W        W24828   9.696   8.103   4.591 -0.1866  0.1546  0.0615
 9020W        W24829   1.476   7.937   4.291 -0.0453  0.3712 -0.0267
 9021W        W24830  11.285   8.574  12.033 -0.1622 -0.0498  0.1515
 9022W        W24831  10.525   4.448   5.517 -0.1221 -0.1624 -0.2017
 9023W        W24832   8.337  12.506  11.048 -0.1741  0.4053 -0.0116
 9024W        W24833   4.025   7.619  12.915 -0.0282  0.3681 -0.4132
 9025W        W24834   5.955   1.649   3.659 -0.2181 -0.1208 -0.0289
 9026W        W24835  18.422   6.222   2.393  0.1371  0.2229  0.1670
 9027W        W24836  11.812  12.737   0.209 -0.1374  0.3120 -0.0726
 9028W        W24837   3.856  12.172   4.158  0.0505  0.1398  0.0022
 9029W        W24838   2.491  15.454   4.218  0.1079  0.2335 -0.3413
 9030W        W24839  15.649  14.653   4.802 -0.1438  0.0388 -0.2105
 9031W        W24840   8.616  13.395   4.108 -0.2137 -0.0655  0.0253
 9032W        W24841  14.811   3.784  13.652  0.3185  0.0561 -0.1199
 9033W        W24842   8.359   2.204   1.607  0.0179 -0.0228 -0.3069
 9034W        W24843   8.220  17.166  15.209  0.0988  0.1175  0.0595
 9035W        W24844  16.572  10.844   0.767 -0.1179  0.2333 -0.0240
 9036W        W24845   5.998   6.216  13.436  0.1268  0.1164 -0.0284
 9037W        W24846   4.999   9.418  13.045 -0.0354  0.3165 -0.1655
 9038W        W24847  14.425   5.742  12.688 -0.2928  0.2077  0.0870
 9039W        W24848   6.072  12.289   4.484 -0.1346 -0.0712 -0.0105
 9040W        W24849   6.617  18.517   3.617 -0.0351  0.2520  0.0015
 9041W        W24850   7.411  10.573   2.595 -0.1188 -0.0263 -0.1990
 9042W        W24851   9.005  12.854   9.416 -0.1151 -0.0883  0.1221
 9043W        W24852  14.399   5.275   4.581 -0.3464  0.1401  0.0209
 9044W        W24853   3.880   9.932   4.445 -0.2536 -0.0325 -0.4550
 9045W        W24854  18.114  12.753  13.581  0.2101 -0.0885  0.2208
 9046W        W24855   7.037  11.032  14.244 -0.1077 -0.1255 -0.0799
 9047W        W24856  18.736  14.769   1.791  0.1735 -0.1149 -0.1530
 9048W        W24857   4.739  18.067   1.996 -0.0253 -0.1303 -0.4782
 9049W        W24858  13.075  14.513   4.519 -0.0612 -0.0172  0.3129
 9050W        W24859   3.197  12.618  14.813  0.2967  0.1979 -0.1469
 9051W        W24860  11.227  16.351  10.254 -0.0654 -0.1361  0.1082
 9052W        W24861  15.900  12.828   0.400  0.0798  0.1765  0.0901
 9053W        W24862  11.888  17.243   9.680  0.0206 -0.0873 -0.3113
 9054W        W24863  12.290  15.165   0.744  0.0057  0.3037  0.0610
 9055W        W24864  10.892   5.714   4.524  0.0318 -0.1702  0.0799
 9056W        W24865  13.048  17.825  12.301 -0.1316  0.1152 -0.2202
 9057W        W24866  12.753   8.475  11.353 -0.3385 -0.1525 -0.1817
 9058W        W24867  15.241  13.680  10.770  0.1725 -0.0283 -0.1199
 9059W        W24868  11.840   9.780  13.529  0.0704 -0.0368  0.2819
 9060W        W24869  16.988   8.317  13.438  0.0108  0.2649  0.0699
 9061W        W24870  12.625  18.471   2.944 -0.2958 -0.2276  0.1082
 9062W        W24871   7.342  11.304   3.990  0.1450  0.1051  0.0705
 9063W        W24872   3.301   8.988   0.698  0.0512 -0.1822 -0.0089
 9064W        W24873  18.874   8.876   0.190 -0.2553 -0.2395 -0.0898
 9065W        W24874  10.673   2.301   4.848  0.0178  0.1000  0.1008
 9066W        W24875   0.702   8.575   1.678 -0.3580  0.2130  0.2312
 9067W        W24876  18.804  10.084  12.510  0.2543 -0.3429  0.0776
 9068W        W24877   6.683  16.768  10.825  0.3053  0.0483 -0.2335
 9069W        W24878   7.517  13.538  13.858 -0.0189  0.2018  0.2638
 9070W        W24879   3.381   8.161  11.856 -0.0278 -0.1510  0.0592
 9071W        W24880   1.836  10.779   5.260 -0.1665 -0.0831 -0.3026
 9072W        W24881  16.860   7.055  11.172  0.0409 -0.1330  0.0137
 9073W        W24882   8.309  13.793  10.827 -0.0166  0.3112 -0.3375
 9074W        W24883  13.274  14.007   5.354 -0.1283  0.0235 -0.0634
 9075W        W24884  12.457   1.325  13.428  0.0388  0.1313 -0.3100
 9076W        W24885   9.300  13.000   4.178  0.1216  0.0300 -0.0681
 9077W        W24886   7.302   4.472  11.524 -0.0126 -0.1470 -0.0891
 9078W        W24887  15.879  13.689  13.310  0.2195 -0.1562 -0.0968
 9079W        W24888  10.749   7.334  12.239 -0.0212  0.3602  0.5526
 9080W        W24889   3.432   3.105   0.650  0.2781 -0.1607  0.2539
 9081W        W24890  17.708  14.709  12.487 -0.0350 -0.0426 -0.0333
 9082W        W24891   0.645   6.337   2.056 -0.1461 -0.1443 -0.0723
 9083W        W24892  16.946   9.774  12.213  0.1122 -0.0866  0.0774
 9084W        W24893   3.393   8.970   1.173 -0.1222  0.0695  0.0146
 9085W        W24894   2.985  10.133   4.651 -0.0401  0.2183  0.3087
 9086W        W24895   8.011  13.509   1.094  0.0451  0.0447 -0.2624
 9087W        W24896   5.276  14.159   2.159  0.0895 -0.1887  0.1367
 9088W        W24897   6.397  16.601  12.680  0.1308  0.0325 -0.0244
 9089W        W24898  15.821  17.531   3.101 -0.3060 -0.3160 -0.0696
 9090W        W24899   0.807  12.669   5.262  0.1889 -0.1936 -0.1676
 9091W        W24900   5.069  11.418  11.880 -0.2164 -0.2029 -0.1916
 9092W        W24901   9.071  17.288  12.622 -0.1008  0.0743  0.1378
 9093W        W24902   2.359   7.274  13.199  0.1279 -0.1022 -0.1342
 9094W        W24903  14.841   6.725  14.021  0.0225  0.0216 -0.2370
 9095W        W24904   8.667   6.603   3.672 -0.0883 -0.2271 -0.0313
 9096W        W24905   7.969  10.225   3.196 -0.2248 -0.1839 -0.0242
 9097W        W24906  14.836   1.241  14.020 -0.1386 -0.2409  0.0608
 9098W        W24907  12.946   2.860   4.117 -0.0774 -0.2147 -0.3755
 9099W        W24908   0.019   9.122  12.208  0.2725 -0.5438  0.3188
 9100W        W24909  16.352   6.333   2.637 -0.1117 -0.0468 -0.1844
 9101W        W24910  11.726   1.229   4.452 -0.0379  0.0997 -0.0429
 9102W        W24911  18.011   7.398   2.039  0.1842 -0.0034 -0.2319
 9103W        W24912  18.006  16.699  10.948 -0.2719 -0.0136 -0.2142
 9104W        W24913  16.164   0.608  15.283 -0.2592  0.2038 -0.0451
 9105W        W24914   9.404   1.740   0.825  0.0319  0.1894 -0.1572
 9106W        W24915   8.064   2.377  14.259 -0.1618 -0.0870  0.2964
 9107W        W24916   6.174   1.413  13.109  0.1428  0.1692  0.3293
 9108W        W24917   4.601   8.141   1.232 -0.0098 -0.1431 -0.0227
 9109W        W24918  12.095   6.311   1.383  0.0470 -0.3823 -0.4110
 9110W        W24919  12.692  18.874  14.802  0.1525  0.0971 -0.1537
 9111W        W24920   0.656   1.044  11.753  0.0731  0.0808 -0.4056
 9112W        W24921   9.534  16.412  13.408  0.1790  0.2888  0.0082
 9113W        W24922   2.451   5.402   4.100 -0.1962  0.0721  0.2260
 9114W        W24923  17.665   6.638   4.762  0.1024  0.0868 -0.0461
 9115W        W24924   5.892   9.529   9.767  0.2561 -0.3930  0.1231
 9116W        W24925  16.628  17.558   4.588  0.1484  0.2584  0.1495
 9117W        W24926  18.921   6.209  11.545 -0.0431 -0.1383 -0.2058
 9118W        W24927   0.042   9.370  11.706  0.0395  0.2063  0.2150
 9119W        W24928   5.641  13.072  13.933  0.2851  0.1253 -0.0227
 9120W        W24929  13.832   4.561  14.213  0.4606 -0.0278 -0.1388
 9121W        W24930  18.819  15.960   1.072  0.1251 -0.0939 -0.1617
 9122W        W24931   4.457  11.220  13.170  0.1535 -0.0089 -0.0978
 9123W        W24932  11.940  18.311  10.978 -0.1434  0.2664 -0.1158
 9124W        W24933   8.047   0.646   8.978  0.1367  0.2636 -0.1669
 9125W        W24934  10.624  10.368  12.839 -0.3902 -0.1398  0.1107
 9126W        W24935   3.935   8.375   0.664  0.1536 -0.1454 -0.3280
 9127W        W24936  10.618  18.439  11.310 -0.0144 -0.0392 -0.0226
 9128W        W24937  17.364   7.944  13.582  0.4212  0.0857  0.1509
 9129W        W24938  14.957   3.622  13.208 -0.2034 -0.0200  0.0473
 9130W        W24939   7.664   5.636   9.907 -0.2333  0.1288  0.0954
 9131W        W24940   7.425   7.371   0.389  0.0978  0.2121 -0.1063
 9132W        W24941   3.686   9.440   0.430 -0.1595 -0.6348  0.0272
 9133W        W24942  12.186  16.438  12.638  0.1332  0.1205 -0.0129
 9134W        W24943  15.014  12.564  13.315 -0.0915 -0.0576 -0.0553
 9135W        W24944  18.639  13.085   4.781  0.0727  0.3949 -0.0608
 9136W        W24945  11.476  14.253   3.010 -0.0515 -0.0624  0.0609
 9137W        W24946   6.303  12.754   4.423  0.2446 -0.0307 -0.1335
 9138W        W24947   1.024  16.525  12.430 -0.1178 -0.1620  0.1487
 9139W        W24948   2.164   1.979  11.454 -0.1727 -0.1289  0.0263
 9140W        W24949  18.761  17.492   4.066  0.1835  0.2216  0.0012
 9141W        W24950  14.682  13.279  14.144 -0.5130  0.4582 -0.1463
 9142W        W24951   3.919  17.035  13.088 -0.0047 -0.0312 -0.0145
 9143W        W24952  10.815   5.180   5.170 -0.3768 -0.1341  0.1729
 9144W        W24953   0.969   1.349  14.520  0.1146  0.0455  0.0248
 9145W        W24954   6.242   7.982   3.206  0.2360  0.3632 -0.0311
 9146W        W24955  14.605  14.640   3.509  0.1853 -0.2767  0.4232
 9147W        W24956   6.426  10.170   2.995 -0.0834 -0.0591 -0.1003
 9148W        W24957   9.257   6.778   1.309  0.1781 -0.2101  0.0092
 9149W        W24958   2.079  15.889   2.197 -0.0526 -0.0520  0.4007
 9150W        W24959   7.875   2.982   5.307  0.1003  0.0997 -0.1493
 9151W        W24960  10.916   3.046   2.260  0.1133  0.0195 -0.4308
 9152W        W24961  13.563  16.895  10.907 -0.2907  0.1962 -0.1840
 9153W        W24962  15.757   9.698  13.422  0.2344  0.0911 -0.5016
 9154W        W24963  16.173  18.829   0.846  0.1359  0.0226 -0.0445
 9155W        W24964   8.405  13.461  13.600  0.1776 -0.0699  0.1855
 9156W        W24965   0.417   4.535   1.547  0.3074 -0.1550 -0.1083
 9157W        W24966   7.750  14.940  10.114 -0.1601 -0.1065 -0.0227
 9158W        W24967  13.186   6.687  13.622  0.1357 -0.1409  0.0979
 9159W        W24968   7.042  17.857  13.666 -0.1220 -0.2310  0.1144
 9160W        W24969  13.948  15.794  14.949  0.0323 -0.0845 -0.3376
 9161W        W24970   7.544  15.740  14.342 -0.3362  0.1135 -0.1276
 9162W        W24971  13.367  11.657  14.570 -0.3572  0.3982  0.1160
 9163W        W24972  11.897  13.088   3.365  0.3387  0.2974 -0.3926
 9164W        W24973   4.561   1.153   4.118  0.1853  0.0127 -0.4450
 9165W        W24974   0.407  13.849   5.886 -0.3943 -0.1826  0.0754
 9166W        W24975  12.231   2.509   5.408  0.0628  0.1832 -0.0165
 9167W        W24976  17.022  14.391  11.319  0.0947 -0.2333 -0.2836
 9168W        W24977   1.206  13.459   9.595 -0.2051 -0.1394 -0.5122
 9169W        W24978   1.303   5.811  14.721  0.0861 -0.0939  0.0373
 9170W        W24979   1.195  13.853   5.686  0.0982 -0.2762 -0.1072
 9171W        W24980  16.302  16.208   4.236 -0.0088  0.1843 -0.0832
 9172W        W24981  14.730  11.143  12.764  0.0702 -0.3112  0.1404
 9173W        W24982   7.332  13.543   5.057 -0.0656  0.1650  0.1366
 9174W        W24983  11.913  13.064   2.118  0.1866  0.0316  0.2798
 9175W        W24984  18.627  11.819  10.867 -0.3333 -0.1250 -0.3149
 9176W        W24985   8.956   8.636   0.616 -0.0887 -0.0253  0.2491
 9177W        W24986   9.416  15.946   2.689  0.3383  0.0074  0.0941
 9178W        W24987   9.827  10.031  14.603  0.2330 -0.2865 -0.1646
 9179W        W24988  15.607   6.151   5.537  0.2268  0.2902 -0.2139
 9180W        W24989   6.955  18.117   0.461 -0.1142  0.0061 -0.0971
 9181W        W24990   8.005  16.912  10.610 -0.1941  0.0151  0.1562
 9182W        W24991  13.188   0.951   0.560 -0.1776 -0.1313  0.0602
 9183W        W24992  16.109  17.712   5.682 -0.2112  0.1111  0.1968
 9184W        W24993  18.773   2.199  11.484 -0.2042  0.1668 -0.1000
 9185W        W24994   3.141   1.982  11.136 -0.1175  0.2234  0.0334
 9186W        W24995   4.172  18.613  13.724  0.2144  0.0432  0.1874
 9187W        W24996   9.055   3.933  12.824  0.1333  0.0407  0.3132
 9188W        W24997   9.416   7.334   3.876 -0.0751 -0.0330  0.1244
 9189W        W24998   2.128  14.198   4.884 -0.0282  0.1945  0.1431
 9190W        W24999  10.953  12.129   1.578 -0.0745  0.2380  0.0953
 9191W        W25000   7.203  11.000  13.750  0.2083  0.0728 -0.1563
 9192W        W25001   7.555  16.401   2.660 -0.0151 -0.1369  0.1342
 9193W        W25002   3.032  14.833   4.913 -0.1299  0.1513  0.0345
 9194W        W25003   9.230   2.899   5.404  0.0741 -0.0835  0.1341
 9195W        W25004  12.621   1.891   4.005 -0.1047 -0.0734 -0.3177
 9196W        W25005  18.444  15.849   5.049  0.0585  0.4401  0.0341
 9197W        W25006   4.120  17.713   2.692 -0.1452  0.1876 -0.0860
 9198W        W25007   3.007  18.746   5.255 -0.2110  0.1882 -0.1529
 9199W        W25008   1.968   2.934   2.546  0.1809  0.0325  0.1384
 9200W        W25009   4.397   5.071   1.755  0.2284  0.1008 -0.0564
 9201W        W25010   8.173   5.794   2.172  0.1869 -0.4428  0.0074
 9202W        W25011  16.719  13.769  13.205 -0.2525  0.1003 -0.0566
 9203W        W25012  15.780   7.591  11.465 -0.0757  0.0952 -0.0991
 9204W        W25013  15.168   9.433  13.639  0.1731  0.1705 -0.1641
 9205W        W25014   2.160   8.498  12.738  0.0999 -0.0842  0.1958
 9206W        W25015   1.112   4.135   3.209 -0.3285  0.3518  0.2619
 9207W        W25016   2.387  17.131   0.908 -0.1372 -0.3007 -0.1990
 9208W        W25017  17.621   6.141  13.724 -0.1197 -0.0693  0.2317
 9209W        W25018   1.152  11.182  15.189 -0.0907 -0.1057  0.1406
 9210W        W25019   0.078   3.296  12.775 -0.4107  0.2776  0.2830
 9211W        W25020   8.343   7.598   2.874 -0.1081  0.1225  0.0565
 9212W        W25021   9.411   3.348  12.140 -0.3032  0.0637  0.0859
 9213W        W25022  18.774  13.245   1.224 -0.0718  0.0802 -0.1202
 9214W        W25023   2.022   8.018   2.038 -0.0447 -0.0056  0.0437
 9215W        W25024   2.297   8.513   2.594  0.2660 -0.0918  0.1095
 9216W        W25025  18.162   7.741   2.906 -0.2305  0.3155 -0.3139
 9217W        W25026  14.071   6.012   4.170  0.0241 -0.0234 -0.1010
 9218W        W25027  11.797  12.195  11.674 -0.1403  0.0767 -0.0513
 9219W        W25028   9.529  17.040  14.216 -0.1126 -0.2968  0.0759
 9220W        W25029  13.648  15.382   1.295 -0.0354 -0.1979 -0.2532
 9221W        W25030   6.879  15.178   3.400  0.0327 -0.3103 -0.0164
 9222W        W25031  16.961  17.217  11.417 -0.0555  0.1813 -0.1336
 9223W        W25032   7.133  18.690   2.222 -0.4235 -0.4626  0.1287
 9224W        W25033   6.800   6.290  12.662 -0.1376  0.0735  0.1058
 9225W        W25034   6.116   1.455   0.126  0.0322  0.0050 -0.0170
 9226W        W25035  18.546  18.832  12.883 -0.1164 -0.1984  0.0531
 9227W        W25036   1.178   4.514   4.148 -0.1540  0.0391  0.2292
 9228W        W25037   2.939  15.209   4.381  0.0758  0.2172  0.3215
 9229W        W25038   4.538   7.751   3.492  0.1278 -0.0483  0.1700
 9230W        W25039   4.418   7.197  13.090  0.4286  0.0898 -0.1280
 9231W        W25040  18.922   6.134   2.537  0.0880 -0.1419 -0.1609
 9232W        W25041  13.197  11.727   2.096 -0.2750 -0.1345 -0.1235
 9233W        W25042   6.458   9.970  11.335  0.2890  0.2250  0.1061
 9234W        W25043  12.983  14.032   1.958 -0.1000 -0.1802 -0.0323
 9235W        W25044   2.047  11.553   0.337 -0.2764  0.1314 -0.0162
 9236W        W25045  12.546   0.500   0.359 -0.3384 -0.0111  0.2888
 9237W        W25046  11.673   6.782  11.928 -0.1389  0.0380 -0.0414
 9238W        W25047   9.427  13.326   3.862  0.1652  0.0822  0.1702
 9239W        W25048  14.023  12.387  12.290  0.0900  0.5626  0.1755
 9240W        W25049   7.724   5.455   3.619 -0.1097 -0.1433 -0.0426
 9241W        W25050  15.135   5.335   5.415  0.3351  0.2105  0.0435
 9242W        W25051   8.487   5.167  10.978  0.4411 -0.1997 -0.0213
 9243W        W25052   4.129   9.627  14.628 -0.3634 -0.0432  0.0594
 9244W        W25053  13.947   9.147  14.872  0.1599 -0.0977 -0.0054
 9245W        W25054   5.329   2.431   3.049 -0.1441 -0.0706  0.1830
 9246W        W25055   2.473  12.942  12.224 -0.0139 -0.0024 -0.3270
 9247W        W25056  14.206   0.073  14.994  0.2277  0.1057 -0.1531
 9248W        W25057   9.813   5.476   3.446 -0.0752 -0.1012  0.1145
 9249W        W25058   6.606  16.370   3.038  0.1776  0.1939 -0.0459
 9250W        W25059   6.503  15.261  10.071 -0.0744 -0.3157  0.3706
 9251W        W25060   1.025  16.110  14.547  0.0861  0.0601  0.2351
 9252W        W25061  15.972  16.169   0.231  0.2997 -0.0331  0.2168
 9253W        W25062  13.625  15.714  11.514 -0.2299 -0.2021  0.5596
 9254W        W25063   2.325   6.541   1.226  0.1550  0.1320 -0.2185
 9255W        W25064  10.705  17.560   0.130 -0.0789  0.2065  0.1329
 9256W        W25065   4.334  15.550  11.305 -0.1451 -0.1599  0.2130
 9257W        W25066   9.352   4.391  14.905  0.2993 -0.2826 -0.3070
 9258W        W25067  12.980  12.606  12.567 -0.0645 -0.1682  0.2931
 9259W        W25068   2.653  14.766  15.085 -0.0372 -0.1301 -0.0269
 9260W        W25069  18.359  14.656   1.511  0.3307  0.0628  0.3426
 9261W        W25070   9.935   2.745   2.298 -0.2877  0.2178  0.1040
 9262W        W25071   5.913  12.945   0.733 -0.1012 -0.2062 -0.1767
 9263W        W25072   2.380  18.215  13.808  0.0016 -0.0754  0.0340
 9264W        W25073   5.691   2.567   2.700 -0.0221 -0.2741 -0.0439
 9265W        W25074   4.403   6.254  10.381  0.4923  0.2636 -0.4930
 9266W        W25075   7.544   5.631   1.022  0.1662 -0.0507  0.0917
 9267W        W25076  15.602  13.479   1.002 -0.0278  0.0463  0.2312
 9268W        W25077  17.064  10.261  10.202 -0.0109  0.0738  0.2835
 9269W        W25078  17.757  14.943   2.351 -0.3287 -0.3553  0.3940
 9270W        W25079   2.417   1.891   1.374 -0.0737  0.1291  0.0516
 9271W        W25080  15.165   2.731  11.302  0.2249  0.4088 -0.0717
 9272W        W25081  10.100   6.754  12.669  0.2252 -0.2109  0.0631
 9273W        W25082   9.260  13.006  12.543  0.0233  0.0088  0.1678
 9274W        W25083  12.517   5.519   3.283  0.3209  0.2900  0.3646
 9275W        W25084   8.571   5.188  10.373  0.0342 -0.0256  0.0812
 9276W        W25085  14.996   8.643  12.212 -0.0793 -0.2368  0.0354
 9277W        W25086   6.971  15.280  13.107 -0.0658 -0.0461 -0.1544
 9278W        W25087  15.252  10.758   1.944  0.1786 -0.1292  0.2749
 9279W        W25088   7.101   6.367  11.385  0.0562 -0.0214 -0.0466
 9280W        W25089  18.095  17.662  11.295 -0.1944 -0.0059 -0.1247
 9281W        W25090   9.119   9.440  12.618 -0.0795  0.2349 -0.1732
 9282W        W25091  12.836   5.481   0.699 -0.0541 -0.0447  0.3914
 9283W        W25092  12.225   6.223  12.428  0.1289  0.0153 -0.0882
 9284W        W25093   0.991  15.391  13.320  0.1531 -0.0201  0.2000
 9285W        W25094  10.673   2.077   2.063  0.1710 -0.0872 -0.1388
 9286W        W25095  12.536  18.329  13.479 -0.0245 -0.3047  0.0263
 9287W        W25096   8.872   1.879   2.326  0.0631 -0.5447  0.1640
 9288W        W25097   5.164  17.381  11.427  0.2222 -0.0184 -0.0751
 9289W        W25098   5.867  10.868  15.261  0.0099 -0.0412 -0.0203
 9290W        W25099  16.140  17.425  10.889  0.0615  0.0783 -0.0570
 9291W        W25100   0.598   7.311   3.820 -0.0057  0.1507 -0.0336
 9292W        W25101   5.669   8.660   9.083  0.0148 -0.0685 -0.0558
 9293W        W25102  18.250  17.298   0.438  0.3062  0.1096 -0.1483
 9294W        W25103  13.978  16.095   1.080 -0.2049 -0.1809 -0.0873
 9295W        W25104   4.041  10.435  10.892 -0.0579  0.4836  0.3475
 9296W        W25105   4.547   7.597  14.182 -0.0093 -0.0299  0.0349
 9297W        W25106  15.311  13.839   0.836  0.0925  0.4636 -0.2344
 9298W        W25107  12.859   5.975  10.903 -0.1404 -0.3630 -0.0291
 9299W        W25108   6.121  13.951  12.205 -0.0287  0.0509 -0.0571
 9300W        W25109   0.403  15.723   2.462  0.0097  0.1740  0.0544
 9301W        W25110  11.813   5.894  13.282  0.1258  0.0669 -0.1319
 9302W        W25111   6.868  15.547   9.890  0.0347 -0.3660 -0.0375
 9303W        W25112   9.536  13.253  13.091 -0.1142  0.0007 -0.0094
 9304W        W25113  11.013   1.013   0.498  0.3584  0.1952  0.1232
 9305W        W25114   7.710  18.413  14.518  0.0471  0.5821 -0.3043
 9306W        W25115  10.316  10.350  12.053  0.1252 -0.0130  0.6270
 9307W        W25116  10.269  12.285  14.366  0.1642  0.2666  0.2825
 9308W        W25117  12.580  18.546   4.961 -0.0252  0.1766 -0.1549
 9309W        W25118  16.605   0.105   3.598  0.1515 -0.0312 -0.0861
 9310W        W25119  12.809  16.647  10.528 -0.3094  0.0522 -0.1063
 9311W        W25120   1.354  17.731   2.318 -0.3062  0.0318  0.1208
 9312W        W25121   2.775   9.177   0.445 -0.2920 -0.2183  0.1231
 9313W        W25122  18.188   0.058  14.267 -0.0181 -0.2474  0.2225
 9314W        W25123   4.085  10.994   0.514  0.1954 -0.0829  0.2594
 9315W        W25124   1.703   8.124   3.855 -0.2648  0.0355 -0.1550
 9316W        W25125   0.782  14.369   2.601 -0.0650 -0.5643  0.0149
 9317W        W25126   8.961   8.925  13.614  0.1606 -0.1102 -0.0017
 9318W        W25127  15.263   4.542  13.599 -0.1590 -0.1983  0.1193
 9319W        W25128   4.245  10.253   1.548  0.0356 -0.1264 -0.2113
 9320W        W25129  17.913  10.889   1.222  0.1811  0.0691 -0.2318
 9321W        W25130  17.452   1.874   0.246 -0.1435 -0.3133  0.0788
 9322W        W25131   4.857  14.413  14.614  0.2938 -0.0276  0.1414
 9323W        W25132  10.127   8.175  10.482  0.0525 -0.0335 -0.0549
 9324W        W25133   2.889   9.570   3.238  0.1200 -0.2066 -0.0342
 9325W        W25134  12.048  14.964  11.892  0.1088  0.0915  0.1852
 9326W        W25135  16.620  15.114   2.693 -0.3361 -0.0525  0.0663
 9327W        W25136   2.041   5.423  11.771  0.1896  0.1274 -0.1410
 9328W        W25137  10.156   9.254  11.231  0.0986 -0.0545 -0.0319
 9329W        W25138   4.981  15.662  11.458 -0.0929  0.1271 -0.0386
 9330W        W25139  17.596   0.944   5.210  0.0414 -0.0631 -0.0159
 9331W        W25140  16.264   0.438   2.130 -0.2069 -0.1484  0.2397
 9332W        W25141   1.205  18.220   0.960  0.0634  0.0907 -0.0052
 9333W        W25142   4.115  16.772  10.681 -0.1141  0.0091  0.2188
 9334W        W25143   5.104  11.360   1.638 -0.0884  0.0859 -0.1279
 9335W        W25144   2.915   3.004  11.565  0.2262 -0.1102 -0.0520
 9336W        W25145  18.727  13.484   0.191 -0.1798 -0.2433  0.2598
 9337W        W25146   6.677   5.511   1.141 -0.4168  0.0492  0.0126
 9338W        W25147  16.560  14.013  13.754  0.3475 -0.0968  0.0643
 9339W        W25148  11.125   9.057  12.931  0.0399 -0.2583  0.0040
 9340W        W25149  14.643  18.703  12.042  0.0106 -0.0106  0.0404
 9341W        W25150  13.372  13.184  14.244 -0.2412 -0.0598 -0.0536
 9342W        W25151   7.012   7.250   0.580 -0.1829 -0.2799  0.0086
 9343W        W25152   2.780  11.238   1.559  0.1131  0.4154 -0.1415
 9344W        W25153   3.271  12.675  11.016 -0.1653 -0.0831  0.0819
 9345W        W25154   3.140  12.386  12.290  0.0530 -0.3745 -0.1206
 9346W        W25155  16.801   7.615   4.496 -0.1590  0.1635 -0.1140
 9347W        W25156  18.090  11.005  13.112  0.0722 -0.3383 -0.2692
 9348W        W25157   0.516   5.090   1.813  0.0109 -0.1114  0.1268
 9349W        W25158  10.251   4.515  14.442 -0.0838 -0.2745  0.0066
 9350W        W25159  10.821  15.566  12.781 -0.1058  0.2055  0.0882
 9351W        W25160   0.395  16.714   9.884  0.1463  0.2033  0.3933
 9352W        W25161   7.965   6.771   1.390 -0.0012 -0.1517 -0.0266
 9353W        W25162   8.013  10.648   3.753 -0.3825 -0.2654  0.0212
 9354W        W25163  16.901  10.510   0.379 -0.4267 -0.0367  0.1664
 9355W        W25164  15.011  18.098  13.032 -0.0205  0.1263 -0.2302
 9356W        W25165   3.978  17.291   1.804 -0.1906 -0.3885  0.1097
 9357W        W25166  17.148   1.105   5.017  0.0935  0.0652  0.3297
 9358W        W25167   4.008  15.270  12.406 -0.0721  0.1911  0.0264
 9359W        W25168  12.565  15.228  12.495  0.5688 -0.0017  0.0101
 9360W        W25169   2.215   2.225  10.448 -0.1735  0.1085 -0.1419
 9361W        W25170  17.642   3.569   6.034  0.1790 -0.3576  0.1739
 9362W        W25171   6.168  13.809   9.763  0.0312  0.0641 -0.1698
 9363W        W25172  13.609   7.336   2.961 -0.1845  0.4092 -0.1423
 9364W        W25173   0.299   5.767  12.784  0.3075 -0.2109 -0.4208
 9365W        W25174  12.282   8.141  11.191  0.3482  0.1478  0.0760
 9366W        W25175  14.842  17.148   3.365 -0.0062  0.0101  0.0589
 9367W        W25176  13.510  15.798   5.137  0.1201 -0.0117  0.1489
 9368W        W25177   0.185   6.997  13.225 -0.2317 -0.0967  0.0419
 9369W        W25178  17.749  15.787  15.152 -0.2150  0.0564 -0.0227
 9370W        W25179   8.735   0.397  12.516  0.1903  0.1143 -0.1276
 9371W        W25180  17.930   9.059  13.055  0.3478 -0.2424 -0.2250
 9372W        W25181   3.633   5.875  14.099 -0.3053 -0.1134  0.1404
 9373W        W25182  13.004   9.268  14.982  0.0841  0.1180  0.0599
 9374W        W25183   7.060  15.059  14.374  0.0423  0.0715 -0.0785
 9375W        W25184  15.256  13.677   1.403  0.0328  0.4088  0.0953
 9376W        W25185  15.523   7.287   3.449  0.0936  0.1244  0.3665
 9377W        W25186  15.273   3.446   2.064 -0.0457 -0.1009 -0.0666
 9378W        W25187  11.670   8.784  13.981  0.1270  0.2824 -0.2222
 9379W        W25188   6.565  10.476  10.316 -0.1231  0.1859  0.0425
 9380W        W25189   6.101   2.222  13.325 -0.0229  0.3694 -0.0398
 9381W        W25190  16.501   8.399  10.403  0.1867 -0.1051  0.4168
 9382W        W25191   6.020   4.900  13.364 -0.2513  0.1777  0.0470
 9383W        W25192   4.237   9.107  14.626  0.0316 -0.0238 -0.1868
 9384W        W25193  18.305  10.272  11.275 -0.0266 -0.0707 -0.1551
 9385W        W25194  11.979   1.453   0.276 -0.0210  0.2201  0.1087
 9386W        W25195  16.036  17.170   2.782 -0.0602  0.1600 -0.0296
 9387W        W25196  14.900  13.313   1.583  0.2047  0.1915  0.1039
 9388W        W25197   9.680   6.684   3.358  0.0219  0.1152  0.1766
 9389W        W25198   1.791  14.996  14.296  0.1161  0.0092  0.0520
 9390W        W25199  15.957  17.568  11.789  0.0437  0.0010  0.0765
 9391W        W25200  16.810  10.710   1.243  0.1817 -0.1656  0.0957
 9392W        W25201  12.276   4.194   3.592 -0.1929  0.0177 -0.0995
 9393W        W25202  13.769   2.785   0.317 -0.0514 -0.4413 -0.0989
 9394W        W25203  18.575   1.835  10.523 -0.0482  0.2013 -0.3460
 9395W        W25204   7.737   8.372  10.585  0.3607  0.1100  0.1705
 9396W        W25205  18.577  17.927   2.738 -0.0577  0.0695  0.2794
 9397W        W25206   8.866  15.691   3.253 -0.1052 -0.4106 -0.3754
 9398W        W25207   6.403   0.836   3.148  0.0502  0.1962  0.2344
 9399W        W25208   9.328  15.012   4.754 -0.2712  0.1358  0.0239
 9400W        W25209  14.913  18.486   2.374 -0.3745  0.0073 -0.2571
 9401W        W25210  10.619   3.943  12.684  0.1547  0.0694 -0.0971
 9402W        W25211  10.423   3.614   0.111  0.0633  0.0845  0.1065
 9403W        W25212  13.700   8.450   3.278  0.0812  0.1794 -0.0358
 9404W        W25213  14.159   5.983   2.299 -0.2242  0.1081 -0.1051
 9405W        W25214  12.036   0.268  11.510 -0.0227 -0.1600 -0.0099
 9406W        W25215  12.881  11.931  14.238  0.4810 -0.0723 -0.1498
 9407W        W25216   4.954   3.097   2.583 -0.5906  0.0404 -0.3624
 9408W        W25217  12.199   9.521  13.225  0.0045  0.2697 -0.0198
 9409W        W25218   9.307   8.483   3.248  0.1376 -0.2036 -0.0369
 9410W        W25219   6.281   4.986  14.964  0.0624 -0.0207  0.0094
 9411W        W25220  14.749  14.349   4.335 -0.1213 -0.2603  0.0333
 9412W        W25221  15.747  16.608   5.206 -0.1062  0.1929  0.1695
 9413W        W25222   6.092   7.673  11.306 -0.2776 -0.0675  0.0541
 9414W        W25223   5.952   4.750  11.592  0.1223  0.1424 -0.2418
 9415W        W25224  16.447   5.067   3.353 -0.0713  0.1603 -0.3206
 9416W        W25225   9.365  11.180   3.713 -0.1075 -0.1126 -0.3634
 9417W        W25226  13.808   8.062  13.794 -0.4191  0.0375  0.0093
 9418W        W25227  10.699   2.968  10.924 -0.0680 -0.0544 -0.3169
 9419W        W25228  13.915   7.668  14.771  0.2368  0.1389 -0.3184
 9420W        W25229  13.528  17.881   4.088 -0.0107  0.1160  0.1977
 9421W        W25230   7.308  14.878   0.768 -0.2226 -0.1585 -0.0510
 9422W        W25231   2.387  15.221   4.659 -0.3803 -0.1816  0.0221
 9423W        W25232   9.482   5.922   2.853 -0.2480 -0.0794  0.1553
 9424W        W25233  17.680  11.261  14.772  0.0623  0.0267 -0.1096
 9425W        W25234   5.562  15.181  12.034  0.1146 -0.0260 -0.0023
 9426W        W25235   3.929   8.776   1.731  0.1874  0.4219 -0.0723
 9427W        W25236  13.271   0.084   2.998 -0.4273 -0.1268 -0.0311
 9428W        W25237  18.118  16.575   2.211 -0.0250  0.0236 -0.1086
 9429W        W25238   3.282   7.619  14.743 -0.2139  0.2794  0.0391
 9430W        W25239   5.294  13.861  12.824  0.0430  0.0138  0.0074
 9431W        W25240  13.467  11.470  12.270 -0.1186  0.0449  0.4259
 9432W        W25241   1.425   1.500   2.424 -0.0682  0.0881  0.0576
 9433W        W25242   3.132   1.793   1.962  0.4726  0.0558 -0.0490
 9434W        W25243  15.325   9.296  11.722 -0.3527  0.0829  0.0711
 9435W        W25244   4.230  18.451   2.779  0.3076  0.3062 -0.2087
 9436W        W25245   7.557  10.060   3.499 -0.0257  0.0714 -0.0487
 9437W        W25246   8.034   3.872  12.649 -0.1157 -0.1767  0.0923
 9438W        W25247  18.059  11.513  12.162 -0.0163 -0.2325  0.1297
 9439W        W25248   1.619   8.784  15.189  0.0397  0.1591 -0.3462
 9440W        W25249   9.014   7.205   1.491  0.0870  0.1044  0.0608
 9441W        W25250   2.016  11.531  11.246 -0.0486 -0.2035  0.2288
 9442W        W25251  18.669  13.993  12.841 -0.2804 -0.2094  0.1250
 9443W        W25252   2.720  11.728  10.422  0.3263 -0.1086 -0.0701
 9444W        W25253   2.851   4.725  13.927 -0.0241  0.1276  0.0778
 9445W        W25254   4.669  18.071  14.206  0.2697 -0.0334 -0.0140
 9446W        W25255   0.695   1.648  15.124 -0.1192  0.0108  0.0986
 9447W        W25256  16.186   9.196  14.075 -0.1679 -0.0842 -0.0171
 9448W        W25257   2.335  17.382   1.432 -0.2676 -0.0044  0.1178
 9449W        W25258  14.851  11.957   1.179 -0.0594 -0.3740 -0.1635
 9450W        W25259  14.055   1.103   0.655  0.1438  0.1169 -0.5263
 9451W        W25260  13.578   5.332  14.614  0.1301  0.0394  0.5895
 9452W        W25261  11.493  10.214   2.778  0.0283  0.1398  0.2409
 9453W        W25262  17.491   1.540   5.124 -0.1799  0.2162  0.1538
 9454W        W25263  13.056  13.558  12.694 -0.1529  0.0887  0.3373
 9455W        W25264  15.563   3.667  10.664 -0.1716  0.0846  0.1104
 9456W        W25265   4.517  15.704   2.301 -0.0722  0.2892  0.2907
 9457W        W25266  14.717  14.647  13.295  0.2395 -0.0941  0.1975
 9458W        W25267  15.963  10.202  14.522 -0.2729  0.2236  0.0355
 9459W        W25268   8.806  13.960  12.137 -0.1902  0.0176  0.0898
 9460W        W25269  16.834   3.255   0.954  0.1003  0.0765  0.0055
 9461W        W25270  12.363   9.186   2.323 -0.1681  0.2106 -0.2888
 9462W        W25271  18.873   7.989   4.576 -0.1338  0.1222 -0.0741
 9463W        W25272   7.692   0.154   3.035  0.1933  0.0658 -0.1268
 9464W        W25273  15.415  15.277   3.397  0.1302  0.0084 -0.4249
 9465W        W25274   3.013   3.512   1.454 -0.2598  0.0543  0.0427
 9466W        W25275   5.520  12.060   2.933 -0.2547 -0.1585  0.1585
 9467W        W25276  15.477   8.251  15.082 -0.1981 -0.2563  0.0132
 9468W        W25277   5.553   8.750  12.298  0.3013  0.0044  0.0723
 9469W        W25278  15.849  13.448   2.720 -0.0391  0.1864 -0.1098
 9470W        W25279  14.007  17.195  13.709 -0.1213 -0.0594  0.0186
 9471W        W25280   1.959   8.506   3.558  0.2177  0.1011 -0.0173
 9472W        W25281  13.798   0.108   4.208  0.2810 -0.2232 -0.2061
 9473W        W25282  12.640   0.582   6.234 -0.1359 -0.1253 -0.0008
 9474W        W25283   4.633  14.593   4.013  0.0274 -0.3064  0.2042
 9475W        W25284  15.961   4.736  12.090  0.0566  0.0292 -0.0683
 9476W        W25285   2.305  16.300   4.867 -0.1256 -0.0060  0.1684
 9477W        W25286  16.273   9.027  15.132 -0.0798 -0.0264  0.0948
 9478W        W25287  16.396  12.355  11.934 -0.2098  0.0950 -0.1628
 9479W        W25288   6.477   8.535  12.003  0.0689  0.1283 -0.2356
 9480W        W25289   4.188  16.850  15.287  0.1436 -0.2289  0.0442
 9481W        W25290  11.141  18.658   5.202  0.0693  0.0190  0.1614
 9482W        W25291  18.204   4.953  13.220 -0.1150 -0.1611 -0.0456
 9483W        W25292  13.774   6.479   0.301  0.2031  0.0284 -0.2173
 9484W        W25293   2.294   5.476  12.295  0.2829 -0.1677  0.0545
 9485W        W25294   3.790   0.445   1.753 -0.1663  0.1181  0.2319
 9486W        W25295   3.471  12.569  13.937 -0.0714 -0.1997  0.4038
 9487W        W25296   2.943   6.098  14.387  0.1291 -0.3223  0.1033
 9488W        W25297  16.950  13.328   1.521 -0.0093 -0.2694 -0.3282
 9489W        W25298  16.690   9.455  14.941 -0.0314  0.0589  0.0633
 9490W        W25299   7.733   7.027  13.242  0.1439 -0.0326 -0.0116
 9491W        W25300   4.173   7.728   4.477  0.0121  0.0700  0.1999
 9492W        W25301   7.635   1.619  14.965  0.1011 -0.1848 -0.0851
 9493W        W25302   5.233   0.610   3.403  0.0458  0.0110 -0.4115
 9494W        W25303  10.051   1.134   4.327  0.6826  0.0062 -0.0577
 9495W        W25304   9.250  16.342  10.915  0.0751 -0.0211 -0.0259
 9496W        W25305  14.869  13.977   4.756 -0.2507  0.1164 -0.0835
 9497W        W25306  15.292   9.875   1.442 -0.1576 -0.2383 -0.0019
 9498W        W25307  14.235  14.762  13.606  0.0057 -0.0105 -0.1412
 9499W        W25308   2.470  15.474   9.683 -0.2437 -0.0820  0.0593
 9500W        W25309   6.338   6.978  13.574 -0.0770  0.2845  0.1584
 9501W        W25310   6.640   8.175  13.353  0.0680 -0.0478  0.1213
 9502W        W25311   2.448  11.577   5.261  0.1388  0.0054 -0.0533
 9503W        W25312   9.924  18.917   2.512 -0.1146  0.2372 -0.1641
 9504W        W25313   2.160  13.422  12.841 -0.2220 -0.0635  0.2686
 9505W        W25314   3.039  10.190  14.102 -0.1426 -0.1619 -0.0347
 9506W        W25315  14.660   1.691   0.188  0.1378  0.1731 -0.2387
 9507W        W25316  16.383  18.847  11.290  0.2743 -0.2116  0.0192
 9508W        W25317   4.511   0.352   4.392 -0.0036  0.1043  0.2912
 9509W        W25318   7.305  17.548   3.225  0.2149 -0.1303 -0.1391
 9510W        W25319  15.629  13.916  13.699  0.3557  0.0205 -0.1676
 9511W        W25320  16.467  11.151  13.757  0.1168 -0.0953  0.3415
 9512W        W25321   6.841  10.532   0.279 -0.0198 -0.1469  0.0950
 9513W        W25322  10.311  11.175   1.146 -0.2088  0.0857 -0.0053
 9514W        W25323  10.612   7.907   3.238  0.1704  0.0920  0.1446
 9515W        W25324  14.308   5.655  11.795  0.3115  0.0908 -0.0728
 9516W        W25325   5.363   1.836   5.563  0.0406 -0.4379  0.1911
 9517W        W25326   3.157   5.536  13.346  0.2187  0.0845  0.0738
 9518W        W25327  10.767  18.868  12.410  0.1026  0.0238  0.2515
 9519W        W25328   5.663   9.866  11.838 -0.0763 -0.0994  0.0556
 9520W        W25329  13.236  15.262   5.714  0.0288 -0.0840  0.0694
 9521W        W25330  17.369   9.092  14.631 -0.1376 -0.1481 -0.1642
 9522W        W25331  13.025   3.266  14.998 -0.2003  0.0592  0.0519
 9523W        W25332   3.194  11.102  13.494 -0.1064 -0.1342  0.1797
 9524W        W25333  15.038   1.204  14.557  0.0194  0.1629 -0.0833
 9525W        W25334  10.001  13.214   4.867  0.0686  0.0006  0.0472
 9526W        W25335   3.032  11.167  13.013 -0.0360 -0.2157 -0.4662
 9527W        W25336   2.145  17.548  12.538 -0.0893  0.1705  0.4608
 9528W        W25337  17.670  14.299  14.551 -0.3837  0.5839  0.1449
 9529W        W25338  10.276   6.400  14.123  0.1575 -0.2973 -0.0457
 9530W        W25339   8.033  11.475  10.944 -0.1403 -0.1092 -0.0930
 9531W        W25340   1.448  12.216   1.583  0.0712 -0.0616  0.2144
 9532W        W25341   4.482   0.713  11.625  0.2125  0.1859 -0.3867
 9533W        W25342  10.895   8.403   3.990 -0.2134  0.1210  0.2133
 9534W        W25343   7.259   0.231  13.440 -0.0903 -0.0692  0.2418
 9535W        W25344   0.387  16.772   2.022  0.4489 -0.1513  0.4010
 9536W        W25345   6.958   9.307   4.682 -0.0147 -0.1240  0.1126
 9537W        W25346  14.984  14.872  14.421 -0.1509  0.0279  0.0945
 9538W        W25347   9.020   6.348   3.930  0.2348  0.0224  0.0616
 9539W        W25348   4.534  13.322   2.368 -0.0885 -0.1041  0.1503
 9540W        W25349  14.970  15.360  11.982 -0.4318  0.1778  0.0703
 9541W        W25350  10.037   9.340   1.697 -0.4690  0.0995 -0.0002
 9542W        W25351   5.347   4.401   0.484 -0.2324 -0.6157 -0.1193
 9543W        W25352   1.908   2.565   1.073 -0.0084 -0.0120  0.2907
 9544W        W25353   5.499  16.640   2.620 -0.1551  0.2163  0.2601
 9545W        W25354   1.961  17.165   2.388  0.0258 -0.1699 -0.2046
 9546W        W25355  17.065   7.670   3.142  0.0188 -0.0876 -0.1257
 9547W        W25356   3.507   1.665  11.274  0.0134  0.0375  0.1812
 9548W        W25357  10.724  14.551  13.951 -0.2136 -0.2247  0.2392
 9549W        W25358  10.327   0.204  14.011  0.0871 -0.1801  0.0495
 9550W        W25359   2.422  10.085  13.483 -0.0843 -0.0893  0.2290
 9551W        W25360  16.013   4.187  12.783  0.4251 -0.0166 -0.2308
 9552W        W25361   6.791   1.659   0.658 -0.4328  0.1734 -0.0490
 9553W        W25362   3.516   7.024   3.376 -0.0158  0.2513  0.0658
 9554W        W25363  18.247   6.995   5.493 -0.2430 -0.3127 -0.0894
 9555W        W25364  15.966  14.563   0.699 -0.1175  0.0157 -0.2562
 9556W        W25365  17.227  12.245  11.910  0.3535 -0.1628  0.1940
 9557W        W25366  11.339  16.908   3.447  0.0865  0.0969  0.0440
 9558W        W25367  11.909   4.615  14.149 -0.0753 -0.0400  0.0524
 9559W        W25368  16.862   4.882  11.971  0.4391  0.2260  0.0470
 9560W        W25369  10.416   1.040   2.143 -0.2383  0.4176  0.1344
 9561W        W25370   9.666   2.198   1.108 -0.1700 -0.3592 -0.2816
 9562W        W25371  10.097  12.583   3.401 -0.2129 -0.1386  0.2083
 9563W        W25372   9.990   1.322   2.775 -0.0936  0.0719  0.1176
 9564W        W25373  16.519  15.770  13.668 -0.1915  0.1916  0.1089
 9565W        W25374  18.859  12.954   0.126 -0.1622 -0.0913  0.0312
 9566W        W25375   6.209  17.229  11.634  0.4087 -0.1826  0.0629
 9567W        W25376   7.486  14.366   0.887 -0.1519  0.1518 -0.5203
 9568W        W25377   7.092   0.459  11.334  0.3158  0.1990 -0.0038
 9569W        W25378   8.067   3.746   4.096 -0.1551 -0.1121  0.0606
 9570W        W25379  15.352   0.727  13.258 -0.0806  0.1491  0.0744
 9571W        W25380   5.331   8.097  13.575  0.0549 -0.2185  0.2028
 9572W        W25381   1.988   8.491   5.236 -0.0139  0.6092  0.1146
 9573W        W25382  18.999   0.399   3.922  0.1260 -0.0661  0.1445
 9574W        W25383   4.224  15.731   3.760  0.3571 -0.3482  0.1270
 9575W        W25384   5.065  11.691  11.493  0.0395 -0.0149  0.4156
 9576W        W25385  11.961  11.532   2.086  0.0478 -0.1692 -0.1440
 9577W        W25386  11.128  10.557   9.868 -0.0430 -0.0718 -0.0303
 9578W        W25387   4.354  10.239  10.551 -0.0563 -0.1050  0.2280
 9579W        W25388   1.337  17.039   0.358 -0.0715  0.0628  0.2277
 9580W        W25389  18.334  11.394   0.612  0.0053 -0.0135 -0.0311
 9581W        W25390  12.133  15.019   1.702 -0.0323  0.0593  0.1317
 9582W        W25391  12.002   4.058  15.196 -0.1088 -0.1139 -0.0016
 9583W        W25392   3.556   9.319   4.821 -0.0666  0.0064 -0.2169
 9584W        W25393   3.808   9.132  15.053  0.1395 -0.0455  0.0487
 9585W        W25394  14.041   7.184  11.141  0.1188 -0.0050 -0.1445
 9586W        W25395  10.554   0.721   1.731 -0.0380  0.0477 -0.0874
 9587W        W25396  14.869   6.806   5.737 -0.0681 -0.0369 -0.2402
 9588W        W25397   6.830  13.690   3.199 -0.2832  0.2424  0.0699
 9589W        W25398  13.381   0.337  12.618  0.0207  0.0290 -0.1417
 9590W        W25399   7.574   6.082   0.085 -0.2640  0.6888  0.0501
 9591W        W25400  17.094  12.613  13.118  0.2631  0.0705  0.3726
 9592W        W25401   5.322  12.001   9.640  0.1063 -0.2275 -0.0129
 9593W        W25402  17.793   0.542  15.285  0.0967 -0.0483  0.0558
 9594W        W25403   5.395  18.655   3.056 -0.2498  0.2630 -0.2333
 9595W        W25404   4.521   9.985   2.660 -0.0361 -0.0255  0.1503
 9596W        W25405   7.277  10.706   4.789  0.1393 -0.0917  0.1809
 9597W        W25406   4.589  12.773   0.421  0.1349 -0.1018 -0.1638
 9598W        W25407   8.128  14.060   4.514 -0.0081  0.3501 -0.2923
 9599W        W25408  18.238  13.671   5.309  0.0656 -0.0106  0.1813
 9600W        W25409  14.857   8.819  14.169 -0.2040  0.2759  0.3162
 9601W        W25410   5.122   9.688   0.617 -0.2785 -0.0843 -0.0319
 9602W        W25411   2.567  10.831   1.905  0.1853 -0.1981 -0.0690
 9603W        W25412  14.049   3.919  14.303 -0.0167  0.3898 -0.0341
 9604W        W25413   7.158   4.034  10.721  0.1955  0.2265 -0.1305
 9605W        W25414   7.997   0.865   0.580  0.3413  0.0408 -0.2859
 9606W        W25415   1.669  16.920  10.463 -0.3092 -0.0750  0.2083
 9607W        W25416   3.376   6.992   0.394 -0.2686  0.2426 -0.3085
 9608W        W25417  17.007   0.020  13.774  0.1458 -0.1073 -0.0753
 9609W        W25418   5.646   7.841  11.012 -0.0826 -0.2490 -0.2297
 9610W        W25419   9.154  12.807   3.256  0.3279  0.1829  0.4156
 9611W        W25420  10.443  13.364   1.507  0.2379  0.3803 -0.0151
 9612W        W25421  13.679  12.373  10.310  0.0720 -0.0951  0.1571
 9613W        W25422   1.218   2.742   3.254 -0.0997 -0.0975 -0.4031
 9614W        W25423   5.591  10.486   3.152 -0.0803  0.2902  0.1043
 9615W        W25424  16.368  15.463  10.820 -0.2020  0.2557 -0.4090
 9616W        W25425   0.650   0.561  12.519 -0.1035 -0.1863  0.2944
 9617W        W25426   8.917   5.943   1.560  0.1690 -0.1708  0.3638
 9618W        W25427   9.545  12.573  14.545 -0.1785  0.2357 -0.2920
 9619W        W25428   5.626  11.503   2.575 -0.2765  0.0994 -0.2250
 9620W        W25429   9.784   3.483  11.670 -0.3230  0.0155 -0.0404
 9621W        W25430   7.351  15.867   1.308 -0.0848  0.3618  0.0349
 9622W        W25431  14.492  16.187  11.004 -0.0896  0.1618  0.2854
 9623W        W25432  18.518   3.746  10.945 -0.0537 -0.0970 -0.0646
 9624W        W25433  18.002  16.164   5.033 -0.1067 -0.0114  0.0878
 9625W        W25434  14.895   6.330   2.032 -0.0103 -0.2113  0.0411
 9626W        W25435  14.813   6.934  12.126 -0.0795  0.1557 -0.3208
 9627W        W25436  17.605  16.443   0.540  0.3042 -0.0453  0.1474
 9628W        W25437  12.731   2.726   3.650  0.1000  0.1587  0.1709
 9629W        W25438  10.181   9.366  12.604 -0.2297  0.3148 -0.3878
 9630W        W25439   2.239   3.787  14.720 -0.2999 -0.0385  0.0167
 9631W        W25440  18.527  18.747  10.452 -0.1316  0.1417 -0.2358
 9632W        W25441   1.275  17.032  13.237  0.0287 -0.0176  0.1631
 9633W        W25442   0.795   8.492  13.203  0.1200 -0.0640  0.1523
 9634W        W25443   1.281  11.327   0.427 -0.2248 -0.2483  0.1171
 9635W        W25444   4.056  14.400  15.138 -0.0933  0.2589 -0.0538
 9636W        W25445  13.783   3.091   5.253  0.1575  0.1149  0.2885
 9637W        W25446  11.841   6.085  11.310 -0.1087 -0.1602  0.1394
 9638W        W25447  16.326  10.812   2.892  0.0816  0.2234  0.0366
 9639W        W25448   4.438  17.562   0.488  0.0562  0.2341 -0.1290
 9640W        W25449  18.589  14.543   4.292  0.1207 -0.0238 -0.1806
 9641W        W25450  18.729   3.312  11.012 -0.3306 -0.5844  0.0598
 9642W        W25451  14.749  11.052  13.966 -0.1817 -0.0381 -0.1159
 9643W        W25452  18.364  16.525   0.121  0.0064 -0.1759 -0.1087
 9644W        W25453   1.477  14.697  12.417  0.2753  0.2817 -0.2129
 9645W        W25454  12.650   0.853   0.762 -0.3617  0.0817  0.0963
 9646W        W25455   8.730  12.437   1.946 -0.0735  0.0675  0.2926
 9647W        W25456   9.183   6.646   2.386 -0.1759  0.2015  0.2095
 9648W        W25457   1.971   2.385   2.590  0.0685 -0.1976  0.2157
 9649W        W25458  16.264   4.464   2.068 -0.0939  0.0953  0.1700
 9650W        W25459  12.958  11.256  12.777 -0.4012 -0.1785 -0.2977
 9651W        W25460   6.208  18.958   9.744 -0.4075 -0.1637  0.0119
 9652W        W25461   1.163  16.887  14.164  0.0852  0.2035  0.1141
 9653W        W25462  12.204  11.534   0.171 -0.3429 -0.0056  0.0491
 9654W        W25463   2.377   9.899   4.761 -0.4826  0.0252  0.5550
 9655W        W25464  17.830   0.801   2.385 -0.0179 -0.4113 -0.0271
 9656W        W25465   1.821  10.682  13.171  0.0790 -0.5168 -0.1767
 9657W        W25466  11.275  10.945  12.748 -0.1096  0.2303  0.0035
 9658W        W25467   3.400   1.078  10.899  0.0994 -0.1206  0.0686
 9659W        W25468   5.928  16.660   1.620 -0.0283 -0.1617 -0.1132
 9660W        W25469   9.353  18.336  12.262  0.1305 -0.0971  0.0442
 9661W        W25470  11.926  11.097   4.615  0.0678 -0.0370  0.0198
 9662W        W25471  13.246  10.065   1.645  0.0347  0.0413 -0.0374
 9663W        W25472   0.486  15.131   4.190  0.0711 -0.0864 -0.4399
 9664W        W25473  13.102   3.742   1.182  0.1803 -0.1203 -0.0977
 9665W        W25474  13.367  11.431   2.488 -0.2585 -0.2268  0.0411
 9666W        W25475   8.611  12.202   2.432  0.1042 -0.3050  0.2077
 9667W        W25476   3.778  18.912   5.528 -0.1087  0.0260  0.0012
 9668W        W25477  17.231   9.924   3.021  0.1631 -0.0538 -0.2933
 9669W        W25478   5.119   9.782   3.289 -0.0335  0.0920  0.0194
 9670W        W25479   5.076   9.117   2.645 -0.1280 -0.1632 -0.1421
 9671W        W25480   2.306  18.810   0.613  0.3736 -0.0257  0.2327
 9672W        W25481   5.535   2.080  13.490  0.0225  0.0411  0.0993
 9673W        W25482   0.717   8.567   0.333 -0.0670  0.0834 -0.1208
 9674W        W25483  14.118   4.950  12.390 -0.2029  0.3264 -0.1203
 9675W        W25484   1.063  13.144  14.733  0.3471 -0.2750 -0.3005
 9676W        W25485  16.877   1.177   4.388  0.4265  0.1834 -0.1232
 9677W        W25486   1.753  12.815  13.619 -0.0034 -0.0839 -0.2260
 9678W        W25487  10.235   8.640  14.634  0.1165  0.1768 -0.2297
 9679W        W25488   5.346  14.913  13.573  0.0105  0.2052 -0.0048
 9680W        W25489   6.921  10.155  10.519 -0.0894  0.1812 -0.1110
 9681W        W25490  16.986   3.663  13.201  0.1481  0.2463 -0.0079
 9682W        W25491  11.791  10.049   3.842  0.0964  0.1458  0.3009
 9683W        W25492   9.817   4.640  12.674 -0.1310  0.3342 -0.1331
 9684W        W25493  15.296  16.393  11.160 -0.1674 -0.4223 -0.0949
 9685W        W25494   3.124  15.919   1.890  0.2119 -0.2147 -0.0969
 9686W        W25495   3.158   2.820   4.799 -0.2389 -0.0865  0.3097
 9687W        W25496  16.474  15.905  12.868 -0.0550 -0.3268 -0.2850
 9688W        W25497   8.899   1.156  14.109  0.1505  0.4472  0.1696
 9689W        W25498   8.614  19.024   3.361 -0.0095 -0.1982  0.3575
 9690W        W25499  17.107  17.025  12.358 -0.3151 -0.0930  0.4904
 9691W        W25500   1.880   0.494  12.463  0.4419  0.0096 -0.1896
 9692W        W25501  15.741  12.134   0.598  0.3126  0.0693 -0.0016
 9693W        W25502  13.646   4.720   1.243 -0.0873  0.1315 -0.1881
 9694W        W25503  13.443   5.943  11.867  0.1041  0.1960 -0.1806
 9695W        W25504   0.485  16.491  11.642 -0.0081 -0.0437  0.2992
 9696W        W25505  10.711  17.914   5.449  0.0549  0.0163 -0.0560
 9697W        W25506   8.652   9.572   5.382  0.0622  0.1722 -0.0777
 9698W        W25507  16.352  17.497   0.035  0.0849 -0.1702  0.1152
 9699W        W25508  18.059  11.214   3.340  0.0289  0.0835 -0.0860
 9700W        W25509   0.030  17.532  12.644  0.0584  0.1495  0.0398
 9701W        W25510   9.424  18.526  11.777  0.0199 -0.1763 -0.2026
 9702W        W25511  15.337   0.233   1.642 -0.2214  0.0502  0.0664
 9703W        W25512  15.342  16.283   0.917  0.3394  0.0931  0.2453
 9704W        W25513   7.814  12.635  13.821 -0.3054  0.0742 -0.3722
 9705W        W25514  15.458  18.127   2.627  0.0698 -0.0524  0.1262
 9706W        W25515   6.056  10.398   4.843 -0.0127  0.0815  0.0642
 9707W        W25516  17.038   6.314   1.749 -0.2237 -0.0260  0.1832
 9708W        W25517   2.029  17.481   0.643 -0.0615  0.0396 -0.0294
 9709W        W25518  18.406  10.623   1.190 -0.2209 -0.0978  0.4263
 9710W        W25519   3.870  14.727  12.131  0.0898 -0.1362  0.0876
 9711W        W25520   2.182   5.558   0.928  0.2250  0.2301  0.4027
 9712W        W25521  10.569   2.409  12.510  0.1535 -0.1865 -0.0300
 9713W        W25522  17.724   3.549  13.273 -0.3488  0.2339 -0.3944
 9714W        W25523  14.756   4.683  15.205  0.3082  0.4237 -0.0464
 9715W        W25524   1.956  16.377   0.345  0.2743  0.2264  0.0716
 9716W        W25525  16.914  13.225   3.746  0.2264  0.1175  0.0499
 9717W        W25526  16.842  10.409  13.523  0.0957  0.0028  0.1501
 9718W        W25527  12.600  16.283   1.548  0.1932  0.1047  0.0738
 9719W        W25528   0.684  16.997   0.829 -0.1867 -0.2897 -0.0244
 9720W        W25529  14.550   7.266  14.112 -0.1176 -0.0028 -0.0475
 9721W        W25530  12.317  10.121   2.819  0.1323  0.1834 -0.0883
 9722W        W25531  15.113  14.326  13.017  0.3392  0.2318 -0.4288
 9723W        W25532   4.814  14.566   0.318  0.2413 -0.1306 -0.1126
 9724W        W25533   1.811   0.708   1.431 -0.1552 -0.2218  0.0953
 9725W        W25534  16.102   2.413  11.014 -0.1659  0.1095  0.1957
 9726W        W25535   6.099  13.502   0.643 -0.0409 -0.3291  0.2999
 9727W        W25536   5.480  16.985  12.293 -0.0500 -0.1790  0.1511
 9728W        W25537   9.470   1.525   0.162 -0.0112 -0.1210  0.3088
 9729W        W25538   3.115  15.715   0.712  0.0469 -0.1076 -0.2733
 9730W        W25539   5.547  18.413  10.776 -0.0130  0.2906 -0.0061
 9731W        W25540   4.844  18.194  12.168 -0.0119 -0.0800 -0.0653
 9732W        W25541   8.276  14.141   5.152 -0.1748 -0.0843 -0.0145
 9733W        W25542   8.018   5.814  11.524  0.0795  0.0867 -0.0505
 9734W        W25543  10.243  14.676  11.487  0.0410 -0.0034 -0.3292
 9735W        W25544   7.343  18.070  14.811  0.0356 -0.2040  0.1828
 9736W        W25545   1.945   4.580  14.440 -0.2030  0.1531 -0.1675
 9737W        W25546   3.424  13.312   1.695  0.0014 -0.2686 -0.1306
 9738W        W25547  11.181   2.115   5.325 -0.2524  0.0074  0.1347
 9739W        W25548   8.774  12.040   4.352  0.0471 -0.3369 -0.0915
 9740W        W25549   9.442  15.481  10.514 -0.0862 -0.1420 -0.0198
 9741W        W25550  14.178   7.317   5.774 -0.1621 -0.3590  0.1683
 9742W        W25551  18.101  15.545  11.148 -0.1083 -0.1707 -0.0285
 9743W        W25552   0.990   1.653   1.239  0.0091  0.0244  0.0241
 9744W        W25553   1.558   2.578   2.369  0.0921 -0.0250  0.0245
 9745W        W25554   9.739  18.181  14.689  0.0495  0.0394 -0.1155
 9746W        W25555   3.865   1.445  11.576 -0.2059  0.0611  0.1048
 9747W        W25556  14.627  16.936  10.358 -0.0578  0.0365  0.0826
 9748W        W25557   5.054  16.682  10.859 -0.0313  0.3504  0.0752
 9749W        W25558  17.390   4.418  13.607 -0.0374 -0.0067 -0.1745
 9750W        W25559   7.528  15.095  15.054 -0.1688  0.2858  0.1671
 9751W        W25560  10.768  12.842  12.553  0.2056 -0.2205  0.1698
 9752W        W25561  14.580   8.008  15.189 -0.0571 -0.0843  0.1322
 9753W        W25562   6.709  15.728   3.841 -0.2262 -0.3837 -0.1425
 9754W        W25563  14.163  17.600   3.736 -0.2502  0.2939  0.2731
 9755W        W25564  14.140  15.565  12.184 -0.2067 -0.1380 -0.0299
 9756W        W25565   3.971  12.255  13.367 -0.2219 -0.0273 -0.1373
 9757W        W25566   2.331   1.103  10.242 -0.0758 -0.3205  0.1293
 9758W        W25567   7.823  11.454  14.141 -0.2119  0.2776 -0.1899
 9759W        W25568   2.555  15.822   3.206 -0.2979 -0.0421  0.0402
 9760W        W25569   3.006  11.041   2.032 -0.1053  0.4174 -0.1757
 9761W        W25570  11.920   7.263  10.964  0.0961 -0.0586  0.1511
 9762W        W25571   9.085   2.207  15.127 -0.0690  0.4269 -0.0252
 9763W        W25572   3.642   1.217   2.752 -0.3087  0.1796 -0.4063
 9764W        W25573  12.319  14.801  12.309 -0.1194  0.0555 -0.0006
 9765W        W25574   7.291  17.096  15.218 -0.0411  0.0650 -0.0797
 9766W        W25575   8.866  14.838  12.449 -0.1895  0.1254  0.4003
 9767W        W25576   6.935   9.267   9.354 -0.0154 -0.1624 -0.0366
 9768W        W25577   8.888  15.049  12.885 -0.3112 -0.0355 -0.0519
 9769W        W25578   2.469  16.313  10.936  0.0404 -0.1442 -0.0831
 9770W        W25579   8.638  13.469   4.641  0.0507  0.2576  0.1772
 9771W        W25580  17.158   7.487  13.317  0.1899  0.0495  0.2351
 9772W        W25581  15.356  16.654   0.126  0.2296  0.2997 -0.0311
 9773W        W25582   2.258  14.830   2.660 -0.0842  0.1918 -0.0615
 9774W        W25583   7.032   3.887   5.685  0.1670  0.2346  0.1508
 9775W        W25584   8.806   8.529   3.562  0.0475  0.2394  0.1997
 9776W        W25585   1.243   1.478  14.111 -0.0915  0.0110 -0.0415
 9777W        W25586  18.020   2.598  15.205 -0.1126  0.2678 -0.1429
 9778W        W25587   9.939  15.380  13.095  0.2075  0.1378  0.1275
 9779W        W25588   8.970   7.041   5.534 -0.1802  0.1280  0.0603
 9780W        W25589  12.673   3.771  13.682 -0.1142 -0.1033 -0.0253
 9781W        W25590  12.857   1.494  13.092 -0.0513  0.0925 -0.2058
 9782W        W25591  17.516  16.869  13.890  0.4693  0.5491  0.0185
 9783W        W25592   9.408  11.857  12.239  0.0508  0.2000  0.1243
 9784W        W25593  16.270   3.289  14.543  0.0470 -0.0933  0.0762
 9785W        W25594  18.951   8.600  10.660 -0.0663 -0.0413 -0.0256
 9786W        W25595  18.159   5.982  14.782  0.1254  0.0799 -0.0444
 9787W        W25596  16.681   9.915   0.973  0.1379  0.3513 -0.2320
 9788W        W25597   1.182   0.304  13.309 -0.0836  0.1423  0.0139
 9789W        W25598  16.618   9.179  13.910 -0.1943 -0.1001  0.1073
 9790W        W25599   1.181   4.040   1.222  0.0255  0.1060  0.1160
 9791W        W25600   3.725   6.364   2.606 -0.5362  0.1249  0.1932
 9792W        W25601  12.937  14.688  14.034 -0.2541  0.1973  0.1104
 9793W        W25602  12.939  11.529  12.361  0.6522  0.1505  0.2913
 9794W        W25603   4.324   4.926  12.237  0.0541  0.3479  0.1607
 9795W        W25604  14.658  14.410   2.232  0.2098 -0.0146  0.0939
 9796W        W25605   6.112  12.926   2.491 -0.0121 -0.0504 -0.0412
 9797W        W25606   2.297   1.277   3.365 -0.2237  0.2580 -0.1260
 9798W        W25607   1.201   5.113  14.688  0.3788  0.4296  0.1079
 9799W        W25608  12.882   1.383   3.219  0.0196  0.3239  0.4166
 9800W        W25609  16.495   4.906   1.354 -0.2218  0.1846 -0.1280
 9801W        W25610  11.209  13.779  14.195  0.3011  0.1485 -0.2464
 9802W        W25611  12.981  13.848   4.999 -0.2203  0.0365 -0.1235
 9803W        W25612   8.222  13.720  13.203  0.1956  0.0190  0.1407
 9804W        W25613  18.387   4.267   4.653 -0.3110  0.1008  0.1269
 9805W        W25614  11.012  16.453  14.943  0.0103 -0.0606  0.2746
 9806W        W25615   5.708  10.477  14.388 -0.0078 -0.2555  0.1523
 9807W        W25616  15.515  14.242   3.431 -0.0919  0.2626 -0.2462
 9808W        W25617   8.087  15.777   0.302  0.1938  0.0340  0.1376
 9809W        W25618   2.014   6.459  15.247  0.0037  0.2424 -0.1771
 9810W        W25619  10.847  15.003  10.497  0.0293  0.4735  0.0505
 9811W        W25620  15.116   8.858   4.616 -0.3285 -0.1652  0.1208
 9812W        W25621   6.687  15.734  13.298 -0.3158 -0.2103 -0.0623
 9813W        W25622  17.831  10.201  12.599 -0.0825  0.0322  0.2365
 9814W        W25623  11.665   2.280  14.069 -0.2484 -0.3486  0.0834
 9815W        W25624   3.237   3.392  13.917 -0.3681  0.1311 -0.0062
 9816W        W25625  14.512   3.359   5.566  0.2327 -0.3919  0.1784
 9817W        W25626  12.240   1.946  14.559 -0.0135  0.1043  0.0002
 9818W        W25627   8.943   0.656  13.605 -0.0057 -0.3538  0.1599
 9819W        W25628  10.571   0.047   5.071  0.3062  0.1822 -0.0445
 9820W        W25629  12.230   7.341   0.911 -0.2626 -0.2570 -0.1057
 9821W        W25630   1.559  10.311  11.312 -0.2283 -0.1005 -0.1838
 9822W        W25631  16.331   5.844  14.576  0.1319 -0.3786 -0.0544
 9823W        W25632  14.844   2.206  10.915  0.1206 -0.3009  0.0126
 9824W        W25633  15.195  16.642   1.936 -0.2819  0.2425 -0.1475
 9825W        W25634   1.587  16.579  14.046 -0.1162 -0.2275 -0.2948
 9826W        W25635  17.746   1.974   5.170 -0.1353 -0.0527 -0.3173
 9827W        W25636   0.241  13.771   2.917 -0.1616  0.2363 -0.0160
 9828W        W25637  15.805   7.154   5.461  0.2060  0.1047  0.2911
 9829W        W25638  11.887  10.401  12.269  0.1778 -0.0913  0.3258
 9830W        W25639  14.238   1.309  11.598  0.0114 -0.1180  0.1417
 9831W        W25640   1.195   4.978   4.229  0.2495 -0.0290 -0.0422
 9832W        W25641  15.348  16.506   5.508 -0.1820 -0.0365 -0.3344
 9833W        W25642   6.648   5.551   0.270  0.1967  0.3290 -0.2139
 9834W        W25643   4.516   9.088   2.748 -0.0580 -0.0582 -0.2880
 9835W        W25644   9.738   4.671  13.949 -0.1227 -0.0514 -0.0326
 9836W        W25645   2.020  10.678  10.645  0.1162 -0.3800 -0.1693
 9837W        W25646   4.851   6.282  14.463  0.0217 -0.0126  0.2504
 9838W        W25647  15.258  10.374   0.495 -0.0772 -0.1041 -0.0128
 9839W        W25648   7.996   3.582  11.705  0.2075  0.1305 -0.2544
 9840W        W25649   7.780   0.643   2.950  0.1565  0.1056 -0.0987
 9841W        W25650   5.944   0.804  10.854 -0.2967 -0.5408  0.1675
 9842W        W25651   1.987   1.682  14.661 -0.0079 -0.1792  0.1690
 9843W        W25652  15.256   6.989   0.351  0.5499  0.0748  0.0393
 9844W        W25653  11.745  18.545   5.833 -0.2098 -0.0483 -0.2496
 9845W        W25654  18.145   9.304   2.584 -0.1624  0.1520  0.1066
 9846W        W25655  11.752   7.405  11.805 -0.3382  0.1891 -0.0145
 9847W        W25656   3.075   0.969   3.227  0.1991  0.2952  0.2368
 9848W        W25657  16.682   6.003   1.526 -0.0362 -0.2399  0.3085
 9849W        W25658  13.153   8.868   4.947 -0.0221 -0.1085  0.1258
 9850W        W25659  11.524  11.901   0.376  0.2587  0.2105 -0.0169
 9851W        W25660   9.186  11.755   4.140  0.0832 -0.1838  0.1386
 9852W        W25661   1.925  10.361  10.296 -0.2202  0.0803 -0.1736
 9853W        W25662   2.748   6.166  13.135 -0.2190  0.0247 -0.0656
 9854W        W25663  10.616   7.815  10.767  0.1303 -0.4153 -0.5795
 9855W        W25664   4.144  19.021   4.490 -0.2636 -0.1935  0.1599
 9856W        W25665  10.926  13.444   2.946  0.0384 -0.0527  0.1402
 9857W        W25666  18.852  13.288   2.750  0.4065 -0.3525 -0.0864
 9858W        W25667   9.819   0.042   0.024 -0.2097 -0.0888 -0.1673
 9859W        W25668   1.125   3.808  12.250 -0.0554  0.0206  0.0578
 9860W        W25669   9.936  10.830   2.199 -0.1218  0.4940 -0.2281
 9861W        W25670  17.579   0.277   4.547  0.0173 -0.0961  0.1474
 9862W        W25671   7.917  18.332  13.809 -0.0492 -0.1331  0.1081
 9863W        W25672   8.704  11.556  14.446 -0.0454  0.1709 -0.1901
 9864W        W25673  17.044  11.045  11.661 -0.3967  0.6115  0.1403
 9865W        W25674   4.251   5.447   2.099  0.0141  0.2899  0.0283
 9866W        W25675  17.191  17.250   1.207  0.0381  0.1424 -0.0215
 9867W        W25676  13.175   9.821   2.667  0.1934 -0.1655  0.2144
 9868W        W25677   7.644   0.958   0.200 -0.0004  0.1425  0.0259
 9869W        W25678  17.767   5.906  10.229 -0.2139  0.1824 -0.1154
 9870W        W25679  17.933  15.509   0.802 -0.1048  0.1100  0.1676
 9871W        W25680  12.062   5.972   2.370  0.0751 -0.2822 -0.2079
 9872W        W25681  11.559   4.608  10.814  0.0622 -0.0855 -0.1541
 9873W        W25682   7.343  16.503   4.153 -0.1826  0.2103  0.2094
 9874W        W25683   7.111   7.573  10.268 -0.0779 -0.1567 -0.1677
 9875W        W25684   0.989   7.705  12.600  0.2544  0.1387 -0.1033
 9876W        W25685   1.417  14.108   2.367 -0.2947 -0.2053 -0.0736
 9877W        W25686   1.756   1.596   5.251 -0.1362 -0.1761 -0.1769
 9878W        W25687   3.867   4.265  10.624  0.3794  0.0073 -0.0610
 9879W        W25688   8.158  12.151   0.447 -0.3089 -0.1201 -0.2390
 9880W        W25689   8.006   8.662   1.766  0.0869 -0.2053 -0.3744
 9881W        W25690   6.145   8.487   3.357 -0.2427  0.2604 -0.1730
 9882W        W25691   7.922   6.496  11.033  0.0278 -0.2113 -0.1798
 9883W        W25692  18.720  14.209   5.849  0.2164  0.0366 -0.0059
 9884W        W25693  14.370  11.777   1.669 -0.0472  0.1263  0.2980
 9885W        W25694   3.282   9.468  12.943  0.0027 -0.0887  0.4196
 9886W        W25695  12.939   3.434  12.206  0.1324 -0.0058 -0.0586
 9887W        W25696  10.897   7.752   6.065  0.0458 -0.0567  0.0610
 9888W        W25697   3.559   2.321  10.458  0.1898  0.1470 -0.0339
 9889W        W25698   1.308  16.216  11.282 -0.3716  0.1355  0.3727
 9890W        W25699   4.718  14.265  13.605  0.2967  0.3895 -0.1176
 9891W        W25700  17.668   2.846   2.925 -0.0396  0.1124  0.2863
 9892W        W25701   5.516  11.578  12.120  0.1393 -0.1478 -0.0066
 9893W        W25702  16.082   0.282   0.518 -0.3016 -0.0937 -0.4188
 9894W        W25703  15.457   6.608   3.293  0.0747 -0.3847  0.3854
 9895W        W25704   8.817   2.328  11.818 -0.0101  0.0920 -0.1030
 9896W        W25705   9.041   2.098   3.680 -0.0330 -0.1504 -0.0257
 9897W        W25706   2.816  11.996   0.920 -0.0372 -0.2907 -0.0074
 9898W        W25707  16.086  14.716   5.100  0.1164  0.1405  0.1238
 9899W        W25708  12.884  11.589  13.823 -0.1118 -0.0064  0.3540
 9900W        W25709   9.039   3.234   0.786 -0.0024  0.0887  0.2954
 9901W        W25710   3.721   8.978   4.490  0.2038 -0.2182 -0.0268
 9902W        W25711   8.510   5.926  14.534 -0.0924  0.0611 -0.0455
 9903W        W25712  15.862   1.828   0.655 -0.1725 -0.1761  0.1847
 9904W        W25713   3.864   4.409  14.829 -0.2261  0.0715  0.3738
 9905W        W25714   4.846   1.383  13.777  0.1688  0.1913 -0.0787
 9906W        W25715  17.375   2.204  13.726 -0.1704 -0.1554  0.1003
 9907W        W25716   6.276  17.576  14.179 -0.0615 -0.0602  0.0169
 9908W        W25717   4.818   3.370  12.488  0.2329  0.0505 -0.1091
 9909W        W25718   6.685  15.973  11.555  0.0912 -0.0108 -0.0088
 9910W        W25719   0.121   9.845  10.769  0.2518  0.1325  0.1543
 9911W        W25720   0.669  11.392   3.548 -0.1699  0.2306  0.2609
 9912W        W25721  18.245   7.207   2.570 -0.1698  0.3433  0.0461
 9913W        W25722   1.931  14.933   9.698 -0.2739  0.0993 -0.3675
 9914W        W25723  11.608  10.321  11.793 -0.0303 -0.2375  0.0792
 9915W        W25724   6.436   9.631  14.579  0.3911 -0.1015  0.1195
 9916W        W25725  10.294  13.577  11.494 -0.0300  0.3909 -0.0823
 9917W        W25726   8.248   2.277  10.626  0.1329  0.3921  0.0689
 9918W        W25727  11.084   6.374   4.310 -0.2057  0.0927 -0.3817
 9919W        W25728   4.827  11.071   2.675 -0.0872 -0.0814  0.1337
 9920W        W25729   4.663  12.008   2.497  0.2378 -0.2642 -0.1444
 9921W        W25730   3.183  11.078  11.395 -0.0335 -0.0228 -0.3136
 9922W        W25731  11.062   7.823   0.753  0.0755  0.1281 -0.0901
 9923W        W25732   2.442  14.778  13.924 -0.1132 -0.4515 -0.1291
 9924W        W25733  16.734  10.871   5.248  0.4381 -0.1295  0.0232
 9925W        W25734  11.536  14.237   0.430 -0.1250  0.1631 -0.0960
 9926W        W25735  12.335   1.180   3.264 -0.1405  0.0771 -0.0004
 9927W        W25736   3.195  17.365  12.612  0.1687  0.4223  0.2338
 9928W        W25737  16.656   8.228  12.963 -0.0637 -0.1109  0.1191
 9929W        W25738  13.123  16.079  14.480  0.0885  0.0658  0.2419
 9930W        W25739  18.558   3.045  14.315 -0.2139  0.1806 -0.0626
 9931W        W25740   8.922  18.520   1.007 -0.2137  0.3423 -0.0647
 9932W        W25741   0.665  14.894   3.762 -0.0397 -0.1151 -0.4048
 9933W        W25742  10.451   6.106   3.069 -0.0357 -0.0685 -0.2492
 9934W        W25743   8.115   3.574  10.681  0.2806  0.1073  0.2153
 9935W        W25744  13.555  15.952  12.238  0.0307 -0.4192 -0.1263
 9936W        W25745   7.777   3.441   0.958  0.0556 -0.1156  0.0484
 9937W        W25746   4.760  10.485  11.548 -0.0858  0.1022  0.2473
 9938W        W25747   2.682  16.553   3.977  0.1616 -0.2886 -0.1232
 9939W        W25748  10.534   8.975  11.499 -0.0138  0.0225  0.0115
 9940W        W25749   8.257  17.077  14.385 -0.2022 -0.0884  0.0986
 9941W        W25750  12.380  13.906  11.984 -0.3708 -0.0426  0.0431
 9942W        W25751   0.648  12.931  12.476 -0.2546  0.0145  0.2412
 9943W        W25752   9.748  15.035   5.395 -0.2357 -0.2264  0.1023
 9944W        W25753  15.847  13.909   4.254  0.2018  0.0766  0.0809
 9945W        W25754   2.222  16.916   1.351 -0.2512 -0.2858  0.0827
 9946W        W25755   2.710   7.201   2.979  0.0567  0.2587  0.5431
 9947W        W25756  15.522   7.504   5.782 -0.0545 -0.0487 -0.4321
 9948W        W25757   2.335  17.937   1.777 -0.0486  0.3051 -0.1198
 9949W        W25758   2.953   9.272  13.305  0.0680 -0.2416 -0.0797
 9950W        W25759  11.443  11.031   3.835 -0.3778 -0.0175  0.1821
 9951W        W25760  14.138   4.731  13.519 -0.0181  0.1025 -0.0003
 9952W        W25761  15.656   8.122   3.543 -0.1830 -0.3203  0.0688
 9953W        W25762   1.443   0.887   4.938  0.2042 -0.0884  0.0561
 9954W        W25763   5.981  16.159   1.610 -0.0535  0.2895  0.0996
 9955W        W25764   4.873  10.843   3.158 -0.3112 -0.0422 -0.2221
 9956W        W25765   3.383  13.448   0.515 -0.0714  0.1509  0.0548
 9957W        W25766   7.813   4.057   2.604 -0.3079  0.0700 -0.5811
 9958W        W25767  14.984   4.185  11.695 -0.0866  0.0200 -0.1470
 9959W        W25768  12.124  17.736   4.819 -0.1880  0.2924 -0.2151
 9960W        W25769  11.284  10.104   5.038  0.1507  0.0506  0.2041
 9961W        W25770   6.512  17.657  11.558 -0.0376 -0.0011  0.2366
 9962W        W25771  16.156  11.896   0.022  0.0460  0.0440  0.1964
 9963W        W25772   8.611  10.374   1.440 -0.2849  0.0034 -0.5142
 9964W        W25773   2.664  11.113  14.996  0.0082  0.1570  0.0144
 9965W        W25774   9.887   1.632  10.666  0.4227  0.0691  0.0874
 9966W        W25775  14.394  14.640  14.490 -0.0039  0.1853  0.3404
 9967W        W25776   8.250   9.520  11.385  0.0077  0.0244  0.3358
 9968W        W25777  12.229   1.637  15.101 -0.0096 -0.1221 -0.2387
 9969W        W25778   3.728   7.060   3.873  0.0470  0.3661  0.2682
 9970W        W25779   3.660   8.869   2.695  0.2319 -0.1231  0.0199
 9971W        W25780  13.082   3.887  13.376  0.0480  0.4449  0.2097
 9972W        W25781  13.064  14.888   4.850 -0.3039 -0.0680 -0.0637
 9973W        W25782  13.724   5.798   1.179  0.0725 -0.1048 -0.2211
 9974W        W25783  17.593  10.916   1.616 -0.1296  0.1315 -0.5240
 9975W        W25784  16.219   2.081  14.149 -0.2699 -0.0187  0.3325
 9976W        W25785   9.728   3.263   3.669  0.2490 -0.0178  0.0796
 9977W        W25786  16.703  16.052   9.899  0.1946  0.3143 -0.1324
 9978W        W25787  11.989  14.361   2.159  0.1000 -0.2402 -0.1279
 9979W        W25788  17.756   6.149   5.056  0.1813 -0.0946  0.1273
 9980W        W25789  15.549  17.271  11.961  0.0427 -0.0838 -0.1551
 9981W        W25790   8.375  12.359   3.272 -0.0046 -0.1585  0.0563
 9982W        W25791  18.421  11.276  11.328  0.1620  0.1819 -0.4375
 9983W        W25792  10.521  13.305  13.562  0.0174 -0.2255 -0.0095
 9984W        W25793  17.770  15.188  11.934 -0.0214 -0.1575 -0.0199
 9985W        W25794  10.290  12.571   2.741  0.1826  0.0423 -0.0938
 9986W        W25795  10.126   1.368  11.646  0.1620  0.1586 -0.1843
 9987W        W25796  13.536  12.253   1.324 -0.0524 -0.2152 -0.0118
 9988W        W25797   9.755   4.919   0.884 -0.1004 -0.3443 -0.3056
 9989W        W25798   3.600   3.203   5.533  0.0936 -0.0055 -0.0395
 9990W        W25799  10.734   9.023  12.556  0.0549  0.2978 -0.0916
 9991W        W25800  13.416   7.134   5.373  0.0629 -0.1840 -0.5963
 9992W        W25801   1.431   9.104  12.648 -0.2115  0.0086 -0.1025
 9993W        W25802  17.570  17.640  12.755  0.0376 -0.0454  0.2947
 9994W        W25803   7.851   5.347  11.720 -0.1034  0.2730 -0.0764
 9995W        W25804   3.346  18.308   0.367 -0.0415 -0.1494 -0.0351
 9996W        W25805  15.771  14.616  12.386 -0.0923  0.1283  0.0963
 9997W        W25806   3.292   1.398  14.909  0.2749  0.3698  0.0077
 9998W        W25807  17.187   1.471   0.218 -0.1259 -0.3228  0.1802
 9999W        W25808  18.886   2.526   3.750  0.0728  0.2730  0.0374
10000W        W25809   1.132  15.940  12.492  0.0374 -0.3131  0.2640
10001W        W25810  12.211   5.072   0.044  0.0763  0.1491  0.3254
10002W        W25811   3.127   6.657  14.182 -0.1068  0.1849 -0.2374
10003W        W25812   2.947   9.602  12.241 -0.1712 -0.0974  0.2327
10004W        W25813   9.597  11.293  13.104 -0.3095 -0.2074 -0.0362
10005W        W25814   1.368  18.942  13.616 -0.5008  0.0544 -0.0569
10006W        W25815   6.594   5.544   5.049  0.3447 -0.0211 -0.0295
10007W        W25816   9.356  16.774  11.548  0.1224  0.0508  0.0143
10008W        W25817   1.479  11.789   5.222  0.0859  0.1106 -0.1185
10009W        W25818  11.970  15.941  11.905  0.0962  0.0239  0.1035
10010W        W25819  14.075   0.561   2.829 -0.2501  0.1406 -0.1466
10011W        W25820   9.764   3.211  11.227 -0.0783  0.2672 -0.3410
10012W        W25821   3.449  11.116  12.618 -0.0085 -0.2921 -0.0160
10013W        W25822  16.298  15.655   3.178 -0.2196  0.0168  0.1529
10014W        W25823   6.449   5.929   4.577  0.0679 -0.0581  0.2694
10015W        W25824   6.774   2.180   3.270 -0.1340 -0.2017 -0.0773
10016W        W25825   2.059   9.610  14.308 -0.0694  0.1254  0.3938
10017W        W25826   0.768   7.845  13.810  0.0129 -0.0351 -0.0832
10018W        W25827  18.681  17.738   2.205 -0.2455  0.0735 -0.0526
10019W        W25828   4.683   2.514  11.893 -0.1103  0.0410  0.1048
10020W        W25829   2.766  15.247  13.147 -0.0893 -0.1238 -0.0096
10021W        W25830   4.903  16.732  13.109 -0.1402 -0.1491 -0.1187
10022W        W25831   9.159   1.128  12.611  0.0143 -0.1363  0.0385
10023W        W25832  14.029   4.149   0.543  0.1675  0.1889  0.1688
10024W        W25833  12.745   0.983   0.308  0.2577 -0.1245  0.0262
10025W        W25834   7.092   0.512  12.717 -0.2756 -0.3698  0.1210
10026W        W25835  11.392   4.639   4.282  0.3176 -0.0512 -0.0927
10027W        W25836   8.754   1.886  12.478 -0.0178 -0.2014  0.0687
10028W        W25837   1.653   4.877   1.980 -0.0844 -0.2394  0.1088
10029W        W25838  15.675  11.264   4.484 -0.1374  0.1340  0.3001
10030W        W25839   8.093   9.617  12.433 -0.1814  0.0574 -0.0672
10031W        W25840  13.607  11.596   1.471  0.1095 -0.0981  0.1621
10032W        W25841  11.854   0.772  11.295 -0.3095  0.1666 -0.0679
10033W        W25842   8.018   8.701  14.901  0.1800 -0.0324 -0.1983
10034W        W25843  17.754   9.951   5.748 -0.3935  0.0761 -0.1515
10035W        W25844   6.950   7.778   2.663  0.2682 -0.0795 -0.1407
10036W        W25845  10.546   2.981   4.197 -0.2028  0.1407  0.0369
10037W        W25846   6.013   9.569   1.642  0.0131 -0.0948 -0.2349
10038W        W25847   2.322   8.329   0.197  0.1359 -0.0315 -0.3370
10039W        W25848  16.564   8.440   1.795 -0.3454 -0.0802  0.1162
10040W        W25849   7.021   2.975  14.838  0.2941  0.0598 -0.1891
10041W        W25850   1.178   8.485   1.700 -0.0523 -0.1201  0.1848
10042W        W25851  17.392   2.905   2.237  0.1014 -0.1188  0.0688
10043W        W25852   1.919   3.724   5.669 -0.2984 -0.0477  0.0795
10044W        W25853   1.285  16.231  15.269  0.0619 -0.0356  0.1920
10045W        W25854   2.599   1.724   2.003 -0.1985  0.1891  0.1054
10046W        W25855  13.437  12.836  12.650  0.2657  0.2158 -0.0798
10047W        W25856  17.289  16.492  13.159  0.1473  0.1625  0.1378
10048W        W25857   3.783  12.381  14.335 -0.2062  0.0365  0.1114
10049W        W25858  13.023   5.033  12.386  0.1272 -0.4761  0.2062
10050W        W25859  12.770  17.330   4.310  0.0856 -0.0752  0.1741
10051W        W25860  11.852  13.030  12.399 -0.1274 -0.0133 -0.0686
10052W        W25861  17.618  15.091  14.554  0.2534 -0.0669  0.3246
10053W        W25862   8.301  10.578  11.385  0.1742 -0.0878 -0.2423
10054W        W25863   2.374  14.214  11.604 -0.0440  0.2217  0.0541
10055W        W25864   3.879   4.962  13.536  0.3789  0.0740  0.0360
10056W        W25865   0.528   6.928  13.581 -0.1038 -0.3703  0.1130
10057W        W25866  17.979  13.230   1.368 -0.2905 -0.0949 -0.1102
10058W        W25867  11.488  17.391   3.345  0.2353 -0.0841  0.2577
10059W        W25868   4.330  18.868  11.879  0.1008 -0.1122 -0.4703
10060W        W25869   2.752   1.351   3.346 -0.0431  0.0978 -0.1116
10061W        W25870  16.179   6.010  11.263 -0.0964  0.0067 -0.1085
10062W        W25871  13.441   5.876  12.938 -0.0096  0.0434  0.0836
10063W        W25872   7.515   0.905  12.997  0.1483  0.0612 -0.0197
10064W        W25873  17.417   1.358  14.846  0.0876 -0.1171  0.1050
10065W        W25874  10.538  17.570  11.757  0.2379  0.1626 -0.0085
10066W        W25875   9.695  14.381  14.863 -0.2455  0.1552 -0.0511
10067W        W25876  11.373  15.865   3.781 -0.0316  0.0119 -0.1605
10068W        W25877  13.752   3.969   5.280  0.2508 -0.1131  0.2618
10069W        W25878  11.453   7.180  13.148  0.0554  0.2784 -0.0077
10070W        W25879   4.194   9.457   3.929  0.1384 -0.1415 -0.1519
10071W        W25880   9.943  17.009   3.363  0.2046  0.0133 -0.0036
10072W        W25881   5.010   8.394   2.092  0.1684  0.0645  0.0759
10073W        W25882   9.504   6.207   2.377  0.4416 -0.1524  0.1983
10074W        W25883  18.423   5.115  11.416  0.2693  0.0251 -0.2341
10075W        W25884  16.230  13.455  12.540 -0.0625  0.0717 -0.0246
10076W        W25885  18.218   4.238  14.879 -0.0038 -0.5400  0.2755
10077W        W25886   2.108   1.033   1.998  0.2348 -0.0630  0.2054
10078W        W25887  16.189  16.463  11.910 -0.0975 -0.2203  0.0584
10079W        W25888  14.614   1.322  13.495 -0.0784 -0.0840 -0.2007
10080W        W25889  18.376  17.268  14.992 -0.0208  0.0620 -0.2736
10081W        W25890   0.251   2.244  11.619 -0.0653 -0.0834  0.1656
10082W        W25891  16.914   6.412  14.036 -0.1135  0.2986  0.0568
10083W        W25892  12.280   3.180   4.657  0.2286 -0.1445 -0.2720
10084W        W25893   8.808   6.941  12.097 -0.0940  0.1662  0.0764
10085W        W25894  15.466   1.418  11.725  0.0727 -0.0004  0.0130
10086W        W25895  18.593   4.497   1.855  0.0240 -0.1096  0.0457
10087W        W25896  16.530  16.311  11.485  0.1343  0.2214  0.2162
10088W        W25897  11.315  10.736   0.597  0.1411  0.0374 -0.1118
10089W        W25898   3.292  18.510  14.274 -0.0942 -0.1680  0.0195
10090W        W25899   5.271  16.470   4.696  0.1449 -0.2488  0.2602
10091W        W25900  16.248  13.768   5.421 -0.0056  0.2083  0.0005
10092W        W25901   2.489   6.833   1.627 -0.0281 -0.2309 -0.1059
10093W        W25902  18.417  13.983  11.110  0.2286 -0.0062  0.0252
10094W        W25903  15.496  16.033  13.658  0.1601 -0.3589  0.0567
10095W        W25904  12.290  15.471  11.651 -0.0941 -0.2557  0.0142
10096W        W25905  13.339   5.631   2.527  0.2051 -0.0308 -0.0002
10097W        W25906   1.277   8.083  15.043  0.0123 -0.1339 -0.1092
10098W        W25907   8.304   1.149   3.328  0.1001 -0.0086  0.0983
10099W        W25908   7.185   1.217  13.364 -0.0614 -0.0383  0.1395
10100W        W25909   7.783  16.815  14.454 -0.1689  0.2383 -0.0182
10101W        W25910   6.361  10.602   3.276 -0.0686 -0.0517 -0.3478
10102W        W25911   9.541  15.772   0.509 -0.0080  0.2151  0.0731
10103W        W25912  10.534   7.871   0.876  0.0736 -0.2756  0.0293
10104W        W25913   1.889  18.654   1.935  0.1769 -0.1431  0.2363
10105W        W25914   5.280  16.532   9.986  0.0684  0.0759  0.0575
10106W        W25915   3.897   5.052   1.986 -0.0258 -0.1802  0.0238
10107W        W25916   3.699  14.628   4.148  0.0669  0.3895 -0.2177
10108W        W25917   3.087  16.702  12.119 -0.0070 -0.3237 -0.1267
10109W        W25918   2.096   9.199  13.589 -0.2755 -0.1203  0.0592
10110W        W25919   0.719  15.454   1.017 -0.0970 -0.0636  0.0906
10111W        W25920   6.869  13.921  12.915 -0.0918  0.4093 -0.2444
10112W        W25921  18.921  13.707  12.034 -0.2019  0.3242  0.4993
10113W        W25922  10.272  11.856  12.423  0.0268 -0.2138  0.3742
10114W        W25923  13.493   2.618   3.829  0.0684  0.2066 -0.0702
10115W        W25924  11.211  17.732   3.059 -0.0107  0.2414  0.1828
10116W        W25925   4.769   9.514   2.789 -0.1238  0.3862 -0.1934
10117W        W25926  11.236  13.119  12.401  0.2973  0.0667 -0.0512
10118W        W25927   2.295   3.557   0.336  0.0575  0.0787 -0.2517
10119W        W25928  16.274  15.909  14.139 -0.2071  0.0209 -0.1814
10120W        W25929  17.946   9.519   4.986  0.1375  0.2296  0.0679
10121W        W25930  16.098  11.683   5.332 -0.0582 -0.1201 -0.3375
10122W        W25931  18.639  10.637   2.657 -0.2384 -0.1510 -0.4152
10123W        W25932  12.889  14.933   3.718  0.0233  0.1163  0.0321
10124W        W25933   2.479   5.197  10.388 -0.1969  0.0364 -0.4132
10125W        W25934   2.685  12.440  15.012  0.1127  0.0887 -0.1640
10126W        W25935  13.170   6.303   0.309 -0.2714  0.0325 -0.3348
10127W        W25936   3.557  14.741  11.224 -0.1349  0.1406 -0.2403
10128W        W25937  16.229  15.392   0.549  0.1403 -0.0729  0.2365
10129W        W25938   6.649   9.678   0.328 -0.1594 -0.0204 -0.1744
10130W        W25939   6.631   8.319   3.426  0.1855  0.1350  0.2570
10131W        W25940  11.037  12.454  11.780  0.1924  0.2736  0.0561
10132W        W25941   9.494  17.117   3.673 -0.2315 -0.3470  0.1448
10133W        W25942  15.756  13.930   2.715 -0.3240 -0.0231  0.0134
10134W        W25943   7.156   3.505   5.050  0.0038  0.0879  0.3166
10135W        W25944   8.098  13.213  15.132 -0.0789 -0.1085 -0.0802
10136W        W25945  13.425   2.200   3.606  0.1491  0.0624  0.1344
10137W        W25946  18.576   2.347  14.120  0.0145  0.1564  0.0786
10138W        W25947  16.116   9.995  12.569  0.1964 -0.0690 -0.0172
10139W        W25948   9.434  10.259   3.574  0.3277  0.2796 -0.1926
10140W        W25949  13.376  12.973   3.061 -0.1552 -0.1445  0.0596
10141W        W25950  19.006  15.327   4.205 -0.0546 -0.0153  0.2422
10142W        W25951   1.298   8.485  10.378 -0.1044  0.2782  0.2118
10143W        W25952  18.157  18.012   1.353 -0.1340  0.0069  0.1266
10144W        W25953   2.986  10.546   1.809 -0.0945  0.0647  0.1304
10145W        W25954   3.117   1.763  12.567  0.2522 -0.1924 -0.1799
10146W        W25955   0.211  17.852  14.838 -0.0105  0.0367 -0.0833
10147W        W25956   0.912  14.981  14.942  0.0876 -0.0119 -0.2212
10148W        W25957   4.627  17.430  11.469  0.2153 -0.2831  0.1357
10149W        W25958  18.820  12.845  11.216 -0.0324  0.0348 -0.0674
10150W        W25959   5.171   0.753   1.640 -0.1420 -0.0764 -0.0063
10151W        W25960   4.684   9.300  12.492  0.1248  0.1835 -0.3181
10152W        W25961   6.074   5.068   2.890  0.1486 -0.1748 -0.1277
10153W        W25962  17.007  18.353  10.583  0.0925  0.1876 -0.2218
10154W        W25963  10.129  13.400  13.294  0.0959  0.0631 -0.0781
10155W        W25964  14.675   3.060   5.951  0.0072  0.1796  0.1523
10156W        W25965  14.080   4.836   0.184  0.0492 -0.2688  0.0722
10157W        W25966   5.589  11.457   1.366  0.0340 -0.1308  0.0716
10158W        W25967   9.489   1.847  14.419 -0.0755 -0.2763 -0.0240
10159W        W25968   5.078  10.095   3.699 -0.3528  0.1543  0.1122
10160W        W25969   8.791  18.629   4.746  0.0784  0.0475 -0.1101
10161W        W25970  17.683   3.193   2.535  0.0313  0.0574  0.2002
10162W        W25971   1.978  18.165   3.660  0.1388 -0.1837  0.1664
10163W        W25972   6.072  18.870   1.299  0.0027  0.1419  0.0132
10164W        W25973  11.668   9.780   4.212 -0.3497 -0.0511 -0.1829
10165W        W25974  14.471   1.230   0.308  0.1208 -0.0034  0.0113
10166W        W25975   5.057  18.880  11.316  0.0641 -0.0881 -0.2030
10167W        W25976  11.968   3.618   3.457  0.0084 -0.1371 -0.2005
10168W        W25977   1.139  15.635   5.359  0.0306  0.1582  0.0982
10169W        W25978  11.474  11.603  13.785  0.0950  0.0666  0.5750
10170W        W25979   3.478  14.806   3.361 -0.2044 -0.1459  0.2671
10171W        W25980  12.392   8.045  12.290 -0.1301  0.1276  0.2132
10172W        W25981   1.888   0.506  13.584 -0.3006 -0.0848 -0.3327
10173W        W25982  17.853   3.608  15.041  0.2163  0.1057  0.0236
10174W        W25983   2.027   4.569   2.030 -0.0695  0.0010 -0.1197
10175W        W25984   6.632   8.088   1.140 -0.4945  0.0226 -0.1076
10176W        W25985  16.179  17.916   4.228 -0.1818 -0.0294  0.2409
10177W        W25986  17.217   6.284   3.209  0.1306  0.4081  0.1578
10178W        W25987   3.330   5.824   1.064  0.0125  0.1557  0.1470
10179W        W25988  18.086  12.577   0.599 -0.2086  0.0756  0.2777
10180W        W25989  11.225  13.611  11.369  0.0098  0.0645  0.1971
10181W        W25990   6.520   6.362  11.356  0.3059 -0.0482 -0.1200
10182W        W25991   8.366  14.376  12.214 -0.1049 -0.0660  0.0518
10183W        W25992  17.281   0.474  15.255 -0.0980  0.3061 -0.1892
10184W        W25993   7.851  12.555   3.090  0.3589 -0.0634  0.3509
10185W        W25994  16.058   4.730   3.348  0.0615  0.3523 -0.1069
10186W        W25995  13.306   2.993   2.884 -0.2601 -0.2160  0.3929
10187W        W25996   2.911   2.106   3.426 -0.0550 -0.0330  0.2180
10188W        W25997   7.079   8.782  13.806 -0.0754 -0.3055  0.1073
10189W        W25998   7.480  12.879   1.619  0.0416  0.1687  0.0010
10190W        W25999   9.217   1.707  12.481  0.3296  0.1482  0.1546
10191W        W26000  11.050  10.269   4.553 -0.0124 -0.0776  0.0664
10192W        W26001  11.164   3.516   2.030 -0.1453 -0.1478  0.0272
10193W        W26002   4.362  13.866   3.185  0.2102  0.2023  0.0610
10194W        W26003   1.044   9.249  14.354  0.0187 -0.1356  0.0816
10195W        W26004  17.396  10.275  11.303  0.0359  0.1032  0.4644
10196W        W26005  18.538   9.796   3.211  0.1647  0.1578 -0.1455
10197W        W26006   4.734   8.106  11.846  0.0035  0.1217 -0.2864
10198W        W26007  13.409  11.578  12.764 -0.2726  0.0653 -0.1072
10199W        W26008  11.604  11.881  14.659  0.0459  0.2666  0.0310
10200W        W26009  11.736   7.502  14.699  0.1326  0.1829 -0.0859
10201W        W26010  14.632   6.174  12.521  0.3480  0.2268  0.0715
10202W        W26011  16.293   2.808   1.475 -0.1173 -0.0677  0.0638
10203W        W26012  15.452   8.195   0.642  0.2965  0.2388 -0.5221
10204W        W26013   4.364  12.533   9.352 -0.2027 -0.1165 -0.2540
10205W        W26014   8.683   1.596  10.924 -0.1782 -0.1639  0.0642
10206W        W26015  16.989  15.096  14.593 -0.0652  0.0147 -0.1822
10207W        W26016   6.783  16.845   1.104 -0.3785  0.3496  0.3120
10208W        W26017  13.344   2.615  12.187  0.1419  0.0159 -0.2680
10209W        W26018   7.096  17.295   1.976  0.0361  0.2059  0.1407
10210W        W26019   8.517   0.237   1.180  0.1143  0.1577 -0.2412
10211W        W26020  18.210   3.644  13.062  0.2654 -0.2260 -0.3643
10212W        W26021  16.536  11.671   4.867  0.3676 -0.1928  0.1030
10213W        W26022  10.196  15.312   2.987 -0.0894  0.2134 -0.2231
10214W        W26023  16.177  10.582   0.665 -0.2859 -0.1453 -0.1436
10215W        W26024   0.541  11.803   0.333  0.1242 -0.1200 -0.0177
10216W        W26025   3.720  18.444  13.939 -0.1821  0.0900 -0.1958
10217W        W26026  15.117   4.666   0.223  0.2044 -0.0451  0.1726
10218W        W26027  18.768  18.585  12.450  0.0924 -0.1504 -0.0595
10219W        W26028   7.956   7.041   4.382  0.1247 -0.0924 -0.1880
10220W        W26029   4.709   6.773   1.603 -0.1420 -0.1446 -0.1839
10221W        W26030  13.809   7.522   5.312  0.1271  0.2776  0.2306
10222W        W26031   1.150   2.485  13.449 -0.3015  0.0700 -0.0010
10223W        W26032  16.348  12.049   0.475 -0.3071  0.2904  0.3859
10224W        W26033  17.980   5.831  12.186  0.2663  0.0664  0.1472
10225W        W26034  15.190  18.174  11.935 -0.4337 -0.0273  0.2284
10226W        W26035   2.054   7.843  15.252 -0.1338  0.1564 -0.1954
10227W        W26036  16.012  17.817  15.085  0.0225 -0.0132 -0.0916
10228W        W26037   1.897   4.610   1.526 -0.0321  0.1523  0.0109
10229W        W26038  18.936  10.182   0.751 -0.0198  0.4642 -0.1580
10230W        W26039   3.486  15.640   3.303 -0.0314 -0.0438 -0.2522
10231W        W26040   8.746  11.248   1.455  0.0507  0.0813 -0.0839
10232W        W26041   0.305   3.771  15.192 -0.1925 -0.1730 -0.0160
10233W        W26042  12.460  11.935   5.272  0.0096  0.1264 -0.3731
10234W        W26043   6.073   1.357  14.039  0.0097  0.1236  0.1410
10235W        W26044  10.420  15.569   2.087  0.1320 -0.1507 -0.1546
10236W        W26045  17.122   2.205   0.590  0.1409  0.0618 -0.2820
10237W        W26046   9.299  18.263  13.885  0.2433  0.2328 -0.2092
10238W        W26047  14.547   3.854   1.691 -0.0276  0.0279  0.1844
10239W        W26048   8.115   3.591  15.081 -0.2111  0.0801  0.1877
10240W        W26049   1.070   1.168   9.990  0.0705 -0.1894 -0.1098
10241W        W26050  15.710  18.034   5.886  0.2544 -0.0862 -0.0738
10242W        W26051  17.196  10.370  12.621 -0.0285  0.1154  0.1535
10243W        W26052   1.337  14.918  11.419 -0.0373  0.0818 -0.2481
10244W        W26053   4.916  16.917  12.581  0.2764  0.0252 -0.0043
10245W        W26054   8.739   0.528  11.919  0.6327 -0.2125  0.1617
10246W        W26055   5.874   1.314   0.951  0.0453 -0.0781  0.1836
10247W        W26056   7.632   6.789  10.612 -0.1263 -0.0512 -0.1420
10248W        W26057  16.877   6.104  11.430  0.1168 -0.3520 -0.3143
10249W        W26058  12.876   7.118   1.695  0.0777 -0.1052 -0.0475
10250W        W26059   6.987  10.338   3.259 -0.1273 -0.1078  0.1258
10251W        W26060   2.707  12.835  13.536 -0.3268  0.0640  0.0558
10252W        W26061   0.199  12.530   0.934  0.3819  0.0477  0.1086
10253W        W26062   9.095  13.936  12.570  0.0014 -0.1368  0.1116
10254W        W26063   2.636   3.836  13.368 -0.0243  0.4657  0.0201
10255W        W26064   9.162   3.096   1.249  0.1975 -0.2424  0.1749
10256W        W26065  12.924   6.923  15.075 -0.2826  0.1958  0.2825
10257W        W26066   8.993  18.180  12.534  0.0921  0.0154  0.1477
10258W        W26067  14.035  11.397   3.093 -0.0303  0.0243  0.1115
10259W        W26068   9.898   4.271  13.639  0.0057 -0.0715 -0.3687
10260W        W26069   9.870   5.152   5.226  0.2517  0.0667 -0.2448
10261W        W26070  17.000   6.299  14.576  0.1117 -0.2486  0.0149
10262W        W26071  13.700  17.367  11.026 -0.2617 -0.1672  0.0728
10263W        W26072  10.692  18.883   0.041 -0.0341  0.2025 -0.2115
10264W        W26073  16.521   8.825  12.390 -0.1753  0.2011  0.0789
10265W        W26074   0.057  12.079  14.900  0.0276 -0.1866 -0.2244
10266W        W26075   2.265  16.568   3.714 -0.1565  0.1379  0.0806
10267W        W26076   8.460   4.710   2.573 -0.3300 -0.1812 -0.0202
10268W        W26077  17.507  14.246   1.976 -0.0297 -0.3732  0.1412
10269W        W26078  16.816  13.256  12.913 -0.0744  0.2097  0.0399
10270W        W26079   9.363   0.122   0.337 -0.0095  0.1064  0.2265
10271W        W26080  13.355   6.112  13.798 -0.0323 -0.0660  0.2505
10272W        W26081  16.222   9.893   1.382 -0.3950  0.0302  0.0709
10273W        W26082  14.182   2.971   1.543 -0.0513 -0.0615 -0.1122
10274W        W26083  17.187  14.497   4.421  0.0918 -0.0809 -0.2907
10275W        W26084   6.512   8.659   2.541  0.3136 -0.1143 -0.0583
10276W        W26085   9.972   8.822  11.379  0.1595  0.2300  0.2638
10277W        W26086  14.832  14.469  10.959 -0.3126 -0.1611 -0.0528
10278W        W26087  14.484   5.993  13.743 -0.0153  0.0666  0.1412
10279W        W26088   2.877  18.083  13.880  0.2630  0.0636  0.0045
10280W        W26089  18.705  14.134   0.656  0.1348  0.0714  0.1932
10281W        W26090  16.241   3.384  11.593  0.3390 -0.1169 -0.0798
10282W        W26091  18.981   8.893  13.368 -0.1466 -0.1275 -0.0588
10283W        W26092  11.243  11.609   0.925 -0.0820 -0.3673 -0.0372
10284W        W26093   6.088   5.920  13.885  0.2924  0.0855 -0.3087
10285W        W26094  18.829   5.046  13.880 -0.1299  0.2137 -0.1462
10286W        W26095   7.260  17.866   3.654  0.2717  0.2152 -0.1473
10287W        W26096  11.941   9.206   4.451 -0.2970  0.1918 -0.0765
10288W        W26097   3.450   1.641  10.336 -0.2642  0.0630  0.0614
10289W        W26098  10.798   3.761   2.935  0.0172 -0.0322  0.0162
10290W        W26099   6.435  12.503  14.852  0.6305  0.2696  0.0300
10291W        W26100  10.688   2.044   0.991 -0.0643  0.0966 -0.1878
10292W        W26101   2.181  16.973  11.485  0.1133  0.1020 -0.1386
10293W        W26102  11.847  14.899  14.568  0.0406 -0.0999 -0.2218
10294W        W26103  15.610  16.876   2.758 -0.0897 -0.4535  0.1278
10295W        W26104   3.596   0.574   1.297  0.0892  0.4024 -0.0009
10296W        W26105   0.851   8.188  12.748  0.0641 -0.0134  0.1808
10297W        W26106   7.260   9.009   8.855  0.2069 -0.1575 -0.0805
10298W        W26107   8.544  11.159   3.094 -0.3069 -0.0429  0.0888
10299W        W26108  15.549  16.597   4.761 -0.0532 -0.1734  0.3308
10300W        W26109  17.050  16.183  12.238 -0.0940 -0.0524 -0.1745
10301W        W26110  11.266   5.471  13.045  0.2285  0.1070 -0.1472
10302W        W26111   9.551   2.005   3.787  0.2633 -0.3065  0.0736
10303W        W26112  14.462   7.569  11.120 -0.0020  0.1398 -0.1330
10304W        W26113  10.899   0.017   3.803 -0.0605  0.3601  0.3142
10305W        W26114  13.850  15.021   4.738 -0.1810  0.1447  0.4958
10306W        W26115   9.982   6.195  11.252 -0.1624 -0.1749 -0.1066
10307W        W26116   2.139  17.487  15.195 -0.0193 -0.1768 -0.2720
10308W        W26117   9.234   5.955  13.348  0.1226  0.0006 -0.0930
10309W        W26118   0.394   9.075  10.723  0.4059  0.1933  0.2342
10310W        W26119   7.504   4.909  11.632 -0.4621  0.1450  0.2300
10311W        W26120  18.295   5.853   0.091 -0.0046 -0.0090  0.2046
10312W        W26121  11.782  15.236   0.923  0.4758 -0.0105 -0.2510
10313W        W26122  17.863   0.201  10.111  0.0733 -0.3109 -0.0447
10314W        W26123   5.703   8.510   4.743  0.0165 -0.1938 -0.0820
10315W        W26124  14.358  18.390   4.511  0.0712 -0.0253  0.0038
10316W        W26125  17.784  17.786   2.729  0.0910 -0.1478 -0.2035
10317W        W26126  11.696  16.311  13.222 -0.0091 -0.3169 -0.1834
10318W        W26127  12.834  15.470   4.544 -0.0194 -0.2084 -0.2863
10319W        W26128   0.726  15.343   5.545 -0.0858  0.1378 -0.1903
10320W        W26129  12.255  16.485   4.382  0.0817  0.1107 -0.1096
10321W        W26130  14.447   0.119  11.130  0.2041 -0.0582 -0.0738
10322W        W26131   4.213  15.061  12.839  0.1796  0.3738  0.0401
10323W        W26132   8.193   0.560  14.204  0.4045  0.5385  0.0504
10324W        W26133   8.301   7.067   1.863  0.0155 -0.3003 -0.1717
10325W        W26134  18.625  13.625   0.761  0.2779 -0.2964  0.0593
10326W        W26135  13.820   4.103   3.153 -0.0477  0.3905 -0.1750
10327W        W26136  11.047   9.336  13.401  0.0751 -0.1062 -0.4965
10328W        W26137   1.122  10.390  13.382 -0.1133  0.2526  0.0036
10329W        W26138  12.891  11.848   5.637  0.0303 -0.4644  0.0847
10330W        W26139   5.810  13.872  13.971  0.3407  0.1047 -0.0771
10331W        W26140   7.886  10.746   0.243  0.0309  0.0965 -0.0455
10332W        W26141   1.579  15.812   4.383 -0.3463 -0.0253 -0.2966
10333W        W26142  17.463   3.146  13.377  0.0077  0.0191  0.1072
10334W        W26143   4.015  13.376   1.320  0.0698 -0.1226 -0.1175
10335W        W26144   8.928   4.452  13.585 -0.0364 -0.1722  0.2077
10336W        W26145   9.267   4.749   0.854 -0.0619 -0.1710  0.2457
10337W        W26146   9.164   8.977  14.152  0.2312 -0.0981 -0.3411
10338W        W26147  11.040  13.344  14.939 -0.1669 -0.0830  0.2169
10339W        W26148  17.423   2.949  11.107  0.0073  0.0687 -0.4305
10340W        W26149  15.875   9.140   0.783  0.2480  0.0424 -0.0962
10341W        W26150   2.754   5.570  10.495 -0.2984  0.0100 -0.0022
10342W        W26151  16.251   1.909   2.030 -0.1290  0.4807 -0.1036
10343W        W26152  11.792   0.159   2.614  0.3614 -0.2470  0.2607
10344W        W26153   8.539  15.460  14.075  0.1413 -0.1388  0.0781
10345W        W26154   2.364   0.559  15.179 -0.0228  0.0622  0.0889
10346W        W26155  14.448   7.192  12.370  0.3027  0.0999 -0.1160
10347W        W26156   2.540  15.310   5.541  0.4305  0.5301 -0.0276
10348W        W26157   0.710  11.238  13.429  0.0279  0.0713  0.1251
10349W        W26158  10.110   3.703   0.623 -0.2263 -0.0818 -0.0459
10350W        W26159   3.177   1.943   1.502  0.0391  0.1870  0.1823
10351W        W26160  13.439  18.066   4.559  0.0035  0.1984 -0.2397
10352W        W26161   1.221   5.173  12.099 -0.2224  0.3761 -0.0644
10353W        W26162   5.481   5.715   3.165  0.3322  0.5358 -0.2251
10354W        W26163  11.411   7.311  15.068  0.2878  0.2742 -0.2323
10355W        W26164  10.736  18.322   3.552 -0.2461  0.2569  0.1990
10356W        W26165   8.599   2.711  14.902 -0.0081 -0.4116 -0.1228
10357W        W26166  18.595   2.649   1.105 -0.3557  0.0802  0.0278
10358W        W26167   3.580  15.423  12.682 -0.0816  0.1337 -0.1856
10359W        W26168  17.045   3.019   1.852  0.0463  0.0495  0.1129
10360W        W26169   4.265   5.808   0.577 -0.3438  0.2448  0.2646
10361W        W26170   7.012   3.136  14.263 -0.3785 -0.0194  0.0142
10362W        W26171   6.631   9.591  12.187  0.0606 -0.2618 -0.3874
10363W        W26172  18.232  16.248   6.034 -0.2491 -0.1312 -0.0219
10364W        W26173   8.115   5.476   2.507 -0.0905 -0.0766  0.1431
10365W        W26174  18.223  13.085   4.433  0.0065 -0.0549  0.1642
10366W        W26175   8.643   9.198  14.733  0.0899 -0.2830 -0.2957
10367W        W26176   2.510  16.846  12.806  0.0478  0.2450 -0.1707
10368W        W26177   3.097   6.542  13.143 -0.0888 -0.0337  0.2359
10369W        W26178  11.155   8.972  11.178  0.2297 -0.1708 -0.2597
10370W        W26179   0.297  15.962  14.152  0.1846  0.1140  0.1082
10371W        W26180  18.337   6.794   3.859 -0.0656  0.0926  0.2140
10372W        W26181  10.711  17.375   1.460 -0.2505 -0.0270 -0.3680
10373W        W26182   2.490  12.370   4.498 -0.4085 -0.0231 -0.1606
10374W        W26183   1.378  14.937   2.552  0.3650  0.0507 -0.1221
10375W        W26184   9.961   8.547   4.774 -0.1462 -0.0101  0.2731
10376W        W26185   2.598  10.908  13.048 -0.2122 -0.0392  0.1768
10377W        W26186   9.357   9.408   3.401 -0.3804 -0.0337 -0.1748
10378W        W26187   7.877  13.775  11.108 -0.4589 -0.1765  0.2025
10379W        W26188  10.916   2.644  15.188 -0.3683  0.1487 -0.0748
10380W        W26189   8.950   0.968   0.902  0.1895 -0.0044 -0.2314
10381W        W26190  11.584  15.158  11.968  0.1248 -0.0026  0.1622
10382W        W26191  17.037   9.455  14.170  0.0385  0.3686 -0.1162
10383W        W26192   9.819   1.942  14.018  0.0026  0.1849 -0.1314
10384W        W26193   6.773   8.219  13.867 -0.0887 -0.0833 -0.0406
10385W        W26194  18.770   7.650  13.586  0.0918  0.0059  0.0267
10386W        W26195  12.826   8.900   3.174  0.0724 -0.2292  0.0614
10387W        W26196  12.741  11.536  11.346 -0.4355  0.2235  0.1379
10388W        W26197   0.300  11.562   3.832  0.2176  0.1227  0.3208
10389W        W26198  15.063   8.116  14.849  0.4296  0.0263  0.1640
10390W        W26199   1.006   0.407  12.829  0.1290  0.1573 -0.0995
10391W        W26200  13.214  11.627   5.358  0.1497  0.3308  0.1748
10392W        W26201  16.316   8.698   4.074 -0.0667 -0.1180 -0.3044
10393W        W26202   9.057   4.861   3.309  0.0054  0.1833  0.0075
10394W        W26203   0.036   7.742  12.433  0.0582  0.0234  0.0870
10395W        W26204   7.498   3.935  12.643 -0.0025 -0.1779 -0.0478
10396W        W26205   6.499   9.791   1.568  0.2992 -0.0200 -0.0363
10397W        W26206  12.233  12.722  12.545  0.2792 -0.0435  0.0158
10398W        W26207  14.417   8.962   5.342  0.3772  0.0652 -0.3429
10399W        W26208  16.623  10.621   5.781 -0.0974 -0.0304 -0.2700
10400W        W26209   5.450   9.071  14.615  0.1778  0.1362  0.1620
10401W        W26210   2.868  12.030  14.140 -0.1864 -0.3260  0.1641
10402W        W26211   5.496   9.885   3.950 -0.1037  0.0161 -0.4215
10403W        W26212   6.095   4.461   4.385 -0.2705 -0.1429  0.1127
10404W        W26213  17.356  11.172   4.544 -0.0318 -0.0987 -0.2315
10405W        W26214  17.183   1.563  12.359 -0.0371 -0.1297 -0.1162
10406W        W26215   5.609   8.455  11.856 -0.0925  0.0777  0.1818
10407W        W26216  13.942   7.321  12.952  0.2385 -0.3315 -0.4417
10408W        W26217   5.710   7.267  14.876  0.3611 -0.0029 -0.0620
10409W        W26218   2.164   6.020   5.802 -0.0383  0.0147  0.2980
10410W        W26219   6.130   6.980   0.749  0.0712 -0.0546  0.1066
10411W        W26220   5.040  16.235  10.518  0.0873  0.1126 -0.1495
10412W        W26221   9.684   0.559  14.429  0.2734 -0.0413 -0.3975
10413W        W26222   5.292  16.568  12.524 -0.0494 -0.0655 -0.2037
10414W        W26223  13.258  17.991   2.220  0.0804 -0.1709 -0.2308
10415W        W26224  15.277   1.295   0.268  0.0274 -0.0654 -0.2357
10416W        W26225  11.668   3.499   1.925 -0.0613 -0.0667  0.2769
10417W        W26226   6.558   5.066   4.877 -0.5065 -0.1275  0.0842
10418W        W26227   2.875  17.787   4.839  0.1499  0.2854 -0.1962
10419W        W26228   3.454  10.365   5.070  0.0526 -0.1329 -0.1838
10420W        W26229   4.682   0.667  10.290  0.0971  0.1515  0.1988
10421W        W26230  18.935  18.890   3.272 -0.0209  0.1559  0.2069
10422W        W26231   2.810   5.683  12.954 -0.2219  0.4163  0.0937
10423W        W26232   7.995   6.560  13.324 -0.2922 -0.2514 -0.2663
10424W        W26233   4.418   9.663  11.854  0.2111  0.1217  0.1123
10425W        W26234   0.675   6.892   1.188  0.1099  0.1939  0.2462
10426W        W26235  13.378  10.701  14.393  0.2691 -0.0490  0.2712
10427W        W26236   8.484  10.889   3.929  0.1321  0.0073 -0.1654
10428W        W26237  14.726  18.966  11.539  0.0362 -0.1490 -0.2077
10429W        W26238  16.426  10.429   3.257 -0.0072 -0.2170  0.2935
10430W        W26239   8.479   8.675   0.359  0.3477 -0.0098  0.1052
10431W        W26240  13.833  11.425  14.179 -0.1102  0.1695 -0.1655
10432W        W26241  15.828  12.228   3.635 -0.1145  0.1989  0.0791
10433W        W26242   5.496   9.061  10.388  0.3125  0.1982 -0.1828
10434W        W26243  11.300   4.344  14.463 -0.1375 -0.0571 -0.1594
10435W        W26244   3.506  11.605   9.676  0.0394 -0.1430  0.3305
10436W        W26245   5.234  16.497  15.114  0.1122 -0.1589  0.3091
10437W        W26246   1.907  11.809   3.802 -0.1000  0.2270 -0.2216
10438W        W26247  10.528  18.044   3.132 -0.4104  0.0091 -0.0632
10439W        W26248  14.901  14.489  12.453  0.0162 -0.1528 -0.0562
10440W        W26249  14.249   8.776   2.943  0.1319  0.0432  0.0480
10441W        W26250   1.309   3.271  10.882  0.1646  0.0767  0.2307
10442W        W26251   8.024  14.768  11.335 -0.3504  0.1472 -0.1489
10443W        W26252  16.550  11.103   1.955 -0.0394 -0.0783  0.3548
10444W        W26253   2.328  10.345   0.984 -0.0742  0.0493  0.2212
10445W        W26254  10.531  15.944  11.388  0.3093 -0.1551 -0.1020
10446W        W26255  18.111  10.363   2.506 -0.1998  0.0445 -0.1458
10447W        W26256  11.933   0.252   0.231  0.1171 -0.1954  0.1966
10448W        W26257  17.390   4.493   0.805 -0.2885 -0.0581 -0.1628
10449W        W26258  10.287  12.158   2.450 -0.3720 -0.0649  0.0087
10450W        W26259  14.831  15.719   0.232  0.0285  0.2057  0.0111
10451W        W26260   0.316  12.174   4.074  0.0753  0.4235 -0.0846
10452W        W26261   9.051  13.047   2.408 -0.0587 -0.0590 -0.0399
10453W        W26262   3.721   5.431  13.311 -0.2263 -0.2980  0.1575
10454W        W26263  12.573   0.932  14.767 -0.0004  0.2244  0.0305
10455W        W26264   0.360  16.118   2.208  0.2425 -0.1206  0.2492
10456W        W26265  16.929  13.987   2.738 -0.4255 -0.0657 -0.1989
10457W        W26266  15.015  13.925   3.347 -0.0584  0.1814 -0.0885
10458W        W26267  11.203   8.953   3.026 -0.2071  0.2725  0.0759
10459W        W26268   2.450   4.815  13.614  0.2140  0.2052  0.0358
10460W        W26269  11.759   0.914   3.922  0.1389  0.3768  0.1803
10461W        W26270  18.519  16.541  13.623 -0.2488 -0.3371  0.0202
10462W        W26271   9.431   3.571   4.663  0.2747  0.0114  0.1554
10463W        W26272  17.459  10.818   4.905  0.0307  0.2598 -0.0444
10464W        W26273  12.787   0.186   5.326  0.1597 -0.0888 -0.5291
10465W        W26274  15.281   1.565   1.595  0.0955 -0.0302  0.4085
10466W        W26275  18.195   6.782  15.025 -0.2094  0.2789 -0.4541
10467W        W26276   4.139   2.821  10.497  0.3048  0.1049 -0.1644
10468W        W26277  10.618   6.912  13.541 -0.1380  0.2453 -0.0490
10469W        W26278   1.520   5.950   4.418  0.1048  0.0369  0.2034
10470W        W26279  17.652   0.101  15.121  0.0735 -0.0782  0.1146
10471W        W26280   4.707  13.505   1.919  0.2819  0.1682 -0.0109
10472W        W26281  17.987   6.051   3.609  0.2677 -0.1179  0.0206
10473W        W26282   0.130  18.465  14.470 -0.2009  0.2873 -0.3129
10474W        W26283   7.726  16.027   4.094  0.1482  0.1107 -0.1114
10475W        W26284  16.408   0.333  12.327 -0.2513 -0.2794  0.1874
10476W        W26285  16.340   5.286   1.661 -0.0932  0.2646  0.0851
10477W        W26286   8.142  12.902   2.322  0.1769  0.0032 -0.1431
10478W        W26287   5.912   9.446   0.787 -0.0445 -0.1995  0.3439
10479W        W26288   9.025  12.232  13.793 -0.1310  0.2072  0.1663
10480W        W26289   8.762   1.482   4.195 -0.2134  0.2467 -0.5632
10481W        W26290   1.308   9.702  13.868 -0.3025 -0.3682 -0.1937
10482W        W26291   1.276  18.561  12.355  0.3288 -0.0410 -0.0040
10483W        W26292  14.688  14.110   3.656  0.0396 -0.1023  0.1510
10484W        W26293  10.142  11.791  11.753  0.1158 -0.0542 -0.0386
10485W        W26294   3.432   3.740  12.492 -0.0800  0.1392  0.2213
10486W        W26295   3.735   5.070   2.463 -0.1346 -0.1218 -0.0637
10487W        W26296   2.614   1.725   2.511  0.0666 -0.0453 -0.0180
10488W        W26297  18.702   9.707   5.522  0.3305 -0.0122  0.1462
10489W        W26298  10.046   3.261  13.808 -0.3034 -0.0607 -0.4005
10490W        W26299   5.227  10.189   4.193  0.1530 -0.2524  0.2256
10491W        W26300   3.791  18.797  11.925 -0.1611  0.0991 -0.1379
10492W        W26301  12.323   1.469  12.931 -0.0706  0.1760  0.3731
10493W        W26302   0.205  14.946  14.445 -0.2021 -0.0421  0.1508
10494W        W26303  10.309  17.324   3.729  0.1042 -0.2896  0.2842
10495W        W26304  17.808  12.636   0.141  0.4964 -0.1414 -0.0266
10496W        W26305   9.592   9.959   0.464 -0.1881  0.4419  0.0215
10497W        W26306   2.735   5.513   2.805 -0.0711 -0.1207  0.4843
10498W        W26307  13.325  13.419   2.878  0.0567  0.0594 -0.1568
10499W        W26308   3.116  10.479  12.143  0.2076  0.0349  0.0711
10500W        W26309  14.393   6.323  11.547  0.1143  0.0910  0.0777
10501W        W26310  10.800   9.479  12.918  0.2503  0.5274  0.3914
10502W        W26311   5.567  16.149   1.243  0.0261  0.0497 -0.1784
10503W        W26312   7.785   5.885   1.352 -0.0183  0.2408  0.0570
10504W        W26313  14.513  16.176   4.803 -0.2146 -0.1320  0.2665
10505W        W26314  11.275   8.728   0.639  0.0383 -0.0962 -0.0589
10506W        W26315  14.214   9.129   2.095  0.0871 -0.1303 -0.2190
10507W        W26316  16.272   4.216  12.130  0.0850  0.1679  0.0495
10508W        W26317  18.017  11.269  12.684 -0.1752 -0.2065 -0.0645
10509W        W26318  15.231  16.656   5.105  0.0183 -0.0939  0.0299
10510W        W26319   0.944  14.154   4.417  0.2676  0.4034  0.2215
10511W        W26320   8.661  13.461  13.168  0.3976 -0.2218  0.1256
10512W        W26321  16.460   6.404   5.165 -0.1652  0.2947 -0.0831
10513W        W26322  13.220   5.073  15.064  0.1030 -0.2184 -0.1729
10514W        W26323  12.951   0.152  13.545  0.1443 -0.2694  0.1347
10515W        W26324   7.231   7.005  13.269  0.2581  0.1126 -0.0979
10516W        W26325  10.371  14.245   5.517 -0.0728 -0.1927  0.4346
10517W        W26326   8.169  13.975   0.036  0.2535 -0.0115 -0.0637
10518W        W26327   7.612  18.271   9.982 -0.2639 -0.2067  0.1350
10519W        W26328   0.350  16.554  14.177  0.3630 -0.1080 -0.1111
10520W        W26329   9.094  11.618   1.440 -0.2874 -0.0833  0.1566
10521W        W26330  11.307  15.543  13.001  0.0495  0.2031 -0.1480
10522W        W26331   5.293   8.947  15.148  0.3341 -0.0172 -0.0628
10523W        W26332  11.153  17.043   4.784  0.2104 -0.1968  0.0865
10524W        W26333   4.165   6.865  11.275  0.0787 -0.2402  0.5157
10525W        W26334  11.386   5.847  11.196 -0.1503 -0.3121  0.0035
10526W        W26335  16.443   0.236   1.222 -0.3375 -0.1176 -0.0287
10527W        W26336   8.559  17.177  12.559  0.0811 -0.1141 -0.0965
10528W        W26337  15.113   5.994  14.582 -0.1667  0.2336  0.0688
10529W        W26338  15.090   4.675   3.802 -0.1279 -0.2636 -0.0114
10530W        W26339  16.690  16.596   4.388  0.2200 -0.0425  0.0380
10531W        W26340  17.783  17.383   0.622 -0.0472  0.1734  0.0039
10532W        W26341   0.373  11.799   3.387 -0.1874  0.2414 -0.1857
10533W        W26342   5.721   6.724   3.437  0.1612 -0.1255  0.2248
10534W        W26343  10.089   0.193  10.803 -0.1320 -0.0843 -0.2422
10535W        W26344  12.274   2.632   0.875  0.1692 -0.0040  0.0201
10536W        W26345   5.588   7.993   4.755 -0.3331  0.0959  0.0292
10537W        W26346   4.218  15.109  11.895  0.0140  0.2025  0.0382
10538W        W26347  16.592  13.111   4.191 -0.0659 -0.0998  0.3631
10539W        W26348   8.068   2.314   1.066 -0.1872 -0.2606 -0.0473
10540W        W26349   4.587   1.717  11.884  0.2253  0.3880 -0.4177
10541W        W26350   6.726  17.624  14.568 -0.5094 -0.0499 -0.0961
10542W        W26351  18.600   2.606  13.134 -0.1384  0.0487  0.2682
10543W        W26352  17.450  16.938   2.014  0.0224  0.2068  0.1237
10544W        W26353  17.909   3.526   5.235  0.1786 -0.2495 -0.1487
10545W        W26354  17.379   0.572   5.498 -0.0307 -0.4270 -0.0334
10546W        W26355  14.358  11.633  12.752 -0.0241 -0.1375  0.3793
10547W        W26356   8.552   2.171  13.339  0.2176  0.1094 -0.0739
10548W        W26357  12.959   8.699   0.553  0.2876 -0.3454  0.3384
10549W        W26358   4.465  14.654   3.499  0.0235  0.1473  0.0944
10550W        W26359  13.581   0.911   0.936  0.2636  0.0640 -0.3264
10551W        W26360   3.651  17.235   0.252  0.1163 -0.2895 -0.4721
10552W        W26361  10.042   4.321   2.608 -0.0012  0.2661 -0.2658
10553W        W26362   9.770  18.230   3.956 -0.0357  0.1741  0.1160
10554W        W26363   7.627  12.412   3.621 -0.0164  0.1158 -0.1288
10555W        W26364  10.902  13.047   3.682  0.2969  0.2156 -0.0633
10556W        W26365   5.439  10.126   1.226  0.1266 -0.0478 -0.0553
10557W        W26366   6.542  10.243  13.804 -0.1723 -0.1415 -0.3235
10558W        W26367  14.877  16.237   4.293  0.1585  0.1204  0.1363
10559W        W26368  11.659   3.983   1.838  0.3961 -0.0037 -0.2166
10560W        W26369  13.915  18.781  13.377 -0.0606 -0.1461 -0.0496
10561W        W26370  14.821  11.950  11.004  0.1382 -0.3148  0.1389
10562W        W26371   8.358   0.027  12.722  0.2184  0.0569 -0.0553
10563W        W26372   9.276  14.363  12.354 -0.1845 -0.1618 -0.0820
10564W        W26373   3.357  10.991   3.617  0.3677 -0.1777 -0.0014
10565W        W26374  16.310  14.625  14.678 -0.1169 -0.3528  0.1097
10566W        W26375   9.916   2.745  11.328 -0.4942  0.1533 -0.2643
10567W        W26376  15.546   7.672  15.092 -0.0786 -0.0954 -0.0843
10568W        W26377  16.876   5.013  15.182 -0.1048 -0.1522 -0.2671
10569W        W26378   9.388   5.968   0.786  0.1878 -0.0660  0.1256
10570W        W26379  18.273  14.567  14.661 -0.0353 -0.0468  0.0128
10571W        W26380  11.791  12.335   4.107 -0.2111 -0.1285 -0.0560
10572W        W26381   6.349  14.818  13.359  0.1147  0.1929  0.0505
10573W        W26382   8.962  13.159   3.666 -0.3341 -0.0306 -0.2494
10574W        W26383  18.933  13.910   0.006  0.1431  0.2249 -0.0142
10575W        W26384  18.709   0.384   9.713  0.1333  0.2674  0.3794
10576W        W26385   8.206   2.274  10.145 -0.0538  0.1482  0.1698
10577W        W26386  12.722  14.934  12.881  0.0581 -0.1229 -0.1526
10578W        W26387   8.790  12.113  11.724 -0.0325  0.0504  0.0518
10579W        W26388   2.634   2.181  11.670 -0.3327  0.0792 -0.2186
10580W        W26389   6.313  16.462   1.852  0.1413  0.1551  0.1222
10581W        W26390   8.754   8.469   2.617 -0.2647 -0.3798 -0.0519
10582W        W26391  12.040   1.156  11.606  0.1536 -0.0554 -0.0641
10583W        W26392   8.301   8.548  11.306 -0.1439 -0.0683  0.0101
10584W        W26393  14.751   1.848  12.489  0.2127 -0.0290 -0.1772
10585W        W26394  10.423  16.590   1.142 -0.1296 -0.1338 -0.1422
10586W        W26395  10.952  12.760  13.215 -0.0891 -0.0653  0.1063
10587W        W26396  11.127   7.840  12.466  0.4945  0.1299  0.1705
10588W        W26397  16.068   4.779   1.742 -0.0875  0.3422  0.3290
10589W        W26398  13.950  14.676   9.845  0.1023 -0.1324 -0.3546
10590W        W26399   4.955   5.999  12.230 -0.0755  0.0857  0.2006
10591W        W26400   5.004  19.020   0.021 -0.0615 -0.0480  0.2547
10592W        W26401  18.206   4.446  13.353  0.2661  0.0636 -0.2388
10593W        W26402   0.520  18.452   5.805 -0.1817  0.2125  0.0201
10594W        W26403  14.341  12.480   2.319 -0.0920 -0.1120 -0.0732
10595W        W26404  15.134   4.390   1.991  0.0157 -0.0111 -0.3905
10596W        W26405  10.760   6.295   1.622  0.4043 -0.0496  0.1633
10597W        W26406   2.550  18.432  12.404  0.2176  0.2122  0.2390
10598W        W26407   6.917  18.141  11.085 -0.1289  0.2344  0.1840
10599W        W26408  12.950  14.949  12.251 -0.0319 -0.2955 -0.0598
10600W        W26409  14.697  14.425   1.708  0.0159 -0.1722 -0.3045
10601W        W26410   4.656   9.099   4.620 -0.1661 -0.3977  0.1108
10602W        W26411   1.795   9.888  13.467 -0.0664 -0.2554 -0.0148
10603W        W26412   3.826   1.318   1.489  0.0707  0.1149 -0.1805
10604W        W26413  15.692   8.008   4.591 -0.0127 -0.2705  0.1715
10605W        W26414   2.072  12.370  12.792  0.1404 -0.0617  0.0886
10606W        W26415  17.907  13.599   1.046  0.2332  0.0896 -0.0050
10607W        W26416  16.591   7.152  13.724 -0.1832 -0.1261  0.1319
10608W        W26417  17.158   3.924   4.182  0.0947 -0.0017 -0.0196
10609W        W26418  18.451   2.139   5.160 -0.0568  0.0133  0.3011
10610W        W26419   9.555  13.909   2.173  0.0481 -0.1020 -0.0337
10611W        W26420   6.094   0.976  14.461 -0.3414  0.1959 -0.0734
10612W        W26421   8.313  18.887   4.896  0.1575  0.1221  0.1121
10613W        W26422   9.149  13.876   1.014  0.3855 -0.4141  0.4554
10614W        W26423   8.569   4.114  13.772 -0.1169 -0.1118 -0.2303
10615W        W26424  10.356   7.778  13.517 -0.0013  0.1926 -0.0040
10616W        W26425   5.331   6.694   9.041  0.2851  0.0068  0.0906
10617W        W26426   2.067  15.132  11.680 -0.1828 -0.0361  0.2139
10618W        W26427   3.968   7.910  14.691 -0.0097 -0.0100  0.2579
10619W        W26428   5.809   5.329  10.530  0.0764 -0.0934  0.0594
10620W        W26429   5.116  18.780   1.532  0.3886 -0.1336  0.0357
10621W        W26430   1.795  12.533   3.394 -0.1495 -0.2318  0.0256
10622W        W26431   1.655   5.775   3.989  0.0026  0.0155 -0.0094
10623W        W26432  10.677   9.265  11.079  0.3500 -0.0886  0.2631
10624W        W26433  15.121   0.521  10.592  0.0445 -0.0710 -0.1329
10625W        W26434  14.713   1.394   3.823 -0.4295  0.0745  0.1784
10626W        W26435  17.683   7.038  12.558  0.1682  0.0540  0.1609
10627W        W26436   9.130   2.197  13.282  0.1613 -0.1876  0.3164
10628W        W26437  17.517   9.017   9.843  0.2822  0.0577  0.0125
10629W        W26438  11.243  13.750   3.187  0.5478  0.0809 -0.1182
10630W        W26439  18.855  18.008  13.929  0.0752  0.2768  0.1020
10631W        W26440   5.687   2.371  11.390  0.1539 -0.0623 -0.1012
10632W        W26441   3.784  16.002   3.615  0.1257 -0.1664  0.1351
10633W        W26442   3.148  11.195  13.992  0.0892  0.5220  0.1099
10634W        W26443   6.328   2.529  13.821 -0.1304  0.1929 -0.0163
10635W        W26444   4.771  13.952   3.428  0.1782  0.0623 -0.1006
10636W        W26445  13.750   7.567  11.084  0.0349 -0.0505  0.2267
10637W        W26446  11.391   1.521  13.132  0.3405  0.0531 -0.0582
10638W        W26447   0.726  11.666  11.696  0.1312  0.4020 -0.3175
10639W        W26448  16.117   4.565   4.793 -0.1630  0.1901 -0.1581
10640W        W26449  11.894  18.146   5.540 -0.0458  0.0607 -0.1582
10641W        W26450   0.883  13.909   3.939  0.0242  0.3766  0.0932
10642W        W26451   4.534   9.778  13.356 -0.2861  0.1839  0.2024
10643W        W26452   2.534  11.584  11.249 -0.3922 -0.0204 -0.1561
10644W        W26453   2.861  15.718  12.029  0.1891 -0.0759 -0.0399
10645W        W26454  17.848   6.316  10.556  0.0569  0.0269  0.1488
10646W        W26455   5.449  12.073  11.535  0.0163  0.0328  0.1602
10647W        W26456   6.931  11.105   3.730 -0.1220 -0.1692  0.1356
10648W        W26457  18.652   7.022   3.573 -0.0253  0.2890 -0.0740
10649W        W26458   7.932   9.743   2.052  0.0550 -0.1068  0.1002
10650W        W26459  13.087   4.747  13.650  0.3499 -0.1629  0.1889
10651W        W26460  16.643  15.380   1.871  0.1413 -0.6299 -0.2779
10652W        W26461   4.378   5.499  10.528  0.0281 -0.2201  0.1190
10653W        W26462  15.433  13.426   1.868  0.0618 -0.2415 -0.2058
10654W        W26463  18.078   2.982   5.399 -0.1422  0.2097  0.0094
10655W        W26464  15.249  12.084  13.267 -0.0564 -0.3737  0.1658
10656W        W26465   4.885  12.088  14.312  0.1301  0.1213 -0.1660
10657W        W26466   9.636  11.977  11.669 -0.1311 -0.1570 -0.2381
10658W        W26467   4.698   3.625  10.275 -0.0294 -0.0568 -0.2838
10659W        W26468  15.984   3.560  12.867  0.0450 -0.0029  0.2589
10660W        W26469  13.306  16.164   2.952  0.0980 -0.3549  0.1708
10661W        W26470  12.949   2.694   0.421 -0.1037 -0.2385  0.0802
10662W        W26471  12.560  13.135  14.336 -0.1023 -0.1358 -0.1652
10663W        W26472   5.553  16.623  11.510  0.2026  0.0385  0.2908
10664W        W26473   8.141   7.356   3.435  0.0738 -0.0575  0.0501
10665W        W26474   2.497   3.868   3.738 -0.0107  0.2950  0.2101
10666W        W26475   9.228  13.827  13.767  0.3229 -0.1833 -0.0432
10667W        W26476  10.621  15.347   2.578  0.1638 -0.0072  0.0949
10668W        W26477  14.686  16.093   3.048 -0.3032  0.0782 -0.1116
10669W        W26478  12.435  13.490  11.117 -0.1075  0.3117  0.0084
10670W        W26479  16.125   6.160   2.237  0.2042  0.0685  0.1880
10671W        W26480   7.001  16.769  14.217 -0.2421  0.0407 -0.2567
10672W        W26481  14.915   9.297  13.212 -0.0767 -0.2456 -0.0214
10673W        W26482   5.188  14.632   4.714 -0.0810 -0.1142  0.0299
10674W        W26483  12.503   2.216   2.950  0.5628 -0.1088 -0.0356
10675W        W26484   8.256   6.860   0.307  0.2013 -0.1025  0.2493
10676W        W26485  13.808  11.235  13.049  0.1320  0.1637 -0.2100
10677W        W26486   5.123   8.319  14.052  0.0641  0.1598  0.2537
10678W        W26487   5.509  13.577  12.395 -0.1901 -0.3502  0.1702
10679W        W26488  12.106  13.506  11.492  0.0276 -0.0998  0.2007
10680W        W26489   4.707   3.991  13.830 -0.0038  0.2344  0.0495
10681W        W26490  13.274   3.314   5.566 -0.2774 -0.1662 -0.1717
10682W        W26491   8.836   0.732  14.590  0.0358  0.1169  0.3332
10683W        W26492   3.073  10.671  13.852 -0.1065  0.1124 -0.1308
10684W        W26493  17.756  11.744   1.444  0.0723  0.0775  0.2173
10685W        W26494   8.106  17.367   4.130 -0.0009  0.1029 -0.0957
10686W        W26495   4.383   4.229  11.822  0.0733  0.1332 -0.1153
10687W        W26496   0.612  18.252   9.867  0.1058 -0.2909  0.1379
10688W        W26497  15.412   7.826  14.504  0.1942 -0.2443  0.0565
10689W        W26498   8.754   4.772  11.217 -0.1827  0.2038  0.0533
10690W        W26499   9.950  16.727   0.401 -0.1165 -0.2670  0.0211
10691W        W26500  12.309   4.802  10.335  0.1059 -0.0023  0.2416
10692W        W26501  16.223   4.649  14.127  0.1283  0.0050  0.4231
10693W        W26502   1.001  18.078  12.471  0.1978  0.0891 -0.1029
10694W        W26503  14.755   2.681   4.471  0.1937  0.0972 -0.0162
10695W        W26504  16.321   7.202   3.155  0.1028 -0.2177  0.2950
10696W        W26505   7.541   8.715  12.315  0.2593 -0.0094  0.4427
10697W        W26506  16.326   9.869   0.148  0.0707  0.5067 -0.2600
10698W        W26507  10.909  18.018   2.770 -0.2277 -0.1808 -0.0937
10699W        W26508  15.407   2.019   1.458  0.3865 -0.3469  0.0205
10700W        W26509   8.565  13.597   3.024 -0.1556 -0.1539  0.0559
10701W        W26510   8.324   4.830   4.819  0.0674  0.1204 -0.0772
10702W        W26511  18.884  11.567   2.940  0.3616 -0.1500 -0.0679
10703W        W26512   9.955   0.875  13.294 -0.1442 -0.0206  0.2207
10704W        W26513  16.234   5.612   0.275  0.0476  0.0089  0.1247
10705W        W26514   7.921  14.370   1.126 -0.4185  0.0673  0.1251
10706W        W26515   6.151   0.557   2.735  0.3648  0.0774 -0.0587
10707W        W26516  16.935  13.221   5.594 -0.2213  0.0871  0.0723
10708W        W26517   4.703  12.386  12.586 -0.0640  0.3480 -0.0340
10709W        W26518  18.142  10.826   0.720  0.1668 -0.0558  0.0811
10710W        W26519  14.152   1.268   1.567  0.0731  0.0992  0.3359
10711W        W26520   2.854   0.216   2.837 -0.4749  0.1346 -0.3494
10712W        W26521   6.275   9.712   2.301  0.1801  0.0105 -0.0989
10713W        W26522  18.831   9.241   2.398  0.3297  0.0229  0.0193
10714W        W26523  12.875  11.420  10.691  0.0794  0.2772 -0.0162
10715W        W26524  12.888  10.248   1.292  0.0302  0.1275 -0.0690
10716W        W26525  14.617  11.732   5.713 -0.0285  0.0553 -0.0796
10717W        W26526  14.621  11.780   3.836 -0.1973 -0.0402  0.2666
10718W        W26527   4.897   1.532  12.983 -0.2790  0.1382 -0.1227
10719W        W26528  10.368   9.088   4.068 -0.0829 -0.2180 -0.1266
10720W        W26529  14.622   6.318   3.358  0.0398 -0.2363 -0.0281
10721W        W26530  11.034   4.677  10.726 -0.0549 -0.0100  0.0779
10722W        W26531   0.183  18.740  13.723 -0.1444  0.1490  0.0175
10723W        W26532   8.192   9.809   4.749 -0.1646  0.2689 -0.0357
10724W        W26533  10.604   5.812  13.643  0.1839  0.3226 -0.1233
10725W        W26534   4.409  14.442  10.859 -0.1658  0.0249 -0.1524
10726W        W26535  15.775  17.175   4.115  0.2975  0.0535  0.3486
10727W        W26536  15.113   6.272   3.475  0.1174 -0.0353  0.2480
10728W        W26537   2.664   5.254  11.534  0.0683 -0.0799  0.2619
10729W        W26538  13.596   0.147   1.108  0.1150  0.1097  0.0035
10730W        W26539  12.448  16.385  10.170  0.1781 -0.2285 -0.1765
10731W        W26540   7.389  11.867   9.636 -0.3671 -0.0938  0.1038
10732W        W26541   4.308   1.969   1.076  0.1003  0.0752  0.0629
10733W        W26542  10.202  13.128  10.270 -0.1127 -0.0274  0.0053
10734W        W26543   3.443   0.429   4.165  0.0252  0.0275 -0.1394
10735W        W26544  10.044  11.716  10.928 -0.0484  0.1620  0.1506
10736W        W26545  16.759  13.498   2.000 -0.0442  0.0534 -0.0603
10737W        W26546   0.706  13.304  11.582 -0.2287  0.1070 -0.0463
10738W        W26547   6.789   9.103   2.774 -0.1496  0.2138  0.2098
10739W        W26548   5.572  17.719   3.476 -0.0139 -0.1173 -0.0508
10740W        W26549   5.635   4.913   4.205 -0.1165  0.0689 -0.0239
10741W        W26550   3.002   4.644   4.620 -0.0579  0.2430 -0.3616
10742W        W26551  17.211  11.862  12.231  0.1115 -0.1222  0.0637
10743W        W26552  15.025   4.071   1.514 -0.2412  0.1436  0.1623
10744W        W26553   3.192  14.384   4.004  0.0445 -0.0457  0.0250
10745W        W26554  16.003   0.180   1.005  0.2652  0.0030 -0.2155
10746W        W26555   7.166  14.850   1.734  0.1030 -0.0291  0.2948
10747W        W26556   3.653  15.899   1.717 -0.0348 -0.0689  0.0119
10748W        W26557   8.545  15.443   1.905 -0.1228  0.1278 -0.2477
10749W        W26558  11.213   2.353   1.772  0.2549  0.0500  0.1507
10750W        W26559  10.566   3.857   4.588 -0.0330  0.1969 -0.2447
10751W        W26560   9.136  10.144  11.545  0.2644 -0.1040 -0.0912
10752W        W26561   1.378   3.063   9.320  0.0735 -0.4381 -0.0058
10753W        W26562   6.192   5.866  12.450  0.2490 -0.3585 -0.0159
10754W        W26563  16.239   6.794   3.602 -0.0958  0.1313 -0.3043
10755W        W26564  10.474  15.147   9.608  0.0689 -0.1747 -0.2886
10756W        W26565   5.056  16.873  12.103  0.0279 -0.0030 -0.0090
10757W        W26566  11.782  15.367   3.722  0.0041  0.0367  0.1234
10758W        W26567   9.206   6.289   2.931  0.0855 -0.0533  0.0488
10759W        W26568   3.857  11.719   3.885 -0.1822 -0.0583 -0.2077
10760W        W26569  11.232   8.513  11.057 -0.1572  0.1527  0.1360
10761W        W26570   1.273   9.442  14.751  0.1994 -0.0402  0.0954
10762W        W26571   7.877  17.437  11.845 -0.3178  0.0339  0.0585
10763W        W26572   5.201   3.278  12.796  0.0247  0.2490  0.0704
10764W        W26573   8.460  15.124   0.866 -0.0000  0.2343  0.0549
10765W        W26574  11.368  14.376  12.233  0.2474 -0.2023  0.5024
10766W        W26575  11.352   0.015  13.993 -0.1551 -0.0259 -0.0231
10767W        W26576  14.692  12.180   0.183  0.1698 -0.0074 -0.3102
10768W        W26577  11.457   8.191   2.609  0.1352  0.1133  0.0325
10769W        W26578  18.203   9.897  11.778  0.3148  0.1039  0.1301
10770W        W26579  12.905  16.690   1.712  0.0154 -0.2824  0.1360
10771W        W26580   9.718  12.614  12.867  0.1222  0.3792  0.4630
10772W        W26581  18.118   3.387  13.507  0.0784 -0.0741 -0.2393
10773W        W26582   1.674   8.850  13.493 -0.1465  0.0418 -0.0560
10774W        W26583   7.502  11.336   3.083  0.1149 -0.0374 -0.0108
10775W        W26584  15.505   8.088  13.950 -0.4205 -0.0036 -0.0943
10776W        W26585  16.305   2.540   3.469  0.3107 -0.1019  0.2342
10777W        W26586  16.057   5.959   3.916 -0.0440  0.3567  0.1349
10778W        W26587  11.180   1.070   1.428  0.0849 -0.3683  0.2557
10779W        W26588   8.335   6.657   2.846  0.0807 -0.0626  0.0153
10780W        W26589   2.065  18.142  15.050  0.0290 -0.0336  0.1667
10781W        W26590   4.903   7.275  11.361 -0.0755  0.0197 -0.0275
10782W        W26591  15.560  15.443  10.794  0.1406 -0.2031  0.4874
10783W        W26592  18.677  12.372   1.192 -0.1350 -0.3194  0.1174
10784W        W26593  10.429   4.010   2.557  0.1479 -0.3155  0.1352
10785W        W26594   9.981  18.778  13.893  0.2380  0.0234 -0.2128
10786W        W26595  12.611  13.935   1.053 -0.0675  0.2818 -0.5384
10787W        W26596   9.142   9.979   1.315 -0.1986  0.0816 -0.0702
10788W        W26597  15.119  13.213  12.580  0.0967 -0.0794 -0.0173
10789W        W26598  11.233  13.147  14.443  0.0149  0.0447 -0.2823
10790W        W26599   3.283  17.998  14.130 -0.3969 -0.3092  0.1030
10791W        W26600  18.456   9.092   1.443  0.2357 -0.0269 -0.0656
10792W        W26601  10.761   7.343   3.726  0.0504 -0.1624 -0.1207
10793W        W26602   1.382   6.891   0.415  0.2434 -0.0073 -0.1413
10794W        W26603   0.665  17.694   0.349  0.3184 -0.2585  0.0174
10795W        W26604   3.117   8.392   4.469 -0.0684  0.0099  0.2099
10796W        W26605   2.973  13.252  15.175 -0.1436 -0.0058  0.2728
10797W        W26606  15.974   7.763   3.306 -0.1400 -0.3930  0.0647
10798W        W26607  15.365   6.037   5.061  0.0888  0.3119  0.1083
10799W        W26608  13.904  18.185   4.699  0.1520 -0.1811 -0.3968
10800W        W26609   6.178   7.320   2.974  0.0375 -0.2480 -0.0994
10801W        W26610  13.719   1.531   9.540 -0.0792  0.0061  0.1407
10802W        W26611   6.720  15.030  12.635  0.0349  0.1563 -0.0076
10803W        W26612  11.021   3.914  12.418 -0.0428 -0.1640  0.2825
10804W        W26613  10.189  10.737   3.467 -0.0610  0.2548 -0.0539
10805W        W26614  14.377  12.397  13.684 -0.1804 -0.1387 -0.0312
10806W        W26615  14.408  11.851  14.945 -0.0406 -0.0024  0.0644
10807W        W26616  14.198  16.439  12.123  0.0851  0.0948 -0.2366
10808W        W26617  15.178   9.559   0.354  0.2476  0.0678  0.0814
10809W        W26618   7.672  10.616   3.381  0.0105 -0.0785  0.0225
10810W        W26619  14.079   0.037  13.744  0.1653  0.2762 -0.1185
10811W        W26620  10.501   4.917  10.584 -0.1043  0.3602  0.0679
10812W        W26621   2.815   4.326   0.625 -0.0844 -0.0218  0.0581
10813W        W26622   8.735  16.152   4.029  0.0605 -0.1028  0.0160
10814W        W26623  11.492   1.903   1.759 -0.1154  0.1428 -0.3736
10815W        W26624   1.848   3.497   1.245 -0.0840  0.1098  0.0594
10816W        W26625  10.442   2.774  12.894  0.1679 -0.1591  0.0988
10817W        W26626   6.214   8.648   1.327 -0.3484 -0.2981 -0.3001
10818W        W26627   2.524   8.671  10.473  0.0105 -0.1925  0.0041
10819W        W26628   2.484   8.883   1.679 -0.0800 -0.0864  0.1880
10820W        W26629   4.413  11.351   2.659  0.1332 -0.2261 -0.1350
10821W        W26630  15.415   3.711  12.812 -0.0059  0.2593 -0.0118
10822W        W26631   2.786   7.452  14.616 -0.0369 -0.2569 -0.1106
10823W        W26632   1.831   7.087   4.732 -0.0565 -0.1852  0.1140
10824W        W26633  18.284  13.588   1.805  0.1316  0.1954 -0.1257
10825W        W26634   8.594   8.862   1.287 -0.2306 -0.0712 -0.0150
10826W        W26635   5.671   3.125   0.125  0.0893 -0.2654 -0.2873
10827W        W26636  10.976   1.746   0.362  0.1132 -0.1084  0.0335
10828W        W26637   4.850  17.238   0.547 -0.3455  0.1454 -0.1826
10829W        W26638  10.032   8.676   1.000  0.2764 -0.0722  0.2228
10830W        W26639   8.090   0.141   3.508  0.2249  0.3172 -0.1941
10831W        W26640   1.883   3.611  10.026  0.0747 -0.1448 -0.2427
10832W        W26641   1.186   6.633  11.521 -0.1523 -0.0410  0.0896
10833W        W26642  18.724  14.834   4.888  0.0664  0.2065 -0.3079
10834W        W26643   7.822  18.012   1.802 -0.2526  0.0572  0.2732
10835W        W26644  18.207  12.109   2.644  0.4117  0.0432 -0.0387
10836W        W26645   8.455   4.930   0.566 -0.0331 -0.0117  0.4239
10837W        W26646   2.871   5.168   3.781 -0.1518  0.0300  0.1305
10838W        W26647   1.536  12.795   4.406  0.0903  0.3740  0.1465
10839W        W26648   5.286   3.171  12.342 -0.2679 -0.1901  0.0281
10840W        W26649  10.023  14.020   1.966 -0.0616  0.0846  0.1196
10841W        W26650   8.112  17.662  14.767  0.3461  0.1385 -0.2921
10842W        W26651   2.596   4.150  14.696  0.1395  0.4313 -0.2647
10843W        W26652   0.416  10.883   4.704 -0.0825 -0.0337 -0.1007
10844W        W26653  15.902  13.383   3.322  0.1299 -0.0740 -0.0528
10845W        W26654   2.351   5.794  13.028  0.0251  0.0442 -0.1022
10846W        W26655   3.283  17.358   4.271  0.1142 -0.0604 -0.0479
10847W        W26656   4.210   9.383  12.317  0.1019  0.1691  0.1249
10848W        W26657   6.500  11.661   0.769 -0.1104 -0.1404  0.1042
10849W        W26658  14.277   3.692   3.166  0.0764  0.1515 -0.1334
10850W        W26659   2.744  14.840  14.604 -0.2937 -0.1969 -0.1556
10851W        W26660   0.494   6.954   4.188 -0.1322  0.4105 -0.1365
10852W        W26661   8.536   5.247  12.937  0.1231 -0.1758 -0.0100
10853W        W26662  13.324   0.832   4.687  0.3273  0.2092  0.1673
10854W        W26663  15.279  15.708   1.021 -0.1989 -0.0072  0.1068
10855W        W26664   5.483   7.818   3.734  0.0765  0.0272 -0.2057
10856W        W26665   8.864   5.901   4.205 -0.4215  0.1050  0.0734
10857W        W26666  18.956  11.035  12.796 -0.0093  0.1184 -0.0036
10858W        W26667   5.504  10.860   2.061  0.1584 -0.1805 -0.0090
10859W        W26668   7.599   4.592  12.024 -0.2112  0.3288  0.2376
10860W        W26669   6.871  18.327  15.221 -0.1832 -0.2229  0.1679
10861W        W26670   4.953   7.053  13.999  0.3987  0.1714  0.1484
10862W        W26671   1.759   0.920  12.614  0.4725  0.2265  0.6168
10863W        W26672   8.648  15.521  11.906 -0.2185 -0.2239  0.0220
10864W        W26673  17.792   9.575  11.853  0.2788 -0.0676  0.2085
10865W        W26674  17.568  17.264   2.421  0.0754  0.1552  0.0201
10866W        W26675  14.967  17.266   4.118  0.0490 -0.0200  0.4124
10867W        W26676  10.299   0.448   0.000  0.1954 -0.1252  0.1932
10868W        W26677  10.414  12.171   3.563  0.1138  0.0201  0.3710
10869W        W26678   1.695   7.344   2.682 -0.1093 -0.0527 -0.5356
10870W        W26679   4.299   6.160  11.064  0.2523 -0.2570  0.3294
10871W        W26680  18.903  15.985   2.180 -0.0821 -0.0591 -0.0298
10872W        W26681  12.169  10.980   2.768  0.2465  0.0950 -0.2388
10873W        W26682   4.539   8.258  15.047 -0.0574  0.2403 -0.1810
10874W        W26683   9.976  13.647  12.581 -0.1686 -0.2033  0.0967
10875W        W26684  17.360   7.306   3.284 -0.2442 -0.0566  0.2178
10876W        W26685   4.475  14.096  14.040  0.0346 -0.0056  0.4654
10877W        W26686  15.702   3.503   5.706 -0.0523  0.2300 -0.0573
10878W        W26687   1.527   0.818  12.108  0.1242 -0.0136 -0.0174
10879W        W26688  18.690   8.565  11.162 -0.1024 -0.0458  0.3485
10880W        W26689   1.605   5.161   0.474 -0.1907  0.1900  0.0815
10881W        W26690   9.889   3.558   0.129  0.0251  0.3052 -0.2227
10882W        W26691   0.820  17.270  14.248  0.0979  0.3619  0.2367
10883W        W26692  12.323  17.455   2.309  0.2338 -0.0200  0.2632
10884W        W26693  16.047   6.758  10.786 -0.0603 -0.0020  0.3606
10885W        W26694  12.199  11.091  12.598  0.2432  0.0442 -0.1092
10886W        W26695   5.920  10.840  13.446 -0.3363  0.1462 -0.1254
10887W        W26696  12.553   6.672   2.609 -0.2454  0.0133 -0.1935
10888W        W26697   9.698  10.023   3.100 -0.0106  0.1696  0.0023
10889W        W26698  10.680  15.539  14.102 -0.0144  0.2386 -0.0083
10890W        W26699  16.916  10.310  14.020  0.2783  0.1977  0.0166
10891W        W26700   6.726  16.307  14.387  0.4244 -0.0274 -0.0267
10892W        W26701  15.239   2.249  11.254  0.0376 -0.3621 -0.0325
10893W        W26702  12.258  16.350  13.946  0.1082  0.2138  0.2715
10894W        W26703   0.241  11.188  11.199 -0.1701 -0.1229 -0.0535
10895W        W26704   3.380  13.157   4.410  0.4094  0.0818  0.1451
10896W        W26705   5.762   7.621   3.013 -0.4778  0.2104 -0.2134
10897W        W26706   9.799  18.723   1.002 -0.1249 -0.0077  0.2477
10898W        W26707   2.674   5.635   1.261  0.0031 -0.0060  0.1177
10899W        W26708  10.317   8.746   2.745  0.0117 -0.0662 -0.0234
10900W        W26709  18.749  11.032  13.760  0.1121  0.2589  0.2910
10901W        W26710   9.936   7.905  11.132  0.1872 -0.0110  0.0177
10902W        W26711   4.483  11.863  14.150 -0.0257  0.0774 -0.2742
10903W        W26712   1.266   2.492   2.766  0.0332  0.2659 -0.1252
10904W        W26713   3.890   2.920  11.014 -0.0429 -0.1657 -0.2269
10905W        W26714   8.952   7.923  15.170  0.1315 -0.3473  0.0711
10906W        W26715   2.738  11.068  12.535 -0.2101 -0.0330  0.1638
10907W        W26716   5.965   6.722  13.389  0.1411 -0.3638  0.1606
10908W        W26717  15.032   2.334  14.894  0.0146 -0.0337  0.0186
10909W        W26718  14.372  11.976   0.630 -0.1232  0.1588  0.1127
10910W        W26719   1.413   0.270   0.774  0.1279  0.0831 -0.0737
10911W        W26720  10.156  10.355  13.732 -0.1096  0.3404  0.3262
10912W        W26721  14.728  16.380   0.804 -0.1962  0.0999  0.1320
10913W        W26722   0.935   9.992  13.638  0.2034 -0.3903 -0.2549
10914W        W26723  13.722  10.678   0.412  0.0204  0.2629 -0.1481
10915W        W26724   2.667  14.119   4.716 -0.0584  0.0155  0.0516
10916W        W26725  18.507   3.144   3.653 -0.1267 -0.0868  0.3908
10917W        W26726   6.427   7.326  14.293 -0.1817  0.1248 -0.2603
10918W        W26727   2.519   5.869   0.652 -0.2962  0.2005  0.1373
10919W        W26728  13.941   1.050  10.960 -0.0437 -0.1610  0.0112
10920W        W26729  12.835   8.688   1.811  0.1799  0.0804 -0.0501
10921W        W26730   1.637   4.178  13.535  0.1295  0.0860  0.1312
10922W        W26731  17.448   7.951  10.929  0.1823  0.0612 -0.1055
10923W        W26732   7.176   3.249   3.437  0.0097  0.1367 -0.4415
10924W        W26733  11.749   2.651   5.329  0.1389 -0.2019 -0.0323
10925W        W26734  10.295   4.630   0.073 -0.0812  0.0062  0.1232
10926W        W26735   1.642  15.268  11.312  0.2662 -0.0917 -0.1214
10927W        W26736   6.309   0.974   1.944  0.3159 -0.0959  0.0724
10928W        W26737  10.831   0.664  11.324  0.2074 -0.1025 -0.2362
10929W        W26738   2.144   1.770  13.131  0.1467  0.0243 -0.1745
10930W        W26739   9.720  14.777   4.937 -0.3278  0.0345  0.0130
10931W        W26740   1.208   1.995   3.691 -0.1301 -0.0905  0.1294
10932W        W26741  11.171   4.699   5.026 -0.0746  0.2689 -0.0621
10933W        W26742  18.392  11.639   5.815 -0.1693  0.2128 -0.2828
10934W        W26743  11.906   5.481  13.586 -0.0289 -0.0646 -0.0813
10935W        W26744   1.876   1.902   0.783  0.2953  0.3220 -0.0872
10936W        W26745   3.921  13.924  11.063 -0.1097 -0.4441  0.3225
10937W        W26746  12.775  16.524  12.688 -0.1636 -0.4733  0.0472
10938W        W26747  17.450  14.005   6.161 -0.1388 -0.1448 -0.1149
10939W        W26748   2.629  18.082  10.698  0.0637  0.1968  0.1158
10940W        W26749  12.281   7.844   2.660  0.2592 -0.1312 -0.0636
10941W        W26750  12.068  13.871   4.643  0.4642  0.1292  0.2362
10942W        W26751  16.666  13.103   1.162  0.0785 -0.0945  0.0531
10943W        W26752  11.627   0.294  10.003  0.1961 -0.2631  0.0291
10944W        W26753   1.581  16.075  11.856 -0.3607 -0.2430 -0.1287
10945W        W26754  16.742  17.114  13.692  0.0677  0.0319 -0.0172
10946W        W26755  15.162   8.537   5.034 -0.2877 -0.2138 -0.0569
10947W        W26756  17.016  16.447  13.947 -0.0096  0.0747  0.2565
10948W        W26757   8.121   1.505  15.204 -0.1319  0.2417 -0.2327
10949W        W26758   1.756  14.080   4.611  0.1392 -0.2003 -0.1096
10950W        W26759  14.785  12.631   0.357 -0.2604 -0.0366  0.2802
10951W        W26760   8.833   9.695  15.085  0.0548 -0.1763  0.0840
10952W        W26761  12.993  17.335  15.004  0.1327  0.0831  0.0290
10953W        W26762  10.976  16.230   1.810  0.3068 -0.0885  0.1968
10954W        W26763   4.032   7.256   4.709 -0.0464 -0.0656 -0.1760
10955W        W26764  13.267  12.766  13.855  0.3141  0.1038  0.1074
10956W        W26765  17.431  10.445  10.469 -0.0318  0.2123  0.0047
10957W        W26766  16.458   3.087   1.880 -0.4662 -0.1546 -0.1319
10958W        W26767   6.721  16.321   2.072 -0.1305 -0.1611 -0.1259
10959W        W26768   8.486  18.143   4.442 -0.1833 -0.1097  0.2436
10960W        W26769   4.757   3.678   2.372  0.0128  0.2161  0.1479
10961W        W26770  15.943  11.483   1.639  0.1423  0.1541  0.3337
10962W        W26771   7.009   8.273   0.573 -0.1991  0.0540 -0.1600
10963W        W26772  17.328  10.263  13.614 -0.2285  0.0334  0.2189
10964W        W26773  12.297   8.726  12.945 -0.5102  0.4173  0.0216
10965W        W26774  15.805  10.802   0.290  0.1974 -0.1022 -0.1639
10966W        W26775  19.006   9.101  12.854 -0.0950  0.1324  0.1156
10967W        W26776  15.140  18.585  10.910  0.0444  0.1561  0.2746
10968W        W26777  17.924   6.549   3.690  0.0742  0.3931  0.0925
10969W        W26778  14.100  10.646   3.631 -0.3326  0.0604  0.0212
10970W        W26779   5.246  17.012   1.308 -0.1281 -0.1011  0.1650
10971W        W26780   6.244   1.126  12.050 -0.1138 -0.5781 -0.1906
10972W        W26781  11.340   5.707  14.501  0.0096  0.1838 -0.0007
10973W        W26782  15.558   9.364   9.684  0.2285 -0.0644  0.2919
10974W        W26783   8.625   4.181   5.286  0.0159 -0.0308 -0.0319
10975W        W26784   3.085  12.927   3.815  0.0475 -0.2355  0.1108
10976W        W26785  18.567  12.776   2.036  0.1117  0.1651 -0.0153
10977W        W26786   0.920  14.958  10.589  0.1454 -0.0314  0.0998
10978W        W26787  11.659  18.760   2.862 -0.3669  0.2825 -0.2128
10979W        W26788  11.603   8.699   2.743 -0.0586  0.1383 -0.2187
10980W        W26789  18.725  14.383  10.911  0.2041 -0.0355  0.2629
10981W        W26790  15.086  11.029  10.556 -0.0254 -0.1384 -0.0936
10982W        W26791   5.721   8.970   0.878  0.3270  0.0203 -0.1161
10983W        W26792  12.767  12.017   1.076  0.0277 -0.2136 -0.1770
10984W        W26793  16.189   8.681   3.555  0.0358 -0.2842  0.0330
10985W        W26794  13.068   4.597   3.815  0.0503  0.1310  0.1647
10986W        W26795   0.026  13.272  13.607  0.2068  0.3621 -0.1452
10987W        W26796  17.925  15.582   1.390  0.0413  0.1206 -0.0868
10988W        W26797  18.244   0.620  13.666  0.1270 -0.3233  0.0984
10989W        W26798   0.105   0.437  14.262  0.0312 -0.1372  0.0795
10990W        W26799  15.870  15.545  12.855 -0.2597 -0.1289 -0.0118
10991W        W26800   8.079   1.880   0.171 -0.0752 -0.0169  0.0596
10992W        W26801  10.050   7.570   9.755 -0.0178 -0.0304  0.0918
10993W        W26802  16.570  11.972   2.955  0.1981  0.1579 -0.0077
10994W        W26803   9.717   5.736  12.056  0.0462  0.0363  0.5560
10995W        W26804   3.579  17.614  12.743 -0.2002 -0.2754  0.0775
10996W        W26805  11.970  18.672   4.942  0.0890 -0.0304 -0.3430
10997W        W26806   5.175   7.284  10.870  0.4682 -0.1437  0.0086
10998W        W26807   5.737   9.888  14.699 -0.1538  0.4470  0.0689
10999W        W26808  14.430  17.162   1.547  0.1947 -0.0846 -0.2091
11000W        W26809   2.604  14.928   3.013 -0.1640  0.2259 -0.2646
11001W        W26810   7.508   5.712  11.835  0.1191  0.3770  0.1360
11002W        W26811  13.308   4.409   4.309  0.1466  0.0922 -0.2490
11003W        W26812  11.181   6.960  12.386  0.0533 -0.2564 -0.0974
11004W        W26813  14.775   4.158  15.174 -0.3459  0.2106  0.1219
11005W        W26814   5.980   9.276   2.096 -0.1751  0.2432 -0.3573
11006W        W26815   8.475  18.755   1.128  0.0208  0.1103  0.0911
11007W        W26816  16.788   9.556   0.565 -0.3583  0.0415 -0.0181
11008W        W26817  18.560   5.943   4.110 -0.2814  0.1233 -0.2180
11009W        W26818  14.225  13.350  11.243  0.1334 -0.2892 -0.1708
11010W        W26819   9.651  13.518   9.707 -0.1806 -0.2271 -0.0747
11011W        W26820  12.040   5.377  10.705  0.0341  0.1195 -0.0453
11012W        W26821  15.706  17.789  14.624 -0.2104  0.2016  0.0263
11013W        W26822   6.065   3.775   2.264 -0.1060 -0.0470  0.0859
11014W        W26823  16.062   8.110  12.681 -0.0408 -0.2948 -0.3652
11015W        W26824   7.737   7.552  13.411  0.0840  0.1840 -0.1482
11016W        W26825   5.506   1.521   2.188 -0.2266 -0.2918 -0.1697
11017W        W26826   9.194   7.166   2.472  0.0998  0.0132 -0.1194
11018W        W26827   8.159   0.382   1.491  0.0721 -0.0445  0.1708
11019W        W26828   8.699   1.993  10.204  0.2152 -0.1364 -0.3453
11020W        W26829   0.350  16.569   2.787  0.0460 -0.3611 -0.1588
11021W        W26830  17.605  10.676  12.867 -0.2765 -0.2590 -0.0219
11022W        W26831  14.153  15.228   3.996  0.2775  0.2971  0.1595
11023W        W26832  12.484   6.164  10.639  0.1038  0.0613 -0.0976
11024W        W26833  14.643   0.461  12.465 -0.0874 -0.3291  0.0702
11025W        W26834   3.682  19.016   4.148 -0.0636  0.0220 -0.3809
11026W        W26835  14.837   4.897  12.390 -0.2265 -0.0914  0.1671
11027W        W26836   3.629  17.769   2.772 -0.0302  0.0316  0.3388
11028W        W26837  17.064  10.281   1.295 -0.1751  0.0239 -0.1130
11029W        W26838   1.779  10.536   2.312  0.0205  0.0840 -0.4186
11030W        W26839   1.765  12.728  14.834  0.3353 -0.0548  0.0902
11031W        W26840   0.054  18.388   1.346  0.0029 -0.1875 -0.1203
11032W        W26841   0.378   5.935  11.790  0.1767 -0.1621  0.1930
11033W        W26842  12.716  14.108   5.370  0.0871 -0.3418  0.0800
11034W        W26843   9.768  18.905  10.596  0.2446 -0.0368 -0.3066
11035W        W26844   8.442   1.421  13.175 -0.0476  0.0197 -0.1615
11036W        W26845  13.655  18.477  14.744 -0.1178 -0.2201  0.0635
11037W        W26846  17.746  14.331  12.806 -0.2366  0.1331 -0.1993
11038W        W26847  15.062   5.332  14.750 -0.2732  0.0536  0.1296
11039W        W26848  10.739  15.248  11.794 -0.0005 -0.2112 -0.0979
11040W        W26849  16.574   4.082   3.364  0.2380 -0.2355  0.0201
11041W        W26850   4.633   0.854   1.407  0.1620  0.1396 -0.0024
11042W        W26851   7.576  17.683   0.890 -0.3296 -0.0000 -0.1123
11043W        W26852  11.616  16.845  12.475 -0.1099 -0.0903 -0.0279
11044W        W26853  14.380  10.409  14.633  0.1624  0.0311 -0.0589
11045W        W26854   7.111   5.011   4.242 -0.0080  0.1157 -0.0469
11046W        W26855   1.272   4.549   0.235 -0.0029  0.1585  0.0407
11047W        W26856  12.308   6.517   4.370  0.0872 -0.1568  0.1294
11048W        W26857   6.644   7.603  14.685 -0.1542  0.1593 -0.0674
11049W        W26858  15.333  14.810   1.169  0.2286  0.0810 -0.1189
11050W        W26859  17.487   5.661  15.130  0.2617 -0.2052  0.3732
11051W        W26860  17.330  14.760   0.638  0.2368  0.5048 -0.0196
11052W        W26861  14.686   6.008   0.255 -0.0096 -0.2244 -0.0302
11053W        W26862  15.119   5.592   3.040  0.1030  0.1933  0.0157
11054W        W26863   0.801  12.899  13.371 -0.0862 -0.1956  0.1486
11055W        W26864  14.938  11.914   3.452 -0.1036  0.2132 -0.1479
11056W        W26865   4.250  11.319   3.846 -0.3494 -0.1721  0.0515
11057W        W26866  10.455   9.855  12.675  0.0344 -0.3065  0.0002
11058W        W26867  18.280   4.938   4.840 -0.0840 -0.0424  0.3913
11059W        W26868  10.700   9.522   4.298 -0.2437 -0.1723 -0.1105
11060W        W26869  18.232  15.679   4.466  0.2730 -0.0244  0.0599
11061W        W26870  15.635  13.682   0.453  0.0628 -0.1154 -0.0828
11062W        W26871   0.627   6.521  11.260 -0.1422 -0.0020 -0.0405
11063W        W26872   3.448   9.893   4.805  0.0454 -0.0008 -0.0447
11064W        W26873  14.567   2.531  13.549 -0.1832  0.0305  0.2122
11065W        W26874  18.568   3.978   0.923  0.0957  0.3906  0.0695
11066W        W26875  15.900   1.284   4.137  0.1218  0.2784  0.1503
11067W        W26876  11.114   5.192  11.550 -0.2222  0.2467  0.1370
11068W        W26877  10.072  12.307  10.300  0.0224 -0.2196 -0.1609
11069W        W26878  10.310   3.620  12.385 -0.0177  0.1854 -0.0641
11070W        W26879   8.970  16.078   1.850 -0.0554  0.2048 -0.1949
11071W        W26880  15.466   5.365   0.671 -0.0154 -0.3659  0.1975
11072W        W26881  13.874  10.333  14.609  0.4055 -0.0622 -0.0999
11073W        W26882  18.011  12.613   3.389  0.1236  0.1811 -0.2429
11074W        W26883  16.959   5.650   4.855 -0.2894  0.1157  0.0607
11075W        W26884  15.685  11.701  13.981  0.0752 -0.1978  0.2673
11076W        W26885  18.246  17.882   0.368 -0.0701 -0.1298  0.0388
11077W        W26886   7.596  11.868   3.766 -0.3070 -0.0001 -0.1443
11078W        W26887   0.809   6.962  14.023  0.3213 -0.2229  0.3621
11079W        W26888   2.609   3.379   3.898  0.0451  0.0285 -0.0674
11080W        W26889  12.527  12.310  12.563  0.0009 -0.1943  0.0941
11081W        W26890   3.459   9.814  13.873 -0.2884 -0.2331 -0.0493
11082W        W26891  16.071  17.092  13.110 -0.0735 -0.4211  0.2126
11083W        W26892  15.013   2.460   0.387 -0.0585  0.2060 -0.0147
11084W        W26893  10.747  13.826  11.508  0.1432 -0.3891  0.1827
11085W        W26894   7.761   2.920  12.988 -0.1011 -0.1621  0.0131
11086W        W26895  17.403   3.917  14.597  0.1039 -0.0811  0.0966
11087W        W26896   6.224  14.621  11.644 -0.2611  0.1350  0.1416
11088W        W26897  10.663   6.207   2.407  0.2063 -0.2035  0.0331
11089W        W26898  10.453   1.968  11.264 -0.0142  0.0434 -0.2287
11090W        W26899  16.350  15.324   2.292  0.3033  0.0708  0.4400
11091W        W26900   2.563   0.394   0.669 -0.1054 -0.2782  0.1153
11092W        W26901  18.735   2.367  13.646 -0.0004 -0.0378  0.1366
11093W        W26902   3.464  18.876   5.108  0.1223  0.1887  0.1197
11094W        W26903  10.000   0.027   1.418 -0.2314  0.3671  0.0304
11095W        W26904  15.255   4.802   5.248  0.0824 -0.0513 -0.0458
11096W        W26905   6.336  17.784  14.744  0.2024  0.2712 -0.0295
11097W        W26906  17.845   9.533   1.378 -0.0442 -0.1793 -0.2826
11098W        W26907   9.665  17.127  11.852  0.1051  0.1658  0.3110
11099W        W26908  17.473  18.978  11.329 -0.3524  0.0357  0.0373
11100W        W26909  14.220   2.915  11.419 -0.3005  0.1817  0.1150
11101W        W26910   3.251   6.975  11.947  0.0278 -0.0617 -0.0435
11102W        W26911  12.355  17.481   5.681 -0.1202 -0.0301 -0.1020
11103W        W26912  10.602   3.947   0.428 -0.3858 -0.0972 -0.0678
11104W        W26913   0.623   2.385  11.264 -0.1194  0.1518  0.3009
11105W        W26914   4.264  15.496  14.851  0.1624 -0.2301  0.1450
11106W        W26915   4.545   1.604   9.373  0.1596 -0.0431 -0.1803
11107W        W26916   3.792   3.033   0.140  0.3408  0.4268 -0.3146
11108W        W26917   1.676   3.342   3.636  0.2083 -0.0379  0.0437
11109W        W26918  13.613  16.439  14.325 -0.3044 -0.1335  0.2527
11110W        W26919  12.563  18.416  14.603 -0.2877  0.1211  0.1980
11111W        W26920   0.952   5.305   4.682  0.0221  0.1417  0.4301
11112W        W26921   5.931   2.262   2.362  0.0888 -0.0967  0.3219
11113W        W26922  17.333  14.805  11.058  0.1502 -0.1977 -0.2355
11114W        W26923   6.816  11.443   2.284  0.0295  0.0847  0.1262
11115W        W26924   2.858  17.464  15.222 -0.1615  0.0990 -0.0294
11116W        W26925  11.041  11.938  13.886  0.0656  0.0179 -0.1447
11117W        W26926  10.791   9.206   2.093 -0.2556 -0.0014 -0.1768
11118W        W26927   3.315  14.123  11.664 -0.2409 -0.2613 -0.0086
11119W        W26928   1.888   4.375   0.892  0.0668  0.2948  0.0351
11120W        W26929  15.858   2.295  12.246 -0.2710  0.0164  0.0633
11121W        W26930  12.806  11.898  10.462 -0.3603 -0.0388  0.1669
11122W        W26931  12.382  16.400  10.706  0.0431 -0.0896 -0.1642
11123W        W26932  16.664   0.307  10.729 -0.0956 -0.0604  0.0122
11124W        W26933  14.104   2.440  11.208  0.0790  0.1003  0.0537
11125W        W26934   9.152  13.823   4.469  0.0537  0.3580 -0.2142
11126W        W26935  16.866  18.910  11.912  0.1106  0.0027  0.1792
11127W        W26936   6.737   2.749   0.875  0.2138 -0.1658 -0.2542
11128W        W26937   1.889   3.601  12.713 -0.1582 -0.0882  0.2333
11129W        W26938   5.151   7.383  11.840 -0.0949  0.0467  0.0963
11130W        W26939  17.557  18.237   2.597  0.0505 -0.2727  0.1951
11131W        W26940   6.764  16.965  13.002  0.2603  0.1006 -0.0492
11132W        W26941  13.395   4.755  10.424  0.0958 -0.1271  0.2984
11133W        W26942  10.968  12.019   3.175  0.2097 -0.1685  0.3092
11134W        W26943   9.671   3.608  10.498  0.0219 -0.1903  0.0377
11135W        W26944  10.516  10.869   2.046 -0.2362  0.2333  0.1879
11136W        W26945   7.526  18.056   4.132  0.0081  0.0109  0.2400
11137W        W26946  18.047  15.084   2.772 -0.1227  0.1238 -0.0255
11138W        W26947   6.484  15.469  12.402 -0.1846 -0.0078  0.1262
11139W        W26948   7.772   5.497  13.485 -0.1429  0.0381  0.1942
11140W        W26949  13.929  14.285   3.070 -0.0198 -0.2056  0.3692
11141W        W26950  16.471   1.750  13.817  0.2047 -0.0397  0.0492
11142W        W26951  18.470   5.602   1.641  0.0781 -0.0780 -0.1237
11143W        W26952   7.207   7.721   3.280  0.0947 -0.0879 -0.2615
11144W        W26953   7.333  11.344   2.206  0.0738  0.0677 -0.0149
11145W        W26954   4.487   2.462  12.846 -0.3230 -0.3798  0.0177
11146W        W26955   0.500  13.888   1.121 -0.0110 -0.1072 -0.1822
11147W        W26956  12.474  13.647  10.660  0.0371 -0.5351  0.2394
11148W        W26957   2.925  13.544  11.693  0.0167 -0.0006  0.2515
11149W        W26958   5.503   9.169   9.761  0.1511 -0.1920 -0.2110
11150W        W26959  18.693   3.669  13.600 -0.0923  0.1926 -0.1017
11151W        W26960   8.941   2.852  10.750 -0.0314  0.0180  0.0695
11152W        W26961  17.806  17.554   3.193 -0.2856 -0.2326 -0.0766
11153W        W26962  13.912  17.585  10.613 -0.1094  0.0855 -0.3111
11154W        W26963   7.638  13.168   1.153 -0.3899 -0.2728  0.1557
11155W        W26964   7.901   7.246   0.635  0.0359 -0.4680 -0.1532
11156W        W26965  11.205   9.120  12.042  0.2632  0.3646  0.0430
11157W        W26966  13.643  15.476   2.175 -0.0353 -0.1933 -0.1313
11158W        W26967  10.067   0.381   4.423 -0.0190  0.1030  0.0232
11159W        W26968   1.416   2.457  10.980 -0.2398 -0.0710 -0.1504
11160W        W26969   8.979   3.938  14.844 -0.0705 -0.2255 -0.3769
11161W        W26970   1.349   5.631  13.782 -0.3448  0.1383 -0.1519
11162W        W26971  15.954  15.542  14.407 -0.1540  0.2078  0.2031
11163W        W26972   9.780  18.587   3.446  0.2222 -0.1734  0.1110
11164W        W26973   8.036   3.933  10.338  0.1552  0.1972 -0.0100
11165W        W26974   4.411  18.924  13.332  0.0255  0.0994  0.0318
11166W        W26975  17.834   3.931  13.750  0.1183 -0.0933 -0.2138
11167W        W26976  18.009   8.771  12.340 -0.3227  0.4192 -0.2554
11168W        W26977   2.384   1.368  12.791 -0.1025  0.2219  0.4181
11169W        W26978   7.421  10.937  11.713 -0.1126  0.1051  0.0706
11170W        W26979   1.021   9.717   4.730  0.1118 -0.2743 -0.1584
11171W        W26980   8.721   0.392   0.248  0.1849 -0.1484  0.2922
11172W        W26981  16.116  14.646   2.025 -0.3508  0.1837  0.0557
11173W        W26982  13.372   1.593   0.109  0.0218  0.0196 -0.0723
11174W        W26983   9.626   6.078  14.305  0.2858  0.0238 -0.1669
11175W        W26984   7.165   8.305   2.027 -0.2695  0.3080  0.4131
11176W        W26985   4.046   5.393   3.636  0.2217 -0.2019 -0.0793
11177W        W26986   8.185  18.354   2.911  0.0240  0.0813 -0.2530
11178W        W26987   2.848   1.839   0.608  0.0580  0.2763  0.3509
11179W        W26988   4.826  18.738  12.707 -0.2497  0.0128 -0.1869
11180W        W26989   3.949  18.928  12.429  0.3491  0.0289 -0.4740
11181W        W26990  16.853  15.724   0.139 -0.1311 -0.2973  0.1212
11182W        W26991  18.007  15.662   4.920 -0.2598 -0.1825 -0.1108
11183W        W26992  13.010   1.202   4.422  0.0231 -0.1479 -0.0447
11184W        W26993  14.302  10.895  11.422 -0.1229 -0.1022 -0.0369
11185W        W26994   8.438   6.553  10.973 -0.1871  0.0005  0.3202
11186W        W26995   5.429   6.553   1.170  0.0878  0.0798  0.0981
11187W        W26996  12.733  13.282   3.712  0.0728  0.1153 -0.2943
11188W        W26997  14.983  11.030   3.092 -0.2389  0.0663 -0.1120
11189W        W26998  11.907   9.489  12.771 -0.0899  0.0748 -0.0740
11190W        W26999   9.746   1.875   0.516  0.1895  0.1259 -0.3011
11191W        W27000   9.945  13.209   1.669  0.0774  0.1078 -0.0654
11192W        W27001  18.967   3.360  14.623 -0.0230 -0.2328 -0.0749
11193W        W27002  17.560  16.170   0.117  0.0466  0.1893 -0.3262
11194W        W27003   2.384   7.544   5.195  0.0546  0.3388  0.1061
11195W        W27004  16.874   7.650   5.451  0.3448  0.1855  0.2838
11196W        W27005  16.493  11.076  11.116 -0.2027 -0.1705  0.0096
11197W        W27006  15.083  13.869  13.714  0.1224  0.2442  0.1530
11198W        W27007   3.440   9.126  11.952 -0.0821 -0.0260  0.0286
11199W        W27008  18.442  19.011  10.028  0.0295  0.0047  0.1043
11200W        W27009  15.503   2.699  14.406  0.1778 -0.0726  0.1366
11201W        W27010  11.106  10.928   4.487  0.2255 -0.0091  0.3108
11202W        W27011  15.977  18.669   3.143 -0.1806 -0.2004  0.1327
11203W        W27012  18.774   1.990  10.968 -0.0367  0.0099  0.1128
11204W        W27013   3.112   3.643  12.078 -0.0690 -0.2632  0.0336
11205W        W27014   4.218   6.526   4.869 -0.4797  0.2527  0.1215
11206W        W27015   4.608  14.355   3.147  0.1243 -0.2058  0.2021
11207W        W27016   5.251  16.600  13.488  0.0366  0.0991 -0.1065
11208W        W27017  16.709   4.401   5.366  0.0140 -0.1736 -0.0327
11209W        W27018  15.093  13.365  13.814 -0.2804 -0.0535 -0.0360
11210W        W27019   7.339  17.034   3.238  0.1033 -0.0259 -0.1167
11211W        W27020  10.083  16.606   1.707  0.0573 -0.1752  0.2254
11212W        W27021  10.294   6.486   4.496  0.1607  0.4224 -0.1613
11213W        W27022  13.652   0.425   4.733  0.2334  0.0746 -0.1379
11214W        W27023  16.386  12.568   2.484 -0.1071 -0.1202  0.0702
11215W        W27024  15.209  17.734   1.753  0.1642 -0.3340 -0.2031
11216W        W27025  12.591   5.147   1.605 -0.0945  0.2246  0.2459
11217W        W27026  10.369   9.480   2.155 -0.1029 -0.0817 -0.2154
11218W        W27027   4.288   8.747   4.898 -0.2034  0.0753  0.0252
11219W        W27028  18.914   4.486  15.162  0.0862 -0.1825  0.3241
11220W        W27029  10.346  15.504   3.860 -0.1986  0.0021 -0.1448
11221W        W27030   3.117  11.188   4.547  0.2045 -0.2901  0.0631
11222W        W27031   2.359  11.790  10.036 -0.2108  0.0024 -0.0835
11223W        W27032   9.485   8.246  12.028  0.3134  0.1931 -0.3139
11224W        W27033   5.528   1.238   4.412 -0.1634 -0.1054 -0.1685
11225W        W27034   5.438  15.298  14.147 -0.3742  0.1865  0.0251
11226W        W27035   5.103  13.059  11.244 -0.0197 -0.0159 -0.0368
11227W        W27036   7.472  17.823   1.336  0.1955  0.0012  0.1720
11228W        W27037   7.382   6.889  12.820  0.2366  0.0213 -0.2271
11229W        W27038   6.680  15.529  14.572  0.0194 -0.1618  0.0192
11230W        W27039   3.486  10.976  10.349  0.1843  0.0341  0.2027
11231W        W27040  10.997   3.595  14.042 -0.1338 -0.0184 -0.2582
11232W        W27041  11.147   0.013   0.024 -0.2081  0.2795 -0.0093
11233W        W27042  13.502   5.635  13.952  0.1616  0.4843 -0.0063
11234W        W27043  17.936   0.872   2.874 -0.4401 -0.0207 -0.0609
11235W        W27044  15.415   6.601   0.730 -0.1817  0.2107  0.3166
11236W        W27045  16.553  10.497  10.960  0.3289  0.2160  0.1634
11237W        W27046  18.617   4.450   3.739 -0.2022  0.0796 -0.3932
11238W        W27047   6.066   2.414  14.213  0.1604 -0.1822 -0.1092
11239W        W27048   0.445  14.696  11.832  0.0719  0.2491 -0.1423
11240W        W27049  14.725   3.329  12.343 -0.0521 -0.1194  0.0900
11241W        W27050   2.115   3.472  10.529 -0.0239  0.2130  0.2199
11242W        W27051   6.324   5.013  12.809  0.1189 -0.2503 -0.0850
11243W        W27052   5.135  17.407  10.071 -0.0352 -0.0715 -0.4373
11244W        W27053   3.970  12.678  13.018  0.1632  0.2491 -0.0258
11245W        W27054  12.049   5.716   3.934  0.0324  0.0046  0.1620
11246W        W27055  12.912  11.091  13.530 -0.3727 -0.1492 -0.2251
11247W        W27056   2.239  17.609   2.804 -0.1020 -0.0865  0.0409
11248W        W27057  18.631   1.488  14.330  0.4677  0.2660 -0.0147
11249W        W27058  10.474   7.108  14.515  0.0528 -0.2153  0.0352
11250W        W27059   8.416   0.918   2.176  0.2539 -0.0551 -0.1806
11251W        W27060  16.453  12.710  12.310  0.2012  0.1721 -0.1694
11252W        W27061   6.650  17.669  12.781  0.0837 -0.0887 -0.0526
11253W        W27062  13.798  13.010  13.067 -0.4113  0.0165  0.1112
11254W        W27063  13.972   2.244  12.955  0.0739  0.0271  0.0453
11255W        W27064   0.277  15.556  14.440 -0.0972  0.1639  0.2656
11256W        W27065  14.591   3.084  15.279  0.1628 -0.1145  0.1629
11257W        W27066  15.012  12.152   0.541 -0.3397 -0.0055 -0.0536
11258W        W27067   2.584   0.206  14.264  0.1987 -0.0752 -0.4229
11259W        W27068   8.045  10.711  13.639 -0.0495  0.2184 -0.1152
11260W        W27069   8.583   6.089   4.653 -0.0338 -0.2574  0.0365
11261W        W27070   3.814   5.950  13.149 -0.0611  0.2075 -0.1808
11262W        W27071   5.967  14.633  12.130  0.0575 -0.3249  0.1829
11263W        W27072   7.296   8.108   5.287 -0.0654  0.1051  0.2449
11264W        W27073  12.422  16.530   1.121  0.1079  0.1627  0.0197
11265W        W27074  18.505  15.506  10.798  0.1472 -0.2142 -0.2245
11266W        W27075   3.340   4.345   0.873  0.1347  0.3501 -0.0173
11267W        W27076  14.748   4.805   4.614 -0.1770  0.2914  0.0214
11268W        W27077  16.019  11.505  15.003 -0.0606  0.1369  0.3679
11269W        W27078  18.555  17.198  14.547  0.1625 -0.0147  0.0085
11270W        W27079  10.323  17.281   5.228  0.3237  0.1164  0.0481
11271W        W27080   9.182  13.886   2.974  0.0281  0.2646 -0.1768
11272W        W27081  13.460  18.178   3.405  0.2265  0.4720  0.1056
11273W        W27082   2.385  13.864   2.011  0.0963  0.1478 -0.0612
11274W        W27083  17.222   0.308   1.807  0.0779 -0.0240 -0.1815
11275W        W27084   6.487  13.239   3.432 -0.1853  0.1498  0.1536
11276W        W27085   1.852  13.621  12.031 -0.0817  0.3278  0.0313
11277W        W27086   2.191  12.555   4.165 -0.0432 -0.3031 -0.0110
11278W        W27087   6.358  17.341   0.586  0.0067 -0.0100  0.0365
11279W        W27088  13.963  11.900   3.136  0.2458 -0.0131 -0.3496
11280W        W27089   3.394   0.221   1.578 -0.6325  0.1439  0.1885
11281W        W27090   8.469  12.994  10.817 -0.1254  0.0719 -0.0110
11282W        W27091  12.688   5.028   0.416  0.0347  0.2622  0.0076
11283W        W27092   9.501   8.078   2.540 -0.1850  0.1778 -0.0885
11284W        W27093  15.224   3.748   5.928  0.4516  0.1473  0.0794
11285W        W27094  10.514  10.080   2.736 -0.0016 -0.1525 -0.2387
11286W        W27095   5.116   9.980  12.150  0.2123  0.1341 -0.2412
11287W        W27096   0.275   7.235   2.420  0.0420  0.1221 -0.2675
11288W        W27097  17.654   9.535  14.806  0.2139  0.1945  0.1405
11289W        W27098   7.030  12.948  11.522  0.0251  0.3160  0.0786
11290W        W27099   6.806   2.494   2.856  0.1684  0.3671  0.3224
11291W        W27100   3.004  15.936  13.976  0.0290 -0.0958  0.0871
11292W        W27101  14.359   0.315   1.888  0.0911  0.2843  0.0741
11293W        W27102   5.722   0.403   4.312 -0.1927  0.0087 -0.2229
11294W        W27103   7.172  16.005  13.459 -0.0970  0.2849 -0.0485
11295W        W27104   8.652  17.843   2.271  0.2824 -0.1783  0.2263
11296W        W27105  18.788   1.381  13.869 -0.0545 -0.1907 -0.0986
11297W        W27106  16.892   5.793  10.392 -0.0309  0.1994  0.0211
11298W        W27107  13.844   1.473   3.140  0.1296 -0.1423  0.3949
11299W        W27108  12.597  12.429   3.066  0.1029  0.1369  0.0468
11300W        W27109   7.973   7.431  11.439 -0.0067 -0.0589 -0.0173
11301W        W27110   7.697  12.158   5.470  0.0664  0.2132 -0.1340
11302W        W27111   8.318  10.777   2.803 -0.1534 -0.1765 -0.1213
11303W        W27112   8.166   3.069  12.710 -0.1662 -0.1709 -0.0269
11304W        W27113   1.005  13.383  12.432  0.1381  0.1520  0.2689
11305W        W27114   4.712  11.306   5.376  0.1818 -0.2965  0.0723
11306W        W27115  12.093   6.416   5.167  0.1947 -0.2884 -0.1939
11307W        W27116  18.323  10.013  15.064 -0.1179  0.0072 -0.1776
11308W        W27117   8.358   9.485  15.132 -0.0118 -0.1782  0.1776
11309W        W27118   7.797  15.257  11.366 -0.1544 -0.0782  0.0068
11310W        W27119  10.618   6.069  14.050  0.0131 -0.1448 -0.1354
11311W        W27120   5.691  14.020   0.674 -0.2685  0.0339 -0.0552
11312W        W27121   9.951   3.694   3.848  0.0042 -0.1688 -0.0621
11313W        W27122  13.028   4.991  10.813  0.0257  0.3088  0.1457
11314W        W27123  11.186   7.043   0.596 -0.2630  0.0936 -0.0264
11315W        W27124  10.006  17.625   2.448 -0.1281 -0.0117 -0.2079
11316W        W27125  13.595  16.479   2.565 -0.0036  0.3698 -0.0956
11317W        W27126   3.281  10.365  12.594 -0.0393  0.0479  0.2209
11318W        W27127   1.705   1.039  13.829 -0.0039  0.1881 -0.0690
11319W        W27128  15.211   3.859   3.200  0.2078  0.0204 -0.3399
11320W        W27129   7.717   9.589  11.942  0.0900  0.3024  0.0720
11321W        W27130  13.561  13.974   0.273  0.0077  0.1005 -0.0375
11322W        W27131   4.848   7.461   0.355 -0.1671  0.0516  0.0592
11323W        W27132   3.583   0.865   4.474  0.2995  0.4131  0.4226
11324W        W27133  15.922   7.351  14.825  0.3930 -0.0495 -0.2903
11325W        W27134  17.509   9.475  12.268  0.0389 -0.0665 -0.0566
11326W        W27135   4.116   2.665   2.418  0.0922 -0.2281  0.2046
11327W        W27136  10.418  14.124   4.158 -0.2089 -0.2649 -0.0316
11328W        W27137   6.888   2.944  11.883 -0.1263  0.0068 -0.1454
11329W        W27138  12.424   1.370   0.746  0.2052 -0.3988 -0.1153
11330W        W27139   5.580   7.918  11.674 -0.0687 -0.1442 -0.1514
11331W        W27140  16.736  13.116   0.287 -0.0130 -0.0514 -0.0076
11332W        W27141  16.670  10.150  11.795 -0.0221 -0.1497 -0.0974
11333W        W27142  10.201  17.882   0.774 -0.2939  0.1735 -0.0111
11334W        W27143   9.633   9.767   1.376  0.1491  0.3976 -0.4653
11335W        W27144  11.510   3.440   0.995  0.1555  0.1199 -0.0505
11336W        W27145  17.004  16.548   2.877 -0.2239  0.0557 -0.1466
11337W        W27146  17.116  14.753  14.074  0.3205 -0.4106  0.1655
11338W        W27147  17.370  10.124  14.127  0.2189 -0.1047 -0.2300
11339W        W27148   3.332  14.698   5.317 -0.3280 -0.2938  0.0279
11340W        W27149  11.753  13.558   4.300 -0.3102  0.2795  0.1456
11341W        W27150  13.890  12.367  14.650 -0.0402  0.2004  0.2207
11342W        W27151  13.482  10.803   4.115 -0.3116 -0.1227 -0.3933
11343W        W27152   7.348   3.554  15.267  0.1845  0.0364 -0.0422
11344W        W27153  17.587   4.957   2.912  0.1878 -0.2742  0.0273
11345W        W27154   7.754  14.600   3.278  0.2813  0.0453  0.0028
11346W        W27155  13.770   7.684   1.738  0.1917 -0.0461  0.0964
11347W        W27156  15.372  18.920   0.026 -0.0203 -0.2386  0.0530
11348W        W27157  12.790   7.289   0.113  0.0092  0.2079  0.1534
11349W        W27158   3.527  13.516  12.914  0.3452 -0.0264 -0.2917
11350W        W27159   8.115  15.313   3.719 -0.3672 -0.0596 -0.0830
11351W        W27160   2.040   1.725  10.985  0.1888  0.5795  0.0176
11352W        W27161   9.541   2.473   3.951 -0.3919 -0.0244  0.1365
11353W        W27162   8.876  16.351  12.614  0.0575 -0.0887 -0.1114
11354W        W27163  16.194  15.241  12.017  0.1272 -0.0968  0.0543
11355W        W27164   6.961   3.040   0.517 -0.1426  0.1700  0.0657
11356W        W27165   4.229  14.838   2.540 -0.0954 -0.1581  0.0016
11357W        W27166   1.349  16.392  12.819 -0.0637  0.0094  0.1974
11358W        W27167  11.415   2.922  11.687 -0.0425  0.0814 -0.0648
11359W        W27168  17.900   6.576   1.663  0.2334  0.1469  0.1771
11360W        W27169   2.058   1.077  10.988 -0.0262  0.1082 -0.2660
11361W        W27170   0.202   1.989  14.614 -0.0077  0.0999  0.1797
11362W        W27171   9.550  18.713  11.360 -0.0118  0.0293  0.1828
11363W        W27172  16.872   8.455  14.250  0.0448  0.3270  0.3980
11364W        W27173   7.470   5.929   0.586  0.0507 -0.2029 -0.1033
11365W        W27174  12.687  10.661  15.164 -0.1480 -0.0088 -0.2752
11366W        W27175  18.020   3.664   4.230  0.2238 -0.5179  0.1308
11367W        W27176  13.077   9.272  14.027  0.1373 -0.7525 -0.2067
11368W        W27177   9.281   0.653  12.637 -0.0443  0.0197 -0.1662
11369W        W27178   7.766   7.755   0.550  0.1773  0.2652 -0.2009
11370W        W27179  13.624   2.748   0.839 -0.0619 -0.1335 -0.0114
11371W        W27180  18.220   4.421   2.964 -0.3635 -0.2327 -0.2708
11372W        W27181   5.854   4.156  11.910  0.1495  0.0837  0.1282
11373W        W27182   7.617   9.966   4.051 -0.1296 -0.1187  0.1599
11374W        W27183  11.590   6.275   4.987 -0.0226 -0.2218 -0.0480
11375W        W27184   2.218  11.832  10.916 -0.2289  0.2053  0.3471
11376W        W27185   9.263   0.893  13.863 -0.0314 -0.0340  0.0124
11377W        W27186   5.724   5.040  14.728 -0.1650 -0.0636  0.5168
11378W        W27187  18.779  16.034   5.473  0.1804  0.1659 -0.0526
11379W        W27188   5.422   1.929  14.786 -0.1216 -0.1517  0.0360
11380W        W27189   2.653   1.198  13.982  0.0625 -0.1982 -0.3279
11381W        W27190   2.217   7.264   2.630 -0.1972 -0.3121  0.2076
11382W        W27191  10.508  15.152   0.812  0.0862 -0.2445  0.5042
11383W        W27192  11.475   6.325  13.669  0.3314 -0.0691 -0.0519
11384W        W27193   4.768   5.845  14.125  0.1268 -0.2411 -0.1192
11385W        W27194  15.548   4.014  14.943 -0.2000  0.3278 -0.1066
11386W        W27195   0.094   1.414  14.191 -0.0335  0.0530  0.0482
11387W        W27196  17.468   6.323  10.879  0.3496 -0.1688  0.0069
11388W        W27197  16.825  10.937  13.370 -0.1760  0.0519 -0.0549
11389W        W27198   7.726   1.091  10.401  0.1484  0.1027 -0.1812
11390W        W27199  11.215   5.882   0.489 -0.1033  0.0035 -0.1393
11391W        W27200   3.372   0.259   0.324 -0.0700 -0.1707  0.3272
11392W        W27201  17.405   7.084   2.799  0.0894  0.0861 -0.2616
11393W        W27202  15.652  11.104   1.807 -0.0431  0.0506 -0.0451
11394W        W27203  12.089   7.573   1.430  0.1483  0.1139 -0.2615
11395W        W27204  12.989   8.416  14.403  0.1125  0.0913  0.0436
11396W        W27205  15.478   3.443  13.287  0.3195  0.1697 -0.1135
11397W        W27206  15.755  14.921   1.009  0.2154 -0.1001 -0.0553
11398W        W27207  10.314  10.320   0.036 -0.0942  0.0518  0.0974
11399W        W27208   2.278   5.400  13.486  0.2077 -0.1653 -0.0288
11400W        W27209  16.137  18.746   3.733 -0.0357  0.2349 -0.0233
11401W        W27210  15.749   1.517   1.605  0.2081 -0.0544  0.2766
11402W        W27211   2.883   4.383   1.180  0.3135 -0.0679  0.1916
11403W        W27212  11.835  10.462   1.580 -0.0301 -0.2952 -0.1691
11404W        W27213  17.154  12.821   0.228  0.1642  0.0769 -0.3349
11405W        W27214   8.682   7.470   3.318  0.1364 -0.1951  0.1004
11406W        W27215   3.083   0.766  10.508  0.0253  0.2208  0.2633
11407W        W27216  13.225   9.475   0.311 -0.1597 -0.0283 -0.0975
11408W        W27217   7.115  17.991   1.614 -0.3002 -0.3589 -0.0142
11409W        W27218  17.537   2.824  14.441  0.1190  0.1059  0.0375
11410W        W27219  10.830  18.910  14.059 -0.0440 -0.3231 -0.1593
11411W        W27220   5.040  17.373   4.709 -0.2096  0.0164 -0.0242
11412W        W27221   3.773  15.731   4.109  0.1537 -0.1556 -0.2058
11413W        W27222   0.030   9.391   4.285 -0.0153 -0.3016  0.1214
11414W        W27223   2.239   3.445   4.972  0.1051 -0.0081  0.0948
11415W        W27224   2.466  16.081  12.954 -0.0427 -0.1183 -0.0547
11416W        W27225  15.714   0.521   0.785  0.0323  0.0954  0.2345
11417W        W27226   7.621   2.182   3.005  0.1167 -0.0388  0.3725
11418W        W27227   6.346  13.141  10.913  0.2226 -0.0399 -0.1938
11419W        W27228   0.159  13.393   4.042  0.3125  0.0819  0.0065
11420W        W27229  10.652   0.323  13.606  0.1295 -0.1679 -0.2206
11421W        W27230  13.940   5.419   4.232 -0.4160  0.3825  0.2091
11422W        W27231  16.389   8.229   4.255  0.0726  0.1999 -0.1434
11423W        W27232   6.798   4.510   3.329 -0.0312 -0.1049 -0.1036
11424W        W27233  17.132   9.750   1.200  0.0912 -0.2665  0.1512
11425W        W27234   6.098  15.048  11.260 -0.0364 -0.0892 -0.0499
11426W        W27235   7.914   2.605  12.647  0.0863  0.2528 -0.2393
11427W        W27236   6.829  10.136   0.661 -0.0542  0.0223  0.0223
11428W        W27237  12.144  11.403   2.528 -0.0421  0.2418 -0.0988
11429W        W27238  15.029   1.144   9.880  0.0660  0.2865  0.0103
11430W        W27239   6.855  10.019  13.454  0.1940 -0.2348 -0.1467
11431W        W27240   0.370   5.032  12.349 -0.1346 -0.1673  0.0198
11432W        W27241  17.500   0.474  14.806 -0.0560 -0.2083 -0.4094
11433W        W27242  12.182   9.103   0.154 -0.2407  0.1092 -0.2238
11434W        W27243   1.019   0.226  13.746  0.2074 -0.0215  0.0392
11435W        W27244  11.226  16.685   5.590  0.4279 -0.1455  0.2904
11436W        W27245  14.111   1.468   4.495 -0.0072  0.1829  0.2086
11437W        W27246  18.226   7.634  11.325 -0.0467 -0.0648  0.1671
11438W        W27247  14.861   9.712  13.973  0.1926 -0.1915 -0.2725
11439W        W27248   3.993   0.341   5.542 -0.1898  0.3137  0.2024
11440W        W27249   4.527  19.020  12.395 -0.1300  0.2921 -0.1896
11441W        W27250   5.560  13.549  13.671  0.1005 -0.0760  0.0936
11442W        W27251  16.257  14.083  14.649 -0.1357 -0.0288  0.3159
11443W        W27252  10.605   6.901  11.963 -0.1234 -0.2001 -0.0257
11444W        W27253  10.694   8.502  13.259  0.0316  0.2492 -0.2088
11445W        W27254   0.315  18.387   4.835 -0.2039 -0.2125  0.2285
11446W        W27255   5.170  14.219  10.665  0.1731 -0.0777  0.0248
11447W        W27256   9.787  13.063  13.658 -0.0253  0.1773 -0.1295
11448W        W27257  17.762   9.115  12.583  0.0908 -0.1038  0.2204
11449W        W27258  12.754   1.114  11.934 -0.0623  0.0616  0.1490
11450W        W27259  10.095   6.824  14.331  0.1754  0.0145  0.3321
11451W        W27260   6.476  17.903  11.977  0.2802 -0.0296 -0.1023
11452W        W27261   7.616  16.575  11.537 -0.3058  0.2417  0.2450
11453W        W27262  13.332  10.282  12.059 -0.1117 -0.0928  0.1625
11454W        W27263  16.778   6.403  12.347  0.0089 -0.3790  0.2705
11455W        W27264   4.338   5.268  15.040 -0.0791  0.0826  0.0017
11456W        W27265  14.542  13.641   3.405  0.3782  0.1162 -0.2121
11457W        W27266   2.124   8.358   4.090 -0.2643 -0.2255 -0.1116
11458W        W27267   4.219   2.553  10.925  0.2474 -0.2818  0.4104
11459W        W27268  11.582   1.788   0.459 -0.1991 -0.1784 -0.1880
11460W        W27269   1.029   8.784   0.631 -0.0452  0.1338 -0.1578
11461W        W27270   4.479  12.183  14.743 -0.0424  0.3183 -0.2012
11462W        W27271  14.688   0.267  15.049 -0.0384 -0.0905 -0.2048
11463W        W27272  13.443   2.095  15.264 -0.0991  0.0716 -0.0817
11464W        W27273   7.784  16.169   1.138 -0.1537  0.3879 -0.3790
11465W        W27274   0.435  14.210   4.595  0.2716  0.0397 -0.1555
11466W        W27275  10.014  12.626   0.953 -0.1222 -0.0796  0.1071
11467W        W27276  18.551   8.627  13.434 -0.1510 -0.0557  0.0277
11468W        W27277  10.854   9.765   0.430 -0.0731  0.0558 -0.0303
11469W        W27278   5.272  15.427   5.439 -0.0645  0.1995 -0.1629
11470W        W27279   1.903  10.222   4.631  0.1185  0.1513 -0.2241
11471W        W27280  15.041   2.225  12.313 -0.0038  0.1199  0.0224
11472W        W27281  10.142   8.234  13.335  0.3341  0.0089  0.0205
11473W        W27282   5.005  16.873   4.527 -0.0415 -0.0483  0.2678
11474W        W27283   8.520  17.706   1.399 -0.2074  0.1081  0.0329
11475W        W27284  14.224  11.444  11.619  0.1310 -0.2044  0.1047
11476W        W27285   2.887   1.807   1.105 -0.0077  0.2358  0.0829
11477W        W27286   0.654   3.850   4.710 -0.2677 -0.1697  0.1691
11478W        W27287  18.125  13.139  10.755 -0.0180 -0.0592  0.0401
11479W        W27288  16.888  17.928  14.011 -0.0201  0.3446 -0.2890
11480W        W27289   4.878  10.842   2.235 -0.0695 -0.0639  0.1872
11481W        W27290  12.896  11.994   9.971  0.0244  0.0735 -0.3982
11482W        W27291  11.890  12.730  14.845  0.1569 -0.1854 -0.0972
11483W        W27292  16.341  14.250   5.079 -0.2700 -0.1077 -0.1674
11484W        W27293  12.169   4.986  14.798 -0.0471  0.1075  0.2137
11485W        W27294   7.504   9.187  13.482 -0.0358 -0.0877 -0.1412
11486W        W27295   1.096  14.275   1.812 -0.2203  0.0592  0.2820
11487W        W27296   4.953  13.421  10.419  0.6015  0.1663  0.0377
11488W        W27297   1.667  12.250   2.351 -0.2168 -0.0845 -0.1694
11489W        W27298   6.963   2.395   3.979  0.2542  0.0887  0.0662
11490W        W27299  13.663  10.044  11.454 -0.2597 -0.2819  0.2671
11491W        W27300  13.602  16.947  14.495 -0.1145  0.0700  0.4424
11492W        W27301   1.816  15.861  13.476  0.1034 -0.1704 -0.0435
11493W        W27302   1.686  18.933   3.470 -0.3614  0.1784 -0.0121
11494W        W27303   3.956   3.428   4.591  0.0030 -0.1590 -0.0068
11495W        W27304   2.982   0.800  11.032 -0.0690  0.0273  0.0037
11496W        W27305  13.987  10.867   3.128 -0.1553  0.1724 -0.1243
11497W        W27306   6.546   0.451   3.693  0.1424 -0.1305 -0.3828
11498W        W27307  13.305  13.518  14.767 -0.1293  0.0806 -0.0044
11499W        W27308   8.359   2.689   1.723 -0.0476 -0.2209  0.0663
11500W        W27309   1.150   6.516  13.439  0.2914  0.1494 -0.2485
11501W        W27310   4.543  11.712  14.603  0.5890 -0.0742  0.0006
11502W        W27311  15.361  12.409   2.855  0.2278  0.0977  0.3275
11503W        W27312  13.827   3.170   0.695 -0.0328 -0.3084  0.1103
11504W        W27313  15.002   2.561  14.401  0.2363 -0.1973 -0.0910
11505W        W27314  18.783  15.605  13.779 -0.2318 -0.4226 -0.3915
11506W        W27315  17.788  18.719  12.516  0.1005 -0.1759  0.0612
11507W        W27316   3.666   7.957   4.442 -0.1987 -0.2397  0.4276
11508W        W27317   2.605   5.336   0.720 -0.0129 -0.2492  0.1136
11509W        W27318  17.481  18.096   4.934  0.3824  0.0588  0.0857
11510W        W27319   3.091  14.679   2.990 -0.0108  0.3349  0.3040
11511W        W27320  10.488   2.879   3.075 -0.1303  0.1211 -0.2984
11512W        W27321   9.950  15.384  14.360  0.1321 -0.0499  0.1091
11513W        W27322   6.232   3.191   5.087 -0.3782  0.2277 -0.1664
11514W        W27323   4.842   6.342  11.890  0.0518 -0.1400  0.3950
11515W        W27324  15.990  18.363   0.806  0.1054 -0.3715  0.0202
11516W        W27325  10.231   7.557   1.666  0.3516  0.0876  0.2549
11517W        W27326   1.356   6.638  10.415 -0.0588  0.2196 -0.0949
11518W        W27327  11.452  13.548   9.760 -0.0826  0.1261 -0.0638
11519W        W27328  12.066   3.631  11.050  0.3347  0.0230 -0.1069
11520W        W27329   5.193   8.622  14.790  0.0709 -0.1616 -0.2901
11521W        W27330  16.629  18.121  12.258  0.1313 -0.1151 -0.0933
11522W        W27331   2.611  10.572  14.970 -0.0464  0.0232  0.2227
11523W        W27332   0.381  11.617  13.243 -0.0988 -0.1529  0.3329
11524W        W27333   0.833  18.750   0.220  0.1267 -0.0975  0.0370
11525W        W27334   8.897  12.541  12.554 -0.1134  0.0571  0.3130
11526W        W27335   2.895   9.692   0.767 -0.0363 -0.0257  0.0600
11527W        W27336  17.185   6.855   1.666 -0.2743 -0.0708 -0.1173
11528W        W27337   5.227  15.218  10.612  0.4387  0.0059 -0.1158
11529W        W27338  11.969   0.919  13.802 -0.0126 -0.0055 -0.1010
11530W        W27339   6.405   1.865   0.233 -0.1528 -0.1781  0.1393
11531W        W27340  15.895   8.598  11.249 -0.0332  0.0059  0.0276
11532W        W27341  15.814   4.231  11.959  0.0248  0.2183  0.2503
11533W        W27342   6.588  13.722  13.328  0.0650 -0.0198  0.3641
11534W        W27343   7.717   5.922   1.897 -0.2731  0.1235 -0.3176
11535W        W27344   8.564  18.289  10.807  0.0337  0.1055 -0.3122
11536W        W27345  13.996  15.954  11.846  0.1260  0.1336 -0.0453
11537W        W27346  18.590  11.775   3.308  0.1069  0.1557  0.0584
11538W        W27347  17.025  14.116   4.105 -0.1250 -0.2740  0.1060
11539W        W27348  17.984  16.666   5.043 -0.1696 -0.0620 -0.0296
11540W        W27349   9.889   2.047   2.273 -0.2463 -0.0225  0.1301
11541W        W27350  16.971   0.124   3.987  0.3392 -0.0821 -0.1490
11542W        W27351   3.589   1.693   2.735 -0.0479 -0.0857  0.0142
11543W        W27352   2.660   9.573  15.263  0.0828  0.1572 -0.1560
11544W        W27353  13.299  13.923  10.973 -0.1998 -0.1939  0.1002
11545W        W27354  18.545   8.233   9.748  0.2563 -0.1042 -0.1385
11546W        W27355  18.800   3.453   1.731  0.1018 -0.0316 -0.1850
11547W        W27356   9.596   7.645   5.083  0.0523  0.0654 -0.1563
11548W        W27357  15.449  14.552  14.303 -0.4406  0.0399  0.0954
11549W        W27358   6.069   6.632   0.383  0.0698  0.0185 -0.0224
11550W        W27359   8.328  10.052   0.683  0.0421  0.0207  0.2623
11551W        W27360  11.001  15.381   0.850 -0.0075  0.3156  0.1452
11552W        W27361   7.189   4.287   1.925 -0.0933  0.2468  0.0389
11553W        W27362   1.483   4.537  11.422  0.0022  0.1854  0.2741
11554W        W27363  12.228   4.814   0.575  0.1156 -0.2660  0.0680
11555W        W27364   0.178   7.314  12.735  0.2502 -0.0972 -0.3756
11556W        W27365   3.928   4.557  13.978  0.1012  0.2484 -0.0207
11557W        W27366  14.415  18.021  12.220  0.0405  0.1853  0.0391
11558W        W27367  16.028   9.629  13.854 -0.3884 -0.0158 -0.2849
11559W        W27368  12.903  15.719   1.803  0.1258 -0.3318  0.6251
11560W        W27369  15.260   8.212   3.209  0.0995 -0.0561 -0.1276
11561W        W27370  18.952  16.715  12.289  0.1652 -0.0566  0.2152
11562W        W27371  16.391  14.652   5.498  0.1024 -0.0713  0.2167
11563W        W27372   8.796  11.532   2.902  0.0294  0.0986 -0.4013
11564W        W27373   9.767   7.864  10.175 -0.0094 -0.2200  0.1792
11565W        W27374  13.617   4.829   5.584 -0.0829  0.0351 -0.0220
11566W        W27375   9.959   3.887   9.437 -0.0782  0.0333 -0.0666
11567W        W27376   8.481   8.918  15.145  0.1833  0.2960  0.4750
11568W        W27377   0.176   6.740   1.323  0.0828  0.1672 -0.0488
11569W        W27378  15.127   6.988  12.778 -0.0481  0.1554 -0.1865
11570W        W27379  13.389  14.437  15.225 -0.0981  0.0612 -0.0223
11571W        W27380  11.461   7.389   5.153  0.0551 -0.0844  0.0702
11572W        W27381  14.477   8.959   0.626 -0.2378  0.2210 -0.1401
11573W        W27382   2.513  17.165  12.409  0.2510 -0.0785  0.0100
11574W        W27383   0.127   5.258   5.930  0.2843 -0.0364 -0.1572
11575W        W27384  15.628   8.257   2.421 -0.1100 -0.4799  0.0552
11576W        W27385   7.897  18.601  11.963  0.1201 -0.1968 -0.0966
11577W        W27386  11.349   4.824   3.554  0.2392  0.2551 -0.0257
11578W        W27387  19.011  18.881  14.164  0.0604 -0.1881  0.0116
11579W        W27388   9.418   7.964   1.095 -0.0168 -0.0121 -0.4207
11580W        W27389   7.559  17.042  10.469 -0.1192  0.2538 -0.2167
11581W        W27390   4.804   4.460   5.080  0.1797 -0.1643 -0.0760
11582W        W27391   7.057   6.758   2.365 -0.0159 -0.5428  0.1333
11583W        W27392   1.874   7.356   0.146 -0.0871  0.1637 -0.0693
11584W        W27393  11.755   9.046  12.307  0.1631  0.1173  0.2560
11585W        W27394  15.645  15.416   1.722 -0.0375 -0.1271 -0.1262
11586W        W27395   0.438   1.105   0.275  0.0801  0.0309  0.1341
11587W        W27396  17.715   2.803   5.704 -0.2087  0.1543 -0.0685
11588W        W27397   3.727  14.092   4.406  0.1595 -0.1867  0.2303
11589W        W27398   6.062  13.637  11.658 -0.0474 -0.1308  0.0354
11590W        W27399   1.172  18.376  14.777 -0.2244 -0.2903  0.1459
11591W        W27400  18.439   2.704   9.892 -0.1195  0.2855 -0.0489
11592W        W27401   6.062   6.413   2.211  0.1906 -0.0208  0.0901
11593W        W27402  15.443   2.552   1.265  0.2226 -0.1333  0.1198
11594W        W27403  12.035  12.426   3.216 -0.0486  0.3665 -0.1017
11595W        W27404  18.438  12.841   1.424  0.2434 -0.3202 -0.1508
11596W        W27405  16.778  16.168  11.065  0.1825 -0.2438 -0.0342
11597W        W27406   2.982   7.798   2.989 -0.2371 -0.0654 -0.1067
11598W        W27407   7.111   1.768  10.589  0.3572 -0.4378  0.0904
11599W        W27408   0.217   9.121  14.826  0.1847 -0.1246  0.0460
11600W        W27409  15.240  10.341   1.685  0.2396  0.1294  0.0513
11601W        W27410   1.145   2.391  14.478 -0.1129 -0.1454  0.1078
11602W        W27411   5.275   3.684  12.239  0.0782 -0.0693 -0.1539
11603W        W27412  15.688   5.763   0.331  0.1768  0.0072 -0.0976
11604W        W27413  17.359   8.692  13.599  0.2236 -0.0872 -0.1896
11605W        W27414  14.471   0.056   5.148 -0.2688 -0.0439  0.2292
11606W        W27415   2.916  18.506   3.436 -0.1608  0.2843 -0.0859
11607W        W27416   4.478  18.445   9.902 -0.0620 -0.0857  0.0351
11608W        W27417  12.288  13.956  11.123  0.1764 -0.0005 -0.1944
11609W        W27418   1.383  10.167  13.711 -0.2515 -0.1809  0.0464
11610W        W27419  15.582  10.114  13.738  0.1877 -0.2405  0.0627
11611W        W27420  15.744   3.983  13.689  0.0323  0.0189  0.2010
11612W        W27421  13.043   0.691  11.875 -0.1241  0.0761 -0.3135
11613W        W27422   9.122   0.120  11.809  0.0790 -0.0260  0.0419
11614W        W27423   1.238   1.172   3.630  0.1486 -0.2233 -0.0962
11615W        W27424   7.492  17.525   0.133 -0.1662 -0.0713  0.1134
11616W        W27425  17.879   8.016  10.491  0.0335  0.0236 -0.2077
11617W        W27426   7.840   6.529  14.321 -0.0873  0.1011 -0.0014
11618W        W27427  12.415   4.277   1.592 -0.1091  0.1172  0.0040
11619W        W27428   6.592   5.956  13.683  0.0639  0.1524 -0.1418
11620W        W27429  17.346   3.858  12.367 -0.0145  0.1151 -0.0434
11621W        W27430   7.975   6.387  14.856 -0.2051  0.1721 -0.2766
11622W        W27431   2.161  16.115   1.651 -0.3311  0.0092  0.0478
11623W        W27432   2.206   7.235   1.339 -0.1864  0.2789 -0.1796
11624W        W27433   3.817  18.916  14.048 -0.1177  0.0453 -0.3241
11625W        W27434  18.419   6.713  13.653  0.4780 -0.2103 -0.1745
11626W        W27435   0.470  16.072   5.033 -0.0387  0.1934  0.1585
11627W        W27436   1.068  13.572   5.244  0.2313  0.0267  0.1476
11628W        W27437  11.689  11.574  10.441 -0.1626  0.0231  0.1198
11629W        W27438  11.965  13.283  11.015 -0.3984  0.1389  0.0473
11630W        W27439   0.732   8.299   4.045 -0.0871 -0.2380 -0.0809
11631W        W27440  12.762   5.616  14.259 -0.2507 -0.0660  0.3002
11632W        W27441   6.871  12.285  14.637  0.0609 -0.2513 -0.0469
11633W        W27442  14.166  17.692  12.429  0.2124  0.0611 -0.1813
11634W        W27443   4.598  10.728  12.698  0.2247 -0.5602 -0.0457
11635W        W27444   9.874   5.192  13.509  0.1559 -0.1445 -0.0590
11636W        W27445  18.722   7.464  10.356  0.0583 -0.0132 -0.0123
11637W        W27446   4.853   4.946   3.893 -0.2521  0.3823  0.1890
11638W        W27447  16.041   2.045  13.209  0.0892 -0.0088 -0.1470
11639W        W27448  16.655   5.056   2.737  0.1868 -0.2710 -0.1887
11640W        W27449   7.731  17.669   3.948  0.0635  0.2487 -0.0258
11641W        W27450   0.036  13.722   4.457 -0.1671  0.0486  0.1045
11642W        W27451   4.934  15.155   2.949 -0.0383 -0.1748  0.0956
11643W        W27452   5.598   9.962  13.152 -0.3247 -0.2884  0.0215
11644W        W27453  19.014   4.662  14.319 -0.2264 -0.0709 -0.1649
11645W        W27454  18.712   5.161  10.642 -0.3118  0.2627 -0.1283
11646W        W27455  10.033   9.377   2.568 -0.2039 -0.0741 -0.2682
11647W        W27456  13.266   4.281  13.634 -0.1696 -0.1398  0.1462
11648W        W27457   1.814   9.546  11.512 -0.2100 -0.1459 -0.2288
11649W        W27458   8.280   6.990  13.340  0.0737  0.0833  0.1112
11650W        W27459  16.991  11.485   0.625  0.2351  0.0554 -0.0590
11651W        W27460  12.656  12.286   0.171  0.1069  0.1318 -0.2597
11652W        W27461   3.643   9.955   5.293 -0.3094  0.0536 -0.1349
11653W        W27462  11.348  10.306   1.008  0.2085 -0.1320 -0.0754
11654W        W27463   9.863  11.018  10.086  0.1257 -0.0797  0.0259
11655W        W27464  11.090  11.665  13.438 -0.1866 -0.1413 -0.0810
11656W        W27465  14.059  13.875   0.307  0.0035 -0.0801 -0.2788
11657W        W27466   8.368   9.471   3.742 -0.0565 -0.0472 -0.1348
11658W        W27467  12.446   9.411   4.333 -0.1260  0.0335 -0.0001
11659W        W27468  14.048  17.880   3.349 -0.1669 -0.0025  0.1927
11660W        W27469  12.873   8.698   4.555 -0.1622  0.0863  0.0889
11661W        W27470  18.296  14.614   4.721  0.2980  0.0375  0.0685
11662W        W27471   9.137   1.295  10.809 -0.1402 -0.0387 -0.1157
11663W        W27472   6.529  18.449  11.239  0.0982 -0.0250  0.1280
11664W        W27473  17.816   8.255  14.688  0.1422 -0.3988  0.1690
11665W        W27474  13.859  11.374   1.007 -0.2618 -0.3012  0.2366
11666W        W27475   2.804  11.218  14.477 -0.1311  0.2496 -0.0176
11667W        W27476   9.125  10.585   4.843  0.1697 -0.1521 -0.1621
11668W        W27477   5.123  18.722   4.644 -0.0267 -0.0177 -0.0787
11669W        W27478   1.350   5.019   2.350 -0.0703  0.1239  0.1677
11670W        W27479   5.856  15.780  11.093  0.0991 -0.3498  0.1415
11671W        W27480  15.663   8.360   0.220 -0.1641  0.0848 -0.1495
11672W        W27481   9.694   9.449  11.085  0.1467 -0.2233 -0.0062
11673W        W27482   7.903  17.577   1.518 -0.1488  0.1712  0.0775
11674W        W27483  16.112  16.631  12.826 -0.1850 -0.2911 -0.1478
11675W        W27484   3.077   8.275   2.242  0.1450 -0.0827 -0.4028
11676W        W27485   1.532   1.393  12.666 -0.1458 -0.0427 -0.0133
11677W        W27486  11.236  12.276   1.985 -0.6021 -0.0805 -0.1857
11678W        W27487   6.748   0.015   2.279  0.1467 -0.3625  0.2936
11679W        W27488  12.476  14.160  10.741 -0.1647 -0.0155 -0.0665
11680W        W27489   7.145   0.754   0.580 -0.2417  0.0267 -0.1840
11681W        W27490   9.986   9.907   0.832 -0.0023  0.0135 -0.0791
11682W        W27491  16.976   7.091   2.521 -0.0698 -0.1388  0.1159
11683W        W27492   2.643  16.022   1.423  0.1234  0.3107  0.1112
11684W        W27493   2.184  10.127   4.230 -0.1609 -0.1560  0.2835
11685W        W27494   7.353   7.151  10.323  0.0621  0.0133  0.1872
11686W        W27495  11.707   2.236  14.610  0.1556  0.0878 -0.0256
11687W        W27496   8.369   5.093   0.089 -0.1455  0.1278  0.1213
11688W        W27497   4.413  17.028   0.755 -0.0896 -0.1375 -0.0938
11689W        W27498   9.087  17.399   2.531 -0.0861 -0.0583 -0.1416
11690W        W27499  13.726   2.386  12.484 -0.3512  0.0750  0.0270
11691W        W27500   1.903   4.657  14.985 -0.1577 -0.1344  0.0802
11692W        W27501   2.608  10.122   0.627 -0.1688 -0.2323 -0.0555
11693W        W27502  12.323  13.095  14.836  0.0046 -0.0105 -0.2344
11694W        W27503  10.803   2.652  14.654  0.1295 -0.0731  0.0268
11695W        W27504   3.277  11.834  15.021 -0.1530 -0.2349  0.0815
11696W        W27505  13.786  17.149   2.777  0.1635 -0.2684 -0.1240
11697W        W27506   0.103  10.214   4.813 -0.0106  0.0340  0.3231
11698W        W27507  12.091  10.089   1.808 -0.1956  0.2000 -0.2431
11699W        W27508   9.430  17.322  10.055 -0.3503  0.1722  0.3450
11700W        W27509  15.504  16.621   3.149 -0.2064  0.1312  0.1321
11701W        W27510   9.208  10.316   3.065  0.2038 -0.3948 -0.2187
11702W        W27511   1.394  15.056  10.900 -0.1836 -0.2845  0.0935
11703W        W27512  11.957  10.389  14.770 -0.4723 -0.2420 -0.2234
11704W        W27513   2.413   4.506   1.581 -0.0684  0.3160  0.2414
11705W        W27514  18.203  15.489  15.187 -0.0175  0.1912 -0.1101
11706W        W27515   0.966  13.023  14.258  0.2885  0.1996 -0.1053
11707W        W27516   2.863  15.879   4.787 -0.3092  0.0691  0.0411
11708W        W27517   5.989  16.493  11.844  0.3015 -0.0513  0.4043
11709W        W27518   2.868  11.920  12.459  0.1168  0.1646 -0.0070
11710W        W27519  13.350   4.765   2.156 -0.1387 -0.0727  0.0150
11711W        W27520  13.260  15.677  12.574  0.0468 -0.0779  0.0250
11712W        W27521  10.245  11.662   2.566  0.1336  0.0904 -0.0703
11713W        W27522   0.763   6.763  11.716  0.0160 -0.3349  0.0544
11714W        W27523  14.851   5.334   0.592 -0.1473  0.0213 -0.1821
11715W        W27524  14.316  13.297   5.940  0.2202  0.0120  0.1211
11716W        W27525  17.659  11.690   3.345 -0.3344 -0.2817 -0.4348
11717W        W27526   4.375   6.624   3.378  0.1056  0.0412 -0.1721
11718W        W27527  17.257   6.302  12.238  0.1026  0.0070  0.0017
11719W        W27528   6.606  13.928  15.287  0.1156 -0.2640  0.1449
11720W        W27529   6.163  16.322  15.043 -0.1237  0.0592 -0.3813
11721W        W27530  17.658  12.268   0.515  0.3736 -0.2807  0.1862
11722W        W27531   6.163   9.760  13.033  0.1622  0.1392  0.1396
11723W        W27532  11.923  10.626   4.685  0.2202 -0.0060 -0.2940
11724W        W27533  16.815   6.596   2.535  0.1295 -0.2392  0.1099
11725W        W27534  11.629  13.881   2.059  0.0343  0.1508 -0.0942
11726W        W27535   1.377   3.138   2.241  0.0992 -0.0344  0.1571
11727W        W27536  17.818   9.750   0.909 -0.0580  0.0048 -0.2319
11728W        W27537   9.002   0.385  11.347 -0.1695 -0.1605  0.0539
11729W        W27538   6.033  13.542   3.085  0.0097  0.0352  0.0988
11730W        W27539   4.596  12.516   2.284 -0.0923 -0.1136  0.0729
11731W        W27540  13.783  11.508   3.547  0.0509  0.0166 -0.0981
11732W        W27541  15.912  12.865  12.991  0.0567  0.0312  0.0021
11733W        W27542   4.621   7.623  11.637  0.0361 -0.1123  0.0343
11734W        W27543   9.458   9.435   1.042 -0.0437  0.1626  0.0563
11735W        W27544   9.929  14.978   3.359  0.0358  0.2072 -0.0446
11736W        W27545  17.780   2.952  14.000 -0.0139  0.0012 -0.1703
11737W        W27546  15.183   8.029   5.185  0.1099  0.1624 -0.0806
11738W        W27547  11.171  15.017   4.917 -0.0220 -0.2923 -0.1700
11739W        W27548  18.251   1.725  14.708 -0.1179  0.1494 -0.1126
11740W        W27549   6.189   7.017   1.593  0.1120 -0.0608  0.1664
11741W        W27550  15.975  14.779   5.670 -0.0771 -0.2286 -0.2538
11742W        W27551   7.298   4.508  10.359 -0.3821 -0.0039  0.0181
11743W        W27552   1.517   9.675  14.360 -0.1107  0.2580  0.0392
11744W        W27553   8.086  15.112  10.950  0.0373 -0.0714 -0.2114
11745W        W27554   2.268   4.078   2.246  0.1013  0.3079 -0.0414
11746W        W27555   6.876  12.953  13.717  0.0787  0.4314  0.0584
11747W        W27556   1.114   8.768   2.377  0.1579  0.0153  0.0939
11748W        W27557   0.106   5.819   0.077  0.0685  0.2071  0.1974
11749W        W27558   6.825  17.457  13.322 -0.1773 -0.3805 -0.0163
11750W        W27559  11.807   8.819  15.096 -0.1310 -0.1898 -0.2083
11751W        W27560   7.004  14.020  14.408  0.0542 -0.3395 -0.4355
11752W        W27561   5.354   4.199   3.663 -0.1122 -0.2074  0.0224
11753W        W27562   1.301  16.136   5.575  0.0342  0.1265  0.0735
11754W        W27563   5.656   3.841  11.527  0.0391  0.1524  0.3954
11755W        W27564  11.166  17.582  14.696  0.0702  0.0021 -0.2089
11756W        W27565  10.578  12.688  14.121 -0.0787 -0.1517  0.2249
11757W        W27566  17.583   2.307  12.309  0.0747  0.1081  0.3083
11758W        W27567  17.853  14.014   0.136 -0.0489 -0.1614 -0.0940
11759W        W27568   6.132  18.452   0.749 -0.0989  0.0131  0.2576
11760W        W27569   5.437   9.542  10.609 -0.1144 -0.0049  0.0274
11761W        W27570   0.087   8.200  14.252  0.1144  0.0437 -0.2731
11762W        W27571  14.090  14.732   0.728  0.1727 -0.4218 -0.1779
11763W        W27572   1.781  18.792  14.461 -0.5000  0.2704  0.0553
11764W        W27573  12.443   4.492  12.668  0.0535 -0.0039  0.0298
11765W        W27574  10.889   3.633   2.465 -0.0864  0.0358  0.1622
11766W        W27575  13.060   3.161   1.021  0.0800  0.0326 -0.0968
11767W        W27576   7.233  18.381  14.440 -0.0857 -0.1931 -0.1679
11768W        W27577   3.258  16.164   1.423  0.0398  0.1406  0.0132
11769W        W27578  17.102   8.685   5.595 -0.1894 -0.0661  0.0108
11770W        W27579   7.210   0.916  11.170  0.2415  0.2425  0.0537
11771W        W27580   7.126   9.922  14.462 -0.0001  0.1500 -0.0038
11772W        W27581  18.474  18.165   5.117  0.1299 -0.3089  0.1159
11773W        W27582  16.174  16.967  11.070  0.2607  0.0274 -0.1191
11774W        W27583   5.257   1.221  13.581  0.0481 -0.0508 -0.2804
11775W        W27584  14.320   1.467   3.423 -0.0877  0.0679  0.0727
11776W        W27585   9.803  15.798   0.956 -0.1627 -0.3384  0.0668
11777W        W27586   3.028   4.165   3.057  0.2640 -0.4192  0.1279
11778W        W27587  11.427   3.001   4.007  0.0546 -0.1143  0.2235
11779W        W27588  11.370  17.949   2.538  0.2301  0.0273 -0.3299
11780W        W27589  12.312  13.374   2.353  0.0319 -0.0462  0.1385
11781W        W27590  10.644   9.639   5.122 -0.2266 -0.0766 -0.3247
11782W        W27591   0.805  11.373   0.316 -0.2150 -0.0128 -0.0749
11783W        W27592  18.328   3.378  11.627 -0.0119  0.2351 -0.0368
11784W        W27593  17.425   0.045   3.716 -0.1731 -0.0687 -0.0718
11785W        W27594   9.003   9.570   2.011  0.1505 -0.1305  0.0676
11786W        W27595  15.723  11.074  14.790  0.2258  0.2143 -0.1200
11787W        W27596  14.750  11.873   5.133 -0.0703  0.0045  0.3707
11788W        W27597   4.720  15.494  13.613 -0.2974  0.3282 -0.0763
11789W        W27598   3.737   9.206  14.562  0.1180 -0.0601 -0.2713
11790W        W27599   5.177  13.441   0.654 -0.0041  0.4562  0.1013
11791W        W27600   4.297   0.642   4.046 -0.0709  0.0371  0.3089
11792W        W27601   3.365   3.463  14.409 -0.0258  0.2664 -0.1872
11793W        W27602  15.553   8.749   2.387  0.2589 -0.0456 -0.1270
11794W        W27603  18.017   1.292  12.603  0.2127 -0.3064 -0.1332
11795W        W27604  12.967  17.465   5.561  0.4019 -0.0453  0.0655
11796W        W27605  10.019   4.607   5.500 -0.0464  0.0383 -0.0105
11797W        W27606  16.061   4.269   5.997 -0.3782 -0.1710  0.2057
11798W        W27607  13.211   6.764  11.667 -0.1132  0.0463  0.0908
11799W        W27608   6.752  11.538  11.311  0.1525 -0.1607  0.0485
11800W        W27609  12.623  14.443   1.075 -0.1566  0.0931  0.1033
11801W        W27610   6.001  11.861   2.846 -0.4793 -0.1559 -0.0421
11802W        W27611  17.400   6.457  10.058  0.1430 -0.0053 -0.0938
11803W        W27612  17.787   4.715  13.179 -0.1178 -0.0690  0.1804
11804W        W27613   5.371   7.781   5.140  0.1730 -0.1080 -0.1329
11805W        W27614   3.293   4.666  14.655 -0.0706 -0.0329  0.1787
11806W        W27615  13.645  18.466  12.005 -0.2617 -0.0170  0.1529
11807W        W27616  13.126   4.498  14.892 -0.0521  0.2226 -0.2119
11808W        W27617  13.800  12.068  13.446  0.2401  0.1934 -0.0458
11809W        W27618  12.871  10.720   4.558 -0.1815  0.1774  0.1257
11810W        W27619   6.744   9.180   0.115  0.2636  0.2370  0.0981
11811W        W27620  12.847  16.143   2.055 -0.0109 -0.2142 -0.1489
11812W        W27621  10.702   5.989   1.205  0.2951 -0.1204  0.0864
11813W        W27622   2.353  17.886  11.201 -0.0147  0.0753  0.0744
11814W        W27623   9.789   6.404  13.957 -0.2545 -0.2413  0.0408
11815W        W27624  15.136  17.148   2.587  0.2062  0.5609 -0.1572
11816W        W27625   2.376   7.892  10.932 -0.1015 -0.0454  0.2369
11817W        W27626  16.091   9.012   0.387  0.1411 -0.2114  0.1429
11818W        W27627   8.114  13.052   0.368  0.3909  0.0575 -0.0223
11819W        W27628   0.038  10.203  14.666  0.2566  0.0805 -0.0431
11820W        W27629   4.736   3.208  14.548 -0.0816  0.0875 -0.0916
11821W        W27630  10.510   9.526   0.132  0.1461 -0.2056  0.2323
11822W        W27631   6.639  17.225  11.880 -0.0807 -0.1810 -0.1051
11823W        W27632   6.644   5.541  11.038 -0.0368  0.5459 -0.2242
11824W        W27633  18.659   2.934  12.788  0.2702  0.0402 -0.1049
11825W        W27634   9.621   2.340  11.184  0.1702 -0.1221  0.1708
11826W        W27635  16.483  18.099   1.558  0.0086  0.0895  0.2245
11827W        W27636   1.745  14.137   0.571  0.1003 -0.1569  0.0367
11828W        W27637  16.704  13.848   4.396  0.1918  0.0864  0.1362
11829W        W27638   0.195  12.766  13.358  0.3327 -0.2012  0.1724
11830W        W27639  15.175   2.655   5.445 -0.0133 -0.1530  0.2714
11831W        W27640   7.816   3.232  11.978 -0.1964  0.0411 -0.3696
11832W        W27641   7.086   2.047   4.281  0.1426  0.0855  0.0961
11833W        W27642   0.733   3.583  14.832  0.1909  0.1429  0.0655
11834W        W27643   8.152  13.517  14.533  0.1992  0.1564  0.4177
11835W        W27644  15.018   8.103  13.752  0.0418 -0.2805  0.1432
11836W        W27645  11.276   1.137   4.126  0.1811  0.0913 -0.0819
11837W        W27646  16.395  14.341  12.128  0.1600 -0.2542  0.0668
11838W        W27647  12.244  13.625   4.089  0.0454 -0.1849  0.0812
11839W        W27648  11.548  12.753  14.426  0.0773 -0.0414  0.3127
11840W        W27649   2.345   5.718  14.843 -0.1225  0.0844  0.0931
11841W        W27650   9.329  13.388   3.225 -0.2405 -0.2500  0.0779
11842W        W27651   0.731  18.055  10.540  0.0251 -0.1842 -0.0142
11843W        W27652  14.535  16.180   1.301 -0.1407 -0.0613 -0.1198
11844W        W27653   6.910   8.553  12.441 -0.0549  0.2801  0.0079
11845W        W27654  14.361   5.627  13.376 -0.4445  0.1893  0.2645
11846W        W27655   9.822  10.357   0.236 -0.2899  0.1964  0.0395
11847W        W27656   2.167   9.753  13.782 -0.1459 -0.0230 -0.1584
11848W        W27657   3.944   2.181   2.489  0.1248 -0.1233 -0.0959
11849W        W27658   6.906   3.929   2.134  0.3986  0.3180  0.0265
11850W        W27659   8.517   4.309   1.673 -0.4002 -0.0716 -0.0683
11851W        W27660   2.575  11.688   2.464 -0.1320  0.0306  0.0429
11852W        W27661  14.778  10.241   5.549  0.0134  0.1722 -0.2689
11853W        W27662   3.888  10.858   4.155 -0.0304 -0.0147 -0.1443
11854W        W27663  14.141  11.623  10.665  0.2072  0.1414  0.0361
11855W        W27664  16.026   8.597   2.018 -0.3614  0.0535  0.1242
11856W        W27665  13.836  14.127  11.079 -0.2571  0.1260 -0.1954
11857W        W27666   8.761  15.764   2.208 -0.0407 -0.0434  0.0739
11858W        W27667   5.781  14.388  11.367  0.1386  0.1979 -0.0765
11859W        W27668  17.177  10.560  13.137 -0.1381 -0.0939 -0.2056
11860W        W27669  14.741  13.892   4.150 -0.1587 -0.0606  0.0571
11861W        W27670   9.441   1.409  12.928 -0.1863  0.0666 -0.2170
11862W        W27671   1.840  14.996  13.729  0.1621  0.0760  0.2210
11863W        W27672  11.063  17.441  11.890 -0.0320 -0.2586 -0.1547
11864W        W27673   5.312   9.990   0.239 -0.2161 -0.2020  0.2364
11865W        W27674  13.025  18.449   2.584 -0.2329 -0.1536  0.3018
11866W        W27675  13.942   7.962  11.264  0.0602  0.0176  0.2965
11867W        W27676   9.540  13.589   1.138  0.1117  0.3750  0.2132
11868W        W27677  15.484   4.585  11.771 -0.1235  0.1363  0.2789
11869W        W27678   3.488   1.024  11.460 -0.2627  0.1574  0.1317
11870W        W27679   2.222  12.550  10.704  0.5391 -0.1157 -0.2630
11871W        W27680  12.034   9.698  12.357  0.2290  0.1439 -0.3317
11872W        W27681   6.820  17.018  14.588 -0.1274  0.2222  0.0039
11873W        W27682  14.134   0.985   3.215  0.1231  0.1057 -0.1168
11874W        W27683  18.975  11.814   1.534  0.3346 -0.1402  0.2607
11875W        W27684  14.998  13.763   1.987  0.0354 -0.0327 -0.1149
11876W        W27685   1.469  10.794   0.696 -0.0710 -0.1971  0.0894
11877W        W27686  18.242   9.815  13.909  0.2210 -0.2046  0.0079
11878W        W27687   5.107   8.853  14.308  0.3652  0.0503  0.0400
11879W        W27688   6.760  18.927   1.213  0.2070  0.1221 -0.3805
11880W        W27689  14.677  17.406   0.614  0.0041 -0.1292  0.1484
11881W        W27690   7.654   4.381  15.242 -0.0915 -0.1375  0.2002
11882W        W27691   5.283   8.252   3.233  0.1397  0.0289  0.2681
11883W        W27692   6.440   7.453  13.791  0.2850  0.2147 -0.3408
11884W        W27693  10.728  12.471   3.950 -0.1362  0.0338  0.0333
11885W        W27694  10.160   5.669  11.472  0.1835  0.2405  0.0847
11886W        W27695  17.624  12.203  14.099 -0.2140 -0.0734 -0.0976
11887W        W27696  17.106  17.465   4.362  0.0873  0.0870 -0.0848
11888W        W27697   8.898  13.211   5.109 -0.0117  0.0455 -0.0081
11889W        W27698  14.001  13.933   1.218 -0.1205  0.2368 -0.0438
11890W        W27699  18.767   1.270   3.163 -0.0919  0.1697 -0.1153
11891W        W27700  16.093  17.071  15.122  0.5635  0.0046 -0.3273
11892W        W27701  12.225  14.895   2.805 -0.0471  0.2683 -0.0190
11893W        W27702   2.080  16.284  15.014 -0.1339  0.1905  0.0538
11894W        W27703   0.202  11.513   0.192  0.1516  0.1002  0.1183
11895W        W27704   4.255   8.132   3.738 -0.0127 -0.0822  0.0244
11896W        W27705  17.125  18.142   3.963 -0.1147  0.0960  0.1669
11897W        W27706   1.934  14.365  12.551 -0.2383 -0.1236 -0.0591
11898W        W27707   7.447   7.873  12.640 -0.0130  0.0203 -0.0617
11899W        W27708  16.797   6.087   5.017  0.4571 -0.4598 -0.0579
11900W        W27709  13.228  15.285  14.166 -0.3086 -0.1024 -0.5408
11901W        W27710   0.025   4.979   0.645 -0.1466  0.1064  0.0945
11902W        W27711  16.156   5.366  10.052 -0.0398  0.0656 -0.0764
11903W        W27712   7.514   3.947  10.254 -0.1913 -0.0854 -0.1755
11904W        W27713   5.999  12.591  15.053  0.1067 -0.0845 -0.0122
11905W        W27714   4.166   9.271   0.577 -0.2763 -0.1026 -0.0278
11906W        W27715   5.993  14.061  10.950 -0.0508 -0.0679  0.2781
11907W        W27716   7.378  11.818   4.200  0.3377  0.0368 -0.3751
11908W        W27717  14.194   9.526   1.542  0.1028  0.1018  0.0705
11909W        W27718  16.280  11.026  12.722  0.3491 -0.2259 -0.1246
11910W        W27719   3.940  14.674   1.813  0.1603  0.0040 -0.1164
11911W        W27720  11.785   4.056  11.609 -0.0109 -0.2729  0.1942
11912W        W27721   1.297   6.221  12.940 -0.3148 -0.0147 -0.2377
11913W        W27722  16.731   9.929   3.302  0.0376 -0.0262  0.3910
11914W        W27723   4.234  17.568  14.874  0.1790 -0.3639  0.1132
11915W        W27724   7.721  11.864   0.414 -0.0803  0.1271 -0.1551
11916W        W27725   4.999  18.138  10.842  0.2341 -0.2138  0.0924
11917W        W27726  16.033  11.636   0.454 -0.0369 -0.0263 -0.1436
11918W        W27727   2.471   9.531   0.608  0.2078 -0.1588  0.1175
11919W        W27728  12.947   7.561  13.946  0.1444  0.0725 -0.3402
11920W        W27729   9.716   1.550   2.395  0.0192  0.3207  0.0482
11921W        W27730   8.348   3.034  11.662 -0.1870  0.0570 -0.0001
11922W        W27731   7.446   2.642  12.461  0.1954 -0.0332 -0.0757
11923W        W27732   2.695   5.612   5.579  0.1485  0.1838 -0.1051
11924W        W27733  12.379  12.614  14.696 -0.0672 -0.0821  0.0379
11925W        W27734  11.149   4.622   0.321 -0.3392  0.0150 -0.0040
11926W        W27735   4.972   7.409  14.490 -0.1162 -0.4398  0.1182
11927W        W27736  11.617  13.920   5.657 -0.0577 -0.2302 -0.0360
11928W        W27737  16.399   9.163   3.777 -0.0187  0.3567 -0.1877
11929W        W27738   5.569   9.078  14.134  0.0266  0.2047  0.1896
11930W        W27739  17.323   6.061  14.251 -0.2817  0.0501  0.2582
11931W        W27740  14.904  12.413   3.254  0.2677 -0.2650 -0.0297
11932W        W27741  13.128   6.922  12.589  0.0372  0.0277  0.3059
11933W        W27742  10.355  16.013  10.406  0.0914  0.0089  0.3757
11934W        W27743   2.401  13.740   0.708 -0.0092 -0.1589 -0.0280
11935W        W27744  14.504   6.127   6.419  0.0574 -0.0344  0.2329
11936W        W27745   0.664   8.408   4.742  0.0172  0.2093 -0.0432
11937W        W27746  16.867  12.135  14.808  0.0280  0.1684  0.1619
11938W        W27747   0.878   6.905   5.729 -0.1002  0.1165 -0.1283
11939W        W27748   9.770  15.241  13.937 -0.2624  0.2261  0.0655
11940W        W27749   2.091  10.889   0.988  0.2256 -0.2590  0.1393
11941W        W27750  15.435   3.689  11.136  0.2287  0.0129 -0.0356
11942W        W27751   3.984  12.610   3.830 -0.2663  0.0659  0.0129
11943W        W27752   3.798  16.077   3.117 -0.1040 -0.0722 -0.2139
11944W        W27753   0.133   3.998  11.326 -0.1865 -0.1558 -0.2250
11945W        W27754   1.096  11.258  13.029 -0.1213  0.0415  0.0051
11946W        W27755   2.400  11.499   3.358 -0.0717 -0.0572  0.2842
11947W        W27756   8.610   3.175   2.552  0.1851 -0.2316 -0.0387
11948W        W27757  15.933  11.161   5.610 -0.2053 -0.0653 -0.1214
11949W        W27758   5.566  11.989  12.641  0.0936  0.1295  0.0244
11950W        W27759   5.438  18.077   3.068 -0.4861 -0.1063 -0.2166
11951W        W27760  16.199   5.269   1.123  0.1335 -0.1497  0.0932
11952W        W27761  10.703  18.381  12.272 -0.0707 -0.4214 -0.0264
11953W        W27762  11.074   4.657  14.039  0.0259  0.0900 -0.1302
11954W        W27763   4.676  11.795  11.828  0.0158 -0.2216  0.0272
11955W        W27764  10.913  13.345  10.957  0.0999 -0.0239 -0.1861
11956W        W27765   1.959  12.961   4.236 -0.3464 -0.2390 -0.0238
11957W        W27766  11.936  13.151  11.898 -0.0822  0.1299 -0.1727
11958W        W27767  12.588   9.622   3.877  0.0609  0.0201  0.1295
11959W        W27768   3.439   1.146   5.467  0.1268 -0.2061  0.1122
11960W        W27769  16.250   1.806   4.793 -0.0658 -0.0268  0.0772
11961W        W27770   5.640  10.628   0.968  0.0808 -0.0170 -0.2634
11962W        W27771   6.813   7.306  13.442  0.0218 -0.0588 -0.2069
11963W        W27772  11.981   8.900   1.492 -0.0812  0.0556 -0.4446
11964W        W27773  10.513   6.649  10.925  0.1992  0.0583 -0.0950
11965W        W27774  15.605   4.915  13.547 -0.0660 -0.3357  0.0095
11966W        W27775  18.862  18.843   4.622 -0.1103 -0.0040 -0.0897
11967W        W27776  10.728  17.005  14.687 -0.2771  0.4116  0.0990
11968W        W27777   1.866   6.025  13.924 -0.2742 -0.0147 -0.2960
11969W        W27778   2.686   0.374  10.881 -0.1927 -0.1127  0.0109
11970W        W27779  17.636   7.472   1.111 -0.0811 -0.1886  0.1261
11971W        W27780  15.330   8.869  14.378  0.0914  0.2803  0.0063
11972W        W27781  10.157  17.370   1.047 -0.1030 -0.1505  0.1622
11973W        W27782   6.626   1.949   1.150  0.1509  0.0076  0.0065
11974W        W27783   9.822  11.620  12.563 -0.0327  0.0685 -0.2685
11975W        W27784   9.088   9.267  15.229  0.1273 -0.0574 -0.2099
11976W        W27785  12.548   5.863   3.653 -0.0473 -0.0548  0.0969
11977W        W27786   2.714  18.949   3.348 -0.1812 -0.1406  0.0194
11978W        W27787  17.227   6.691  14.895  0.2741 -0.2247  0.1392
11979W        W27788  10.454   3.863   3.794 -0.0966 -0.1969  0.0791
11980W        W27789  13.138  12.389  12.174  0.1739  0.0040  0.1925
11981W        W27790  18.163   5.558  15.016 -0.1384 -0.1656 -0.0607
11982W        W27791   8.120   6.110  10.785 -0.1290  0.1848 -0.2539
11983W        W27792  17.712  12.744   2.514 -0.1161  0.2521  0.2088
11984W        W27793  15.125  11.514  12.956  0.2095  0.3670  0.1106
11985W        W27794  14.716   5.348  11.642 -0.2698 -0.2736  0.1920
11986W        W27795  14.686   9.764   5.745 -0.4380  0.0561 -0.2213
11987W        W27796   1.167  11.165  10.395  0.3657  0.0850 -0.0561
11988W        W27797  13.679  16.938   4.435 -0.0454 -0.2020 -0.1576
11989W        W27798   6.276  14.418  10.615 -0.1156  0.1754 -0.1382
11990W        W27799   2.210  12.526  14.518 -0.2285  0.1348 -0.1686
11991W        W27800  17.242   1.922   3.289 -0.0186  0.1612 -0.1298
11992W        W27801  16.038  10.798  11.084 -0.3395  0.1343 -0.0977
11993W        W27802   5.955   4.043  15.181  0.0594 -0.0874 -0.1627
11994W        W27803  10.493   8.989  10.440 -0.1165  0.1806  0.2710
11995W        W27804  12.847  12.689  11.376 -0.1438  0.0554 -0.0597
11996W        W27805   7.320  14.011   1.173  0.1190 -0.0937  0.0079
11997W        W27806  14.881  17.390  14.388 -0.0120  0.0597 -0.3212
11998W        W27807   2.734  15.252   2.042  0.1376 -0.0656 -0.0285
11999W        W27808   9.470  14.359   0.076  0.2443  0.0580 -0.4193
12000W        W27809  16.197  10.364   0.197 -0.1477  0.0227 -0.2070
12001W        W27810  10.502  15.301  12.274  0.3406  0.0754 -0.1940
12002W        W27811  10.020  11.498   1.414  0.0636 -0.0613  0.2107
12003W        W27812  11.345   4.432   1.054 -0.0242  0.1945  0.1133
12004W        W27813   2.319  18.903  10.339 -0.1298  0.0972  0.0783
12005W        W27814   7.979  16.803  13.084 -0.0420 -0.1729  0.1068
12006W        W27815   6.906   5.553  14.129 -0.0948 -0.1447  0.1923
12007W        W27816   5.882   9.385  10.304  0.1029  0.0747 -0.1339
12008W        W27817   6.248   6.447   1.430  0.4682 -0.2667  0.1393
12009W        W27818   3.975  11.598  14.343  0.1612 -0.1837 -0.0834
12010W        W27819   8.855  16.818  12.409 -0.1811 -0.1803 -0.1510
12011W        W27820  17.473  16.655  10.959  0.1416 -0.2657  0.2732
12012W        W27821   7.337  13.966  11.176 -0.2497  0.2181  0.1825
12013W        W27822  15.845   2.554   3.703  0.0218  0.2580  0.1228
12014W        W27823   1.700   1.313  12.213  0.1209 -0.2566  0.2734
12015W        W27824  16.957   0.883   1.054 -0.1653 -0.0149 -0.3128
12016W        W27825  18.506  17.030   3.563  0.2198 -0.2320 -0.1407
12017W        W27826   9.613  17.141  12.784  0.1656  0.1109  0.0604
12018W        W27827   6.010  12.030   0.825 -0.0050 -0.3384 -0.1438
12019W        W27828   9.673   7.433   1.995 -0.1955  0.2642 -0.0817
12020W        W27829   2.839   1.021  13.469 -0.0632  0.0535 -0.1339
12021W        W27830   1.743   9.656  12.002  0.3836  0.0759  0.0679
12022W        W27831  18.750  14.859  11.099  0.1737  0.0313 -0.0906
12023W        W27832  12.934  18.570  10.706 -0.0972  0.1982  0.0028
12024W        W27833  11.092   7.148   4.682  0.1104 -0.2832  0.0481
12025W        W27834  15.771   4.224   5.564  0.2451  0.0858  0.1243
12026W        W27835  15.658  18.127   1.830  0.1864 -0.0493  0.3014
12027W        W27836   5.368   4.272  11.899 -0.0678  0.0835 -0.0858
12028W        W27837  10.163  15.351   5.211  0.3379 -0.1609  0.2149
12029W        W27838   9.199   6.524  13.517 -0.0482  0.1996 -0.4957
12030W        W27839   5.860   5.681   5.595  0.0576 -0.0979  0.2460
12031W        W27840   5.464   2.923   2.993 -0.2293  0.1649  0.0471
12032W        W27841  17.579   9.023   1.548  0.2406  0.2437  0.1033
12033W        W27842  12.098  11.178   5.682 -0.0058  0.3192  0.0508
12034W        W27843  16.854  18.995   0.283 -0.0404 -0.0255 -0.0286
12035W        W27844  11.618   8.737  11.287 -0.3869 -0.0288  0.2231
12036W        W27845   8.776  17.486   0.543 -0.2740 -0.3622  0.1523
12037W        W27846   4.808   0.386   3.220 -0.0147 -0.0805 -0.1362
12038W        W27847   6.865  14.604  10.623 -0.0985  0.0202 -0.0614
12039W        W27848   3.668  16.686   4.019  0.0937 -0.1303  0.0149
12040W        W27849  14.454  12.565  15.254 -0.0126  0.1556 -0.0484
12041W        W27850   7.813  14.759   0.760 -0.0587 -0.0787 -0.1796
12042W        W27851   4.634   5.983  12.976 -0.1648  0.3375  0.2755
12043W        W27852   0.496  18.753  14.072  0.1812 -0.1624  0.1746
12044W        W27853  11.838   7.362  12.891  0.0809  0.0853  0.0965
12045W        W27854  17.998  13.494   0.126 -0.2523  0.2370 -0.0935
12046W        W27855  16.756  18.537   5.282 -0.1001 -0.0554  0.2205
12047W        W27856  18.197   1.488  10.546  0.1526  0.1138 -0.2010
12048W        W27857   2.821   5.628  14.627  0.0745  0.2284 -0.1516
12049W        W27858  14.765   6.696   1.760 -0.1838 -0.1733 -0.2486
12050W        W27859   9.267   0.883  10.482 -0.0564  0.2641  0.1654
12051W        W27860   0.938   4.920  12.912  0.0442  0.0858 -0.0660
12052W        W27861   1.127   1.188   4.607  0.1694  0.0654  0.1880
12053W        W27862   4.648   8.122  14.209  0.0309 -0.0312 -0.4904
12054W        W27863  10.548  16.219   6.008 -0.0751  0.0560 -0.1290
12055W        W27864  13.697  16.923   2.286 -0.2394  0.0073 -0.1143
12056W        W27865   3.312   7.162  10.525  0.1561 -0.0716  0.4085
12057W        W27866   9.274  11.814   0.401 -0.0717  0.1397  0.0233
12058W        W27867   5.835   5.903   3.415 -0.2506  0.0654  0.0497
12059W        W27868  11.435  12.903  13.908  0.4540 -0.3113 -0.1528
12060W        W27869   6.596  18.431   5.333  0.2873 -0.0266  0.1202
12061W        W27870  16.060   8.893   4.422  0.0129  0.1286 -0.0675
12062W        W27871  18.746  13.718   4.118 -0.2592  0.1886  0.1593
12063W        W27872  10.120   3.046   4.431 -0.1448  0.0459  0.0529
12064W        W27873   0.783  11.183   4.690  0.0472 -0.1655 -0.1640
12065W        W27874   1.491  13.132  15.137  0.1282  0.2120  0.2144
12066W        W27875   2.166   0.103  13.439  0.0344 -0.0704  0.4124
12067W        W27876  16.286   2.557  11.492  0.1391 -0.0460 -0.0372
12068W        W27877  16.402   8.571  11.196  0.0191  0.4574 -0.1108
12069W        W27878   0.237  16.119  12.680 -0.4425 -0.0997 -0.1608
12070W        W27879   2.469  16.067  11.379  0.1269  0.2997 -0.2578
12071W        W27880   4.117   7.881  14.205 -0.1433 -0.1730  0.1551
12072W        W27881   6.142  10.042   1.882  0.1329  0.5800 -0.1942
12073W        W27882   4.188   9.484  12.800  0.4585  0.2563  0.0257
12074W        W27883  18.190   9.613   0.605  0.5402  0.2802  0.1831
12075W        W27884   7.690   7.944  14.095 -0.0940  0.1219 -0.0056
12076W        W27885   5.234   4.960   0.498  0.0822 -0.0719  0.2169
12077W        W27886  18.126  14.017  13.104  0.1402  0.0435  0.0629
12078W        W27887   1.325   6.055  11.712 -0.1220  0.0601 -0.2269
12079W        W27888  18.978  18.762   0.020  0.1105 -0.0013  0.2693
12080W        W27889   0.918   7.791   1.179 -0.3257  0.1542  0.1174
12081W        W27890   5.828  18.087   1.752 -0.2314 -0.1853 -0.0457
12082W        W27891   4.005  15.273  11.026 -0.0601 -0.0155  0.2529
12083W        W27892  15.951   8.166  14.339 -0.1881 -0.1592 -0.0045
12084W        W27893   5.163   6.585   5.042 -0.0288 -0.0393  0.1397
12085W        W27894   0.660   2.726   1.427 -0.1299 -0.4038 -0.2517
12086W        W27895   9.781  12.214  13.307  0.0917 -0.1110  0.1032
12087W        W27896  14.800  12.485   2.731  0.0631  0.2979  0.1653
12088W        W27897   5.002   4.824  10.857 -0.2699  0.1138 -0.0190
12089W        W27898   2.150   8.454   1.641  0.2680 -0.0119  0.0731
12090W        W27899   9.607  16.097  11.135 -0.4173 -0.1043  0.3195
12091W        W27900  11.090  13.748  12.768  0.4108 -0.1872 -0.0666
12092W        W27901  12.062   9.684   4.604  0.0295  0.1122  0.1352
12093W        W27902   2.135   8.438  11.879 -0.0880 -0.1434 -0.1100
12094W        W27903  16.822   0.632  12.523 -0.1546 -0.2008 -0.1456
12095W        W27904  16.216  15.436   4.965  0.0355 -0.3363  0.0108
12096W        W27905   8.277  11.180   3.552 -0.3146  0.0175  0.0727
12097W        W27906  15.722   3.185   0.584 -0.2686  0.4865  0.4860
12098W        W27907  10.103   5.697   3.884 -0.0264  0.0625 -0.1386
12099W        W27908   6.332  15.698   9.781 -0.4265  0.1575 -0.2115
12100W        W27909   7.663  12.609   0.987 -0.1276  0.2265 -0.1514
12101W        W27910  14.023  13.575   3.365 -0.0452 -0.1477  0.2110
12102W        W27911   9.832  10.491  11.886 -0.1572  0.1543 -0.0270
12103W        W27912   5.408   0.223   3.915 -0.1064  0.1541  0.0999
12104W        W27913   0.208  14.397  12.212 -0.0260  0.1186  0.1589
12105W        W27914  10.687   3.201   2.712 -0.3811 -0.2107 -0.0932
12106W        W27915  12.299   1.017  10.631 -0.1546 -0.1776  0.1018
12107W        W27916  11.548  17.515   0.671 -0.1752  0.1476  0.1807
12108W        W27917   5.389  17.752  13.942 -0.0080  0.1829 -0.0357
12109W        W27918  17.236   1.324  14.323 -0.5287 -0.3034 -0.2231
12110W        W27919   8.850  18.597  15.031  0.2319  0.2796  0.3317
12111W        W27920  14.962  10.695   0.770  0.1754  0.0374 -0.2117
12112W        W27921  16.035   7.819   9.732 -0.1685  0.1196  0.0972
12113W        W27922   7.954  15.198   0.949 -0.0301  0.2904  0.0216
12114W        W27923   5.572  16.541  12.092 -0.0473 -0.2738 -0.1033
12115W        W27924   4.232   1.860  14.391 -0.1675  0.0879 -0.1578
12116W        W27925  16.387   9.308  12.610  0.1873 -0.0029 -0.2202
12117W        W27926   3.175  16.632   3.103  0.1485 -0.0179  0.2415
12118W        W27927   5.271  18.312  10.309  0.0345  0.2210  0.1768
12119W        W27928   5.306   9.305   3.127 -0.2887  0.1074  0.0868
12120W        W27929   7.780  17.037  12.215 -0.0921 -0.0204 -0.1961
12121W        W27930   7.061  11.960   2.316 -0.1000  0.1233 -0.2493
12122W        W27931   9.827  18.067   1.824 -0.0102  0.2606  0.0811
12123W        W27932  14.905   0.018   3.439  0.0230  0.0932  0.0633
12124W        W27933   8.178   0.026   4.327  0.3670 -0.0397 -0.0106
12125W        W27934   4.796  16.270   1.554 -0.0520  0.1644 -0.1336
12126W        W27935  13.408   1.040  13.717 -0.0904 -0.2905 -0.1578
12127W        W27936   3.573   0.826  13.118  0.1171  0.1184 -0.0026
12128W        W27937   6.218   9.055   1.648  0.1118 -0.3796 -0.1737
12129W        W27938   1.841   6.761   5.136 -0.3501  0.0170 -0.0263
12130W        W27939  13.026   7.538  15.085  0.0080 -0.1084  0.0972
12131W        W27940   0.169  12.612  10.066  0.2043  0.2309 -0.2614
12132W        W27941  10.146   4.867   2.438 -0.0900 -0.1919 -0.1617
12133W        W27942  13.762   8.967   2.776  0.0777  0.2877 -0.1494
12134W        W27943  15.741   7.196   4.957  0.2297 -0.1623  0.1984
12135W        W27944  12.421   3.364  13.993 -0.0692  0.0318  0.1531
12136W        W27945   2.508  14.612   1.918  0.1618  0.0778 -0.2228
12137W        W27946   6.248   4.291  14.178 -0.1284 -0.3777  0.3546
12138W        W27947   1.653   1.777   2.958 -0.0892  0.1643  0.0021
12139W        W27948  16.669  14.566  13.892 -0.0251  0.1195  0.0336
12140W        W27949   6.655   3.381  14.819  0.1511 -0.1341  0.1592
12141W        W27950   5.927  18.062  12.736 -0.0524  0.0992 -0.4865
12142W        W27951  17.356   7.449  11.070 -0.0583 -0.2703 -0.2402
12143W        W27952  17.320  13.749   1.409  0.1098  0.0510 -0.0161
12144W        W27953  16.908   6.309   0.190  0.1015 -0.2748  0.0212
12145W        W27954   8.128   9.786   4.213  0.0182  0.2299  0.1031
12146W        W27955  12.541   0.771  12.256  0.1336  0.0212  0.2974
12147W        W27956   4.639   6.270   1.543  0.1083 -0.0396 -0.4615
12148W        W27957  18.797  16.212  13.002  0.1435  0.1776  0.1143
12149W        W27958   4.295  13.807   1.155  0.1376 -0.1164  0.0350
12150W        W27959   8.001  12.167   1.853 -0.0678 -0.1064  0.1051
12151W        W27960   6.015  12.661  10.489  0.1374 -0.1990  0.0428
12152W        W27961   9.304  17.717   2.926  0.1664 -0.1528 -0.1401
12153W        W27962   5.948  15.640   1.397  0.0889 -0.3399 -0.1005
12154W        W27963   7.725   4.804   0.779 -0.1746  0.1220 -0.2020
12155W        W27964   0.307  11.296  12.537  0.1465  0.0449  0.2422
12156W        W27965   9.549  13.051  14.280  0.2015 -0.3114 -0.0227
12157W        W27966  17.133   5.666   2.029  0.2710 -0.4353 -0.1381
12158W        W27967  18.090   6.785   1.162 -0.1432 -0.1604 -0.0601
12159W        W27968   6.356  14.685  15.012  0.2546  0.0900  0.0450
12160W        W27969  12.653   1.587   1.558 -0.0714  0.2897  0.0789
12161W        W27970   7.194  14.993  10.779 -0.0300 -0.1117 -0.1593
12162W        W27971  17.366  17.718   4.070 -0.0918 -0.0066  0.1161
12163W        W27972   6.055   7.624  15.180 -0.2119 -0.0743 -0.2725
12164W        W27973   3.445   5.453   0.767 -0.1276  0.2194  0.0505
12165W        W27974  18.305  11.186  13.981 -0.1138  0.0930  0.3387
12166W        W27975  14.565  13.830   0.445  0.2209 -0.0310  0.1977
12167W        W27976  10.027  13.028   2.102  0.2151  0.3652 -0.0753
12168W        W27977   3.756  15.378  13.638 -0.1916 -0.1385  0.1013
12169W        W27978  12.827   3.067   3.188 -0.1653  0.1903  0.1157
12170W        W27979  17.158   8.775   1.669  0.3138 -0.0480 -0.2092
12171W        W27980   6.624  14.688   1.153 -0.2378  0.0028 -0.2486
12172W        W27981  12.407  10.332  11.905  0.1198  0.1731 -0.2008
12173W        W27982   1.008  13.325   2.240 -0.1487  0.3825 -0.0334
12174W        W27983  15.437  13.602  12.636  0.0440 -0.1374  0.2060
12175W        W27984   9.108   2.964  12.388 -0.1145 -0.0884 -0.1101
12176W        W27985  11.994   6.228  14.131  0.1171  0.0564  0.4176
12177W        W27986   5.916  13.336  14.716 -0.1382 -0.2739  0.4550
12178W        W27987   3.391   6.079   1.534 -0.1221  0.0005  0.1754
12179W        W27988   7.080  12.509   2.420 -0.0327 -0.1386 -0.0930
12180W        W27989  10.427   5.709  10.540 -0.2082 -0.1897 -0.0394
12181W        W27990  11.797   1.006   2.537  0.4347  0.0280 -0.2663
12182W        W27991   0.714  10.492   2.929  0.2057  0.3143  0.1741
12183W        W27992  16.625   1.593   0.120  0.0734 -0.0518 -0.0528
12184W        W27993   4.107   5.486  11.475 -0.1959  0.0273 -0.3031
12185W        W27994   3.473   2.808  13.096 -0.3019 -0.0213 -0.1617
12186W        W27995   6.778   1.629   3.301  0.2053  0.4959  0.0985
12187W        W27996  18.496  12.054   1.630  0.0392 -0.0912 -0.2092
12188W        W27997   3.772   5.177   3.305  0.1380 -0.4998 -0.0330
12189W        W27998   2.234  11.458  15.160 -0.4585 -0.3549  0.1427
12190W        W27999   4.741  13.164   4.935 -0.0451 -0.0665  0.0422
12191W        W28000   0.882   7.419  14.278 -0.0078  0.1284 -0.2896
12192W        W28001  13.332   6.546   2.432 -0.1097 -0.1786 -0.0392
12193W        W28002  10.135   4.669   4.973  0.1762 -0.0517  0.0031
12194W        W28003   4.122  12.515  12.016  0.4846 -0.1794  0.2755
12195W        W28004   4.925  10.894  14.045 -0.1402  0.3004 -0.2996
12196W        W28005  17.562  15.792   1.806  0.0052  0.0347 -0.0874
12197W        W28006  17.386   6.842   4.394 -0.1154 -0.0109 -0.0586
12198W        W28007  13.122  14.334  10.252 -0.2493 -0.1385  0.0440
12199W        W28008   2.740  10.439  12.783 -0.2627  0.1217 -0.0052
12200W        W28009   7.103  17.434  14.884 -0.0858 -0.0395 -0.0122
12201W        W28010  14.193   7.262   5.278 -0.1468 -0.0113 -0.0519
12202W        W28011  14.850  16.535  10.918 -0.1462  0.1252  0.1557
12203W        W28012  13.279   4.976   3.561 -0.0856  0.0899 -0.1421
12204W        W28013   4.193  13.326  14.378 -0.0704 -0.0245 -0.3987
12205W        W28014   3.852   8.193   9.601 -0.0070  0.0058 -0.1215
12206W        W28015   7.640   6.517   4.627 -0.1599 -0.0247  0.4501
12207W        W28016  11.836  10.775  13.793  0.1164 -0.3072 -0.2459
12208W        W28017   5.583   5.246   4.593 -0.1995  0.2016  0.2087
12209W        W28018   6.576   9.568  15.077 -0.1454  0.2751  0.0210
12210W        W28019   6.639   1.196   0.650 -0.1093  0.0758  0.3645
12211W        W28020   8.111   0.147  13.893 -0.0095 -0.1433  0.2944
12212W        W28021  17.703  12.146   4.138 -0.1532  0.2061  0.1606
12213W        W28022   8.952  14.383   4.157 -0.0512  0.2016  0.0690
12214W        W28023   5.921   4.248   3.115 -0.1336  0.0886 -0.1120
12215W        W28024  16.408   4.409  14.516 -0.1174 -0.3024  0.1091
12216W        W28025   9.340   7.190  11.185  0.4054 -0.1237 -0.0712
12217W        W28026   3.099  11.470  12.576 -0.1687  0.2716  0.0650
12218W        W28027  11.279   5.193  12.656 -0.3901 -0.0135 -0.1031
12219W        W28028  16.044   6.293  14.391 -0.1214  0.1335 -0.1205
12220W        W28029  18.494  14.263   0.180  0.1915  0.1589 -0.0406
12221W        W28030   4.748   6.401  10.813  0.1516 -0.3760  0.2091
12222W        W28031   9.114   8.824  14.999  0.1067  0.3361 -0.0981
12223W        W28032   1.840   2.492  12.675 -0.0989 -0.2944 -0.0655
12224W        W28033  13.646  11.877   0.162 -0.1417  0.0800 -0.1320
12225W        W28034   4.275   4.968  13.252 -0.0171  0.0827  0.0017
12226W        W28035  12.028   4.603  15.139 -0.0209  0.0521 -0.1973
12227W        W28036   2.889  11.223   3.623 -0.2716  0.0664 -0.1448
12228W        W28037  18.840  14.841  14.767 -0.2101 -0.0795  0.0062
12229W        W28038  17.983   0.339   0.990 -0.1784  0.0822  0.0690
12230W        W28039   3.601   5.444  11.558  0.2025  0.1201 -0.1646
12231W        W28040  14.662   4.162  11.028  0.4500  0.0861  0.2489
12232W        W28041   0.216   3.593   1.590 -0.2254  0.0884 -0.0456
12233W        W28042  13.813   0.370  11.853  0.0547  0.1644 -0.3195
12234W        W28043   8.436  18.141  12.229 -0.1523  0.0751 -0.0049
12235W        W28044   6.184  15.968  13.333 -0.2593  0.1787  0.4338
12236W        W28045  12.333   2.997   1.198 -0.3030 -0.0111 -0.0610
12237W        W28046  18.142  10.324  13.828 -0.1599 -0.3142 -0.1151
12238W        W28047  18.581  11.331   3.545 -0.3060 -0.1112  0.2121
12239W        W28048   8.398  16.692   2.339  0.0074 -0.2960  0.1283
12240W        W28049  16.833   9.216  12.218  0.0096  0.2359  0.3355
12241W        W28050   8.559  15.229  10.275 -0.0263  0.1793  0.1226
12242W        W28051  10.436  18.346   0.999  0.0318 -0.2405  0.2357
12243W        W28052  13.329   8.598   1.693  0.1098  0.0713 -0.1520
12244W        W28053   4.097   6.408   3.991  0.1182 -0.0643  0.1118
12245W        W28054  16.026   9.100  11.256 -0.0022 -0.3443 -0.1832
12246W        W28055   5.000  10.118   2.713 -0.1845  0.0272  0.0470
12247W        W28056  18.136   2.640   0.896  0.0245 -0.1587 -0.1867
12248W        W28057  12.680  17.287  14.229  0.0821  0.0730  0.3771
12249W        W28058   3.201  16.952   1.479  0.2078  0.4433  0.1978
12250W        W28059   3.696   6.218   3.363 -0.1061 -0.1165 -0.1561
12251W        W28060  18.449  15.389   4.138  0.1407  0.0632 -0.4445
12252W        W28061  10.434   6.950   2.861 -0.1725  0.1338 -0.0892
12253W        W28062  16.639  13.191  11.292 -0.0541 -0.2685 -0.1133
12254W        W28063  18.177   8.194   2.633 -0.1191 -0.2336 -0.0927
12255W        W28064  16.141   8.546   0.064  0.0175  0.0062  0.3047
12256W        W28065  13.955   1.516  11.197  0.0955  0.1426  0.1018
12257W        W28066  12.465   5.750   1.906 -0.2682 -0.3366 -0.1847
12258W        W28067   3.603   7.269  14.444 -0.1559 -0.0573 -0.1196
12259W        W28068   6.888  16.516  10.255  0.1057  0.3092  0.1709
12260W        W28069   1.279   3.506   3.942 -0.0233  0.3287  0.0179
12261W        W28070  13.265  13.262   3.664 -0.3076 -0.1456 -0.4950
12262W        W28071  13.606  13.648  15.220  0.3693 -0.3940  0.0346
12263W        W28072  18.282  12.318  13.432  0.0643  0.1040  0.0941
12264W        W28073   7.111   1.547  14.049  0.0077  0.2785  0.1376
12265W        W28074   3.843  11.031  12.076 -0.1908 -0.1589  0.1598
12266W        W28075  10.508  14.774  13.570 -0.1111  0.0987  0.0790
12267W        W28076  12.032  17.374   5.204  0.3001  0.3347  0.1343
12268W        W28077  13.542   1.150   2.397  0.0068  0.3459 -0.1091
12269W        W28078  14.857   8.547  11.120  0.2803 -0.1972  0.0701
12270W        W28079   1.576   2.447   1.859  0.2554  0.0048 -0.0892
12271W        W28080   9.230  10.779  14.425  0.1857 -0.0926  0.3578
12272W        W28081   6.443   2.878  11.348  0.1577  0.0181 -0.1677
12273W        W28082   2.733  13.813   2.662  0.2958 -0.0818 -0.2944
12274W        W28083  18.879   3.544   4.916  0.1088 -0.0372  0.0341
12275W        W28084  18.542   2.473  11.921  0.2749  0.0221  0.1249
12276W        W28085  10.298   7.358   0.831 -0.0686  0.1286  0.5198
12277W        W28086   7.643  18.345  10.530  0.1497 -0.0354  0.2690
12278W        W28087  11.397   3.347   0.274  0.2638  0.0482  0.1644
12279W        W28088  14.674  13.268   3.765  0.0565 -0.3316 -0.2710
12280W        W28089  15.960  13.546  11.235  0.0549  0.0868 -0.1986
12281W        W28090  14.546   3.059   4.228  0.0576  0.1083  0.1483
12282W        W28091   8.624  12.781   2.344 -0.0645  0.0868 -0.3217
12283W        W28092   1.662  18.933  11.257  0.0689 -0.0269 -0.1871
12284W        W28093   5.755  18.235  15.214  0.0449  0.1570 -0.2854
12285W        W28094   9.262   9.167   2.099 -0.3106  0.2528 -0.0123
12286W        W28095  17.147   8.931   2.158  0.0190  0.2003  0.2736
12287W        W28096   3.444   8.757  12.486  0.2472  0.2865  0.1492
12288W        W28097   5.179   3.172   1.558  0.1958 -0.2878  0.3019
12289W        W28098   9.471  18.845   2.238 -0.0939  0.0330  0.2380
12290W        W28099  18.287  10.340  10.749 -0.0326 -0.0531  0.0743
12291W        W28100  14.316   2.971   3.758 -0.4418 -0.4108  0.2179
12292W        W28101  14.648   3.460  12.840 -0.0951  0.0593  0.0709
12293W        W28102  13.576  11.053   3.440 -0.0010 -0.1706  0.2155
12294W        W28103   6.774   4.028  10.345 -0.0430 -0.1012  0.0981
12295W        W28104   8.427  14.367   1.457  0.2121 -0.1161 -0.1604
12296W        W28105  15.638   3.857  14.233 -0.0791  0.1106 -0.2809
12297W        W28106  11.435  10.545   4.693 -0.1503 -0.0325  0.0626
12298W        W28107  14.183   1.191  13.652 -0.2661  0.1141 -0.1558
12299W        W28108   0.432  10.398   2.183 -0.0239  0.5261 -0.4234
12300W        W28109   9.521   2.984   9.582  0.2560  0.0541  0.1678
12301W        W28110   6.020   5.138   1.664  0.0308 -0.0564  0.3665
12302W        W28111   1.404   5.561   4.835  0.0139  0.0109 -0.2730
12303W        W28112   2.197  10.483   4.973  0.2873  0.1518 -0.0804
12304W        W28113   2.657  18.645   1.136  0.3248 -0.3049 -0.0629
12305W        W28114   5.637   2.034  10.947  0.1509 -0.2417 -0.1431
12306W        W28115   7.113   3.059   4.784 -0.0876 -0.1293 -0.2087
12307W        W28116   6.792   1.375   3.784 -0.1801 -0.0537  0.0735
12308W        W28117  18.377   2.486  11.331 -0.0823  0.0248 -0.0855
12309W        W28118  15.232   0.617   4.179  0.1720 -0.3536 -0.1183
12310W        W28119  14.297   9.660  14.205 -0.1454 -0.0837 -0.2505
12311W        W28120   5.141   2.292  14.489 -0.2002 -0.1742 -0.0998
12312W        W28121  13.553   8.333   4.865 -0.0270 -0.1312 -0.0349
12313W        W28122  14.081   7.675   3.872 -0.0664 -0.0129 -0.1584
12314W        W28123  14.091   9.436  10.307  0.0767  0.1108  0.0713
12315W        W28124   0.095   5.428   2.101 -0.0779  0.3046  0.0499
12316W        W28125   9.630  12.631   4.946 -0.0168 -0.1421  0.0430
12317W        W28126  16.293  14.006  12.538  0.1122  0.0604  0.0733
12318W        W28127  14.884   6.550   3.837 -0.2281  0.0004 -0.1066
12319W        W28128  17.269  18.591  11.724  0.0106  0.0927  0.0880
12320W        W28129  18.102   2.607  14.715 -0.2197  0.0107 -0.0986
12321W        W28130   3.357   9.724   0.775  0.0895 -0.0036 -0.1527
12322W        W28131   1.131   2.189   0.312 -0.0325 -0.1408 -0.0279
12323W        W28132  18.235  15.367  12.138  0.0096 -0.2504 -0.1212
12324W        W28133  13.783  16.126   2.258 -0.0847  0.1681 -0.3810
12325W        W28134  10.501   5.307   9.749 -0.3515  0.2912  0.1664
12326W        W28135   1.770   7.640  14.901 -0.1255  0.2075 -0.2954
12327W        W28136   7.374  13.625  12.609 -0.3543  0.0358 -0.0431
12328W        W28137  18.863   0.211   2.897  0.1299  0.0500  0.1271
12329W        W28138   2.918   8.335   3.628 -0.1095  0.1499  0.1228
12330W        W28139  13.647   5.195   2.398  0.3957 -0.0655  0.3556
12331W        W28140   6.103   9.351  12.014  0.0953 -0.1442 -0.1004
12332W        W28141  13.088  17.480  12.652 -0.2291  0.1605  0.0837
12333W        W28142   1.299  14.256  10.235  0.0314 -0.0229  0.1430
12334W        W28143  17.059   4.682  10.733 -0.2885 -0.0744  0.2847
12335W        W28144   6.201   8.874   4.579  0.0361  0.1008 -0.0594
12336W        W28145  14.227  14.055   3.455 -0.2139  0.2398 -0.1464
12337W        W28146   4.080  12.456  14.797  0.1415  0.2940  0.1023
12338W        W28147  17.633  17.964  12.385  0.0876  0.1368 -0.1129
12339W        W28148  14.679   8.351  10.642 -0.0307 -0.1166  0.2511
12340W        W28149   0.642   1.721  13.716 -0.0020 -0.0262  0.0216
12341W        W28150   1.150   3.408   9.745  0.0651  0.3014 -0.0484
12342W        W28151   8.065  14.183   2.650 -0.3355  0.1722  0.4079
12343W        W28152   0.116   6.852   4.893 -0.1521 -0.0020 -0.2399
12344W        W28153  17.614  14.764   4.971 -0.3397  0.0927 -0.0916
12345W        W28154  18.148  12.262  11.420  0.0566 -0.1673  0.0577
12346W        W28155   9.660  15.784   2.252  0.3711 -0.2264  0.1966
12347W        W28156   1.732  13.686   3.794 -0.1723 -0.0124  0.0576
12348W        W28157   1.941  15.727  14.777  0.0295  0.0289 -0.0717
12349W        W28158   6.323  10.449   3.820  0.2871 -0.1989 -0.1220
12350W        W28159   7.458   5.421   4.723  0.1253 -0.4664 -0.1483
12351W        W28160  14.567  14.365  14.860 -0.1979  0.4496  0.3117
12352W        W28161   9.668  11.382   1.759 -0.1701 -0.0249 -0.0161
12353W        W28162   2.038  15.310  14.560  0.2470  0.0538  0.1247
12354W        W28163  18.793  18.911  13.346 -0.1602 -0.1993  0.1137
12355W        W28164  17.220  16.469   4.470  0.4509  0.1778  0.0602
12356W        W28165   4.588  15.438   3.624  0.1386 -0.0247  0.1447
12357W        W28166   7.622   3.202   4.895 -0.0172 -0.0210 -0.0477
12358W        W28167  12.727  15.736  12.599  0.2473  0.0419 -0.0423
12359W        W28168   6.180   8.883   4.060 -0.1547  0.1196 -0.1341
12360W        W28169  12.218  16.868  13.816  0.0536  0.0077  0.2003
12361W        W28170   2.329   1.295   1.324  0.2033 -0.0276  0.2018
12362W        W28171   8.507   6.601   1.139  0.4060 -0.0577  0.0729
12363W        W28172   1.667   9.957   0.309  0.3693  0.3495  0.0040
12364W        W28173  12.015  15.489  12.593  0.1266  0.0057 -0.0947
12365W        W28174  13.276  17.613   2.686 -0.1071  0.3107  0.3889
12366W        W28175   2.136   2.970   1.297  0.1040 -0.2166  0.2177
12367W        W28176   8.489   5.113  14.055  0.0152 -0.0385  0.1138
12368W        W28177   2.729  11.441  13.977  0.0890  0.1426 -0.2471
12369W        W28178   6.381   0.140   4.302  0.2119 -0.2620 -0.0768
12370W        W28179  15.376  17.462   2.870 -0.0733 -0.0718  0.1433
12371W        W28180  11.211   6.530   1.907  0.0066 -0.3626  0.0972
12372W        W28181  12.423  13.040  11.621  0.4236 -0.3052 -0.3710
12373W        W28182   7.922   1.912  10.389 -0.0119 -0.1531  0.2238
12374W        W28183  11.690  18.597  11.340  0.2323  0.3255 -0.1652
12375W        W28184  17.589  15.954   1.260  0.0076  0.1260  0.3473
12376W        W28185   6.496   9.423  12.632  0.1866 -0.1788  0.0947
12377W        W28186  12.405   5.318   5.906 -0.1006  0.2136 -0.3285
12378W        W28187   2.402   9.556  10.043 -0.0219  0.1021 -0.2847
12379W        W28188   9.070   2.832  11.778 -0.2801  0.3134  0.1128
12380W        W28189  11.361  15.040   0.763 -0.0049 -0.0825  0.0637
12381W        W28190   6.033  13.774   1.954 -0.1448 -0.0097 -0.0031
12382W        W28191   7.714   8.245  12.400 -0.0386  0.2167 -0.3434
12383W        W28192   0.632   6.127   0.611 -0.0595 -0.2747 -0.0958
12384W        W28193  11.735   5.305   2.908 -0.5203  0.1310 -0.1689
12385W        W28194  11.551  16.178  12.174  0.2000  0.2854 -0.3279
12386W        W28195  17.264   0.180  13.340 -0.1622 -0.0945  0.0634
12387W        W28196   9.888   2.187   3.100 -0.2401 -0.1458  0.1470
12388W        W28197   6.120  12.750  14.174 -0.0964  0.0866  0.0805
12389W        W28198   4.771  15.626   0.840  0.1182 -0.2677  0.1693
12390W        W28199   5.887   0.688   3.162  0.0390  0.2935  0.1295
12391W        W28200   5.213  13.162  12.156  0.0914  0.1161 -0.1805
12392W        W28201   9.651  15.314  14.833  0.1917  0.1500 -0.0274
12393W        W28202   2.383  11.620  11.788  0.1984  0.1758 -0.0595
12394W        W28203  14.649   7.634   3.038 -0.0319 -0.1460 -0.1140
12395W        W28204   6.926  17.658   9.788 -0.1925  0.2152 -0.0643
12396W        W28205  17.228   7.493   0.808  0.1003  0.2220  0.2273
12397W        W28206   2.845  11.804  11.928  0.1423  0.1497  0.2999
12398W        W28207   8.508   0.376   3.655  0.1621  0.1789 -0.0351
12399W        W28208   3.513   2.603   4.387 -0.1359 -0.1222 -0.0762
12400W        W28209   8.665  17.934   3.939  0.1383  0.1524 -0.0002
12401W        W28210   9.484  14.202  12.865  0.3286  0.1404 -0.2276
12402W        W28211   3.114   6.779  10.208  0.1557  0.1339  0.0111
12403W        W28212   1.513  13.106  14.639 -0.0221  0.0198 -0.0449
12404W        W28213  17.547  17.788   0.330  0.1766 -0.1375 -0.1280
12405W        W28214  13.263  11.193  13.123  0.1717 -0.2614 -0.2898
12406W        W28215   1.836  17.421   4.214  0.0019  0.1406  0.3273
12407W        W28216   8.725  12.873  11.930  0.1011 -0.2439  0.1047
12408W        W28217  17.198  10.434  14.609  0.2791 -0.3035  0.1270
12409W        W28218  11.827  11.202   3.565  0.0742  0.2339 -0.1813
12410W        W28219   6.440  10.849  13.848 -0.2571 -0.1051 -0.2272
12411W        W28220   4.799   6.980   5.004  0.0180  0.5216 -0.2198
12412W        W28221  11.145  10.169  12.799 -0.4603  0.0578  0.0610
12413W        W28222  16.131  11.503  11.889  0.0878 -0.1757 -0.1028
12414W        W28223   3.183  10.415   4.092 -0.0791 -0.0046  0.1949
12415W        W28224  11.815  15.015   4.042  0.1625  0.0483  0.3047
12416W        W28225  17.964   6.043   5.918  0.0010 -0.1908  0.0241
12417W        W28226   4.419  18.206   1.637  0.2397  0.0251 -0.0661
12418W        W28227  11.830   8.065   4.473  0.3226  0.0656  0.1226
12419W        W28228  14.613   2.286  10.458 -0.1979  0.2192  0.1378
12420W        W28229  15.816   6.366   0.261  0.2352 -0.3496  0.0638
12421W        W28230   7.230  10.768   3.562 -0.2627  0.0910 -0.1351
12422W        W28231  11.390   0.196   1.830  0.1075 -0.1299  0.1931
12423W        W28232  14.503   5.432   2.987 -0.1717 -0.0783  0.1930
12424W        W28233  14.059  12.706  12.759 -0.0457  0.0604  0.1168
12425W        W28234   8.099   3.217  13.808  0.2010  0.0285 -0.1992
12426W        W28235  10.623  10.969   0.828  0.0466 -0.1199 -0.1539
12427W        W28236  10.770   9.571  12.196  0.1932 -0.1414 -0.2549
12428W        W28237   1.658  18.961  15.206  0.0773  0.0723  0.0978
12429W        W28238  18.419  14.253   2.513  0.0598  0.1179 -0.0825
12430W        W28239  15.230  15.914   3.874 -0.0004 -0.2752  0.0933
12431W        W28240  15.468  14.769   2.503  0.1163 -0.3244 -0.1126
12432W        W28241   9.276  10.947   1.307  0.3154 -0.0152 -0.1471
12433W        W28242  16.092  12.193  10.466  0.1642  0.0894 -0.0860
12434W        W28243  17.118   6.543  11.377 -0.3216  0.1366  0.1277
12435W        W28244  17.537   7.340  12.959  0.1260  0.1797  0.0104
12436W        W28245  16.024  15.843   1.515 -0.0569  0.1562 -0.0021
12437W        W28246   2.403   1.339   9.787 -0.5159  0.1805 -0.0096
12438W        W28247  14.909   0.169  11.085  0.0110 -0.0407 -0.0206
12439W        W28248  11.112  17.605  10.063 -0.1471  0.0924  0.1553
12440W        W28249   3.909  16.423   9.425  0.2164 -0.2116 -0.1851
12441W        W28250  11.430   2.523   1.281 -0.2244  0.1697  0.0609
12442W        W28251  12.167   1.899   3.799  0.1999 -0.1167 -0.2577
12443W        W28252   1.513  17.104  13.845 -0.1005 -0.0886  0.0263
12444W        W28253   4.856   1.071   1.917  0.0647  0.0516 -0.0537
12445W        W28254   6.162  11.950  13.351 -0.0453  0.3814 -0.1258
12446W        W28255   7.051   8.649   0.048  0.1249 -0.0649  0.3169
12447W        W28256   8.115   4.173  13.593  0.1866  0.2243 -0.0002
12448W        W28257  17.417   5.713   5.158  0.1160  0.0602 -0.1439
12449W        W28258  13.120   9.983   3.115  0.0380 -0.2649  0.1038
12450W        W28259   1.585   4.879  12.363 -0.0262  0.2234  0.1836
12451W        W28260   5.229  13.621  13.272  0.0450 -0.1006 -0.1307
12452W        W28261   7.300   5.030  12.698 -0.0367 -0.0281 -0.0752
12453W        W28262   1.948  10.695   5.736  0.1069  0.2082 -0.1173
12454W        W28263   0.625   4.082   2.969 -0.0371 -0.0330 -0.1043
12455W        W28264  18.374   3.259   4.261 -0.2313  0.2520 -0.0570
12456W        W28265  12.775   2.190   4.392  0.0208 -0.0982 -0.1547
12457W        W28266   9.109  15.127   4.279 -0.1180  0.1633 -0.0077
12458W        W28267  11.122  15.667   1.359 -0.0712 -0.0585 -0.0222
12459W        W28268  11.079  12.597  14.087 -0.0013  0.1326 -0.1642
12460W        W28269   4.660   2.011   1.466 -0.2336 -0.2320 -0.0521
12461W        W28270   1.133   1.746  10.853  0.4566 -0.0932 -0.0573
12462W        W28271   5.044  18.006   2.392 -0.2746 -0.0114  0.1584
12463W        W28272   8.297   8.992   4.525 -0.0620 -0.1173 -0.1049
12464W        W28273   3.157  12.612   0.697 -0.3708 -0.1683 -0.0231
12465W        W28274   9.219  16.504   3.535  0.2002 -0.1043  0.2312
12466W        W28275   1.761   1.263  11.323 -0.3965 -0.0934  0.1517
12467W        W28276   8.748  11.743  13.958  0.2665 -0.0018 -0.0262
12468W        W28277   9.373   5.998   4.157  0.2514 -0.0855  0.1978
12469W        W28278   1.468   9.597   3.861 -0.0203 -0.2439  0.2663
12470W        W28279  13.961   1.038   0.122 -0.1320  0.2080  0.3247
12471W        W28280   7.119   8.361  13.515 -0.3139 -0.1906 -0.0570
12472W        W28281   4.169   1.631   1.463 -0.1569  0.0805 -0.0626
12473W        W28282  13.247  12.715  10.469 -0.2403  0.0607 -0.2821
12474W        W28283   8.034   7.947  13.217 -0.3277 -0.0057 -0.0724
12475W        W28284  17.140   9.820  11.117 -0.0949  0.0079  0.0333
12476W        W28285   5.718  12.771   2.896  0.0761  0.1459 -0.1232
12477W        W28286   2.845   7.823   3.780  0.1828  0.1006 -0.1520
12478W        W28287   2.974   5.062  11.897 -0.2570  0.1509 -0.0841
12479W        W28288  11.168   5.251   3.481 -0.0101 -0.4923 -0.2542
12480W        W28289  17.154   3.425  11.111 -0.0473 -0.0864  0.0437
12481W        W28290   2.308   3.872  11.598 -0.1767  0.0947 -0.0945
12482W        W28291   8.719   6.269  14.196 -0.4120  0.0187  0.0079
12483W        W28292   1.715   9.396  14.006  0.1774  0.1232  0.2501
12484W        W28293  13.370   2.686   4.863 -0.1044 -0.1295 -0.0155
12485W        W28294  12.649   6.452   3.695  0.2172  0.0705  0.3695
12486W        W28295  14.479   3.544   3.651  0.0536  0.3520  0.2060
12487W        W28296   4.134   8.816   2.993 -0.0103 -0.5010 -0.1214
12488W        W28297   3.461   7.388  12.808  0.0042  0.1506  0.0937
12489W        W28298  18.214  17.724   5.849 -0.1864  0.0712 -0.5311
12490W        W28299   6.409   4.900  12.275  0.4721 -0.2142  0.1761
12491W        W28300  15.078  14.517   0.340  0.0412 -0.2928  0.2478
12492W        W28301  13.869  12.382   2.510  0.0660  0.1552  0.2809
12493W        W28302   7.156   6.681  10.487  0.1625  0.0468 -0.3001
12494W        W28303  15.677  16.867   5.742 -0.0595 -0.0377 -0.2850
12495W        W28304   2.528  16.229   3.533  0.2957  0.2554  0.0126
12496W        W28305  17.859   7.248  11.175  0.0701 -0.3249 -0.0123
12497W        W28306  18.559  17.079   3.083 -0.1822  0.1111 -0.3069
12498W        W28307   4.149  13.661  14.038  0.1218 -0.1016 -0.2783
12499W        W28308   3.968   1.190   4.616  0.0460  0.1827 -0.0174
12500W        W28309   1.547  18.026   1.335  0.0771  0.2050  0.0332
12501W        W28310  16.002  15.868  15.097 -0.1136 -0.0892 -0.1601
12502W        W28311   0.480   4.170  13.959 -0.1523 -0.1245  0.1322
12503W        W28312  11.032  12.264  15.089 -0.3900 -0.1151 -0.3218
12504W        W28313   3.666  15.497   1.423 -0.0888  0.1491 -0.3253
12505W        W28314  14.148   4.894   1.046 -0.2406 -0.2167  0.1764
12506W        W28315   3.132   2.570  12.691  0.1263  0.0097 -0.0289
12507W        W28316  15.125   4.708   4.285 -0.0218 -0.1128  0.3701
12508W        W28317   4.476  15.575  11.841  0.1513  0.1834 -0.0560
12509W        W28318   3.982   1.900   4.133  0.5193  0.3123  0.2882
12510W        W28319   9.020  15.325  12.168  0.4055  0.1805  0.1683
12511W        W28320   2.461  12.369  13.630 -0.4480  0.1104  0.0339
12512W        W28321  13.580  10.821   5.499 -0.0535  0.1800  0.1900
12513W        W28322   1.202  14.904   3.771 -0.0977 -0.1866 -0.2028
12514W        W28323   2.037  10.194   3.118 -0.1236  0.1037 -0.1400
12515W        W28324  18.685   9.339   1.904  0.0157  0.0508 -0.0995
12516W        W28325  15.481  18.534   0.439 -0.0859  0.2839 -0.0701
12517W        W28326  14.820   2.165   3.625  0.1302  0.3310  0.3334
12518W        W28327   2.369   3.102  12.255 -0.0396 -0.0027  0.1519
12519W        W28328  17.527  10.344   3.117 -0.0144 -0.1106 -0.1311
12520W        W28329  10.120   0.824  14.158  0.0330  0.0913 -0.0530
12521W        W28330  11.356  15.217  13.364 -0.0850 -0.2932  0.1782
12522W        W28331  15.200   7.250  11.839 -0.0924  0.4359  0.2120
12523W        W28332  10.189  17.952  14.912 -0.1498  0.1756  0.0448
12524W        W28333   6.595  12.475   9.882  0.2178 -0.1059 -0.0619
12525W        W28334  11.715   8.261   2.132  0.2621 -0.1494  0.3357
12526W        W28335  15.639  12.016  14.370  0.1638  0.2289  0.3788
12527W        W28336  16.813   8.935   2.517 -0.3815  0.0825  0.1271
12528W        W28337  11.475   3.638   5.124  0.1462  0.2565 -0.1084
12529W        W28338   0.817  14.127   0.149  0.4112  0.0143 -0.1299
12530W        W28339   1.538  13.007   0.303 -0.1838  0.2076 -0.1398
12531W        W28340   4.056  10.559  11.404 -0.1368  0.0054 -0.0098
12532W        W28341  17.522  14.381   5.345  0.1699  0.2177 -0.0015
12533W        W28342   8.013   9.983   3.717 -0.3581 -0.2961 -0.1513
12534W        W28343   2.449   0.432  12.327 -0.2291 -0.1254 -0.0434
12535W        W28344  18.295  12.611   1.034  0.0315 -0.1934  0.5847
12536W        W28345   0.698  12.798  11.601  0.2504 -0.0245  0.1246
12537W        W28346   5.886   8.042  13.703 -0.3319 -0.1387  0.2470
12538W        W28347   8.097  10.052  13.782 -0.1688 -0.0633 -0.0115
12539W        W28348   1.305  10.415   0.407 -0.0911  0.1766  0.1343
12540W        W28349  17.909   2.599   2.498 -0.1434 -0.0026  0.1415
12541W        W28350   1.775   9.461   2.592 -0.1971 -0.0428 -0.1368
12542W        W28351   8.926   6.645  13.946  0.0427 -0.0593  0.3404
12543W        W28352   0.907  17.971  11.940 -0.4843 -0.0905 -0.2195
12544W        W28353  10.143   7.133  10.033  0.1850  0.1111 -0.0653
12545W        W28354  11.155  10.843   2.648  0.1005 -0.1116  0.0691
12546W        W28355   6.629  15.998   0.950 -0.0535 -0.2336  0.0698
12547W        W28356  13.702  18.982  11.288  0.0366 -0.0299  0.0821
12548W        W28357  14.569   7.621   1.954 -0.3553 -0.1889  0.0415
12549W        W28358  16.890  15.614   5.010  0.0660 -0.0555  0.0507
12550W        W28359  15.680  11.744  10.955 -0.0892  0.2206 -0.0070
12551W        W28360  14.766   2.123  13.231 -0.0313  0.2630 -0.0952
12552W        W28361   3.136   0.787   4.723 -0.0776 -0.1042 -0.2344
12553W        W28362   9.994   4.952  13.003 -0.0256 -0.0737  0.2172
12554W        W28363  10.838  11.262  15.200  0.0768 -0.2902  0.0828
12555W        W28364   0.278  13.866  12.605 -0.1146  0.1677 -0.1141
12556W        W28365   9.523  12.178  13.824  0.1469 -0.0295  0.0114
12557W        W28366   6.122   1.305   4.457 -0.1884 -0.3301 -0.2027
12558W        W28367  14.578  16.740   3.565  0.2052 -0.0906  0.1496
12559W        W28368   2.081   1.917   4.852  0.2001 -0.1591  0.0366
12560W        W28369  13.313  12.130  14.387  0.3824 -0.1149 -0.0645
12561W        W28370   0.123  13.298   4.890  0.0748 -0.3113 -0.0466
12562W        W28371   3.552  11.994  11.566  0.1476  0.2068 -0.0452
12563W        W28372   3.936  10.235   3.581 -0.3498 -0.1431 -0.1538
12564W        W28373  17.265   7.065   1.039  0.1745 -0.1407 -0.1127
12565W        W28374  16.435   8.236  14.360 -0.0025  0.3700  0.0646
12566W        W28375   2.721  13.792  13.649  0.1020 -0.1718 -0.2810
12567W        W28376   3.798   9.394   3.628  0.0653  0.0941  0.2018
12568W        W28377  16.786  11.377  13.397  0.0894 -0.0466 -0.0358
12569W        W28378   9.127  18.330  11.430 -0.1172 -0.0970  0.2905
12570W        W28379  11.277   6.583   1.427  0.2832  0.0760 -0.0309
12571W        W28380   3.439   1.733  14.090  0.1105 -0.1923 -0.0224
12572W        W28381  17.739  18.860   4.412  0.3210 -0.1676 -0.0189
12573W        W28382   3.127  13.120   0.809  0.3494 -0.1986  0.0563
12574W        W28383   8.804  16.608  11.152  0.2478 -0.0285 -0.0249
12575W        W28384   3.531  12.651   3.511 -0.3439 -0.1773 -0.0381
12576W        W28385  12.461   6.083  12.836 -0.0656 -0.1932 -0.1157
12577W        W28386  16.553  15.539  12.135  0.0531 -0.3182  0.0525
12578W        W28387   3.092   1.691   2.559 -0.2790  0.2448  0.1125
12579W        W28388   0.603   1.464  14.139 -0.0316 -0.0558  0.3786
12580W        W28389  16.946  15.319  11.783 -0.0042 -0.0993 -0.0116
12581W        W28390  13.316   1.271   1.276  0.1405  0.0452 -0.2887
12582W        W28391  18.677   7.122   4.196  0.2505  0.0388  0.0129
12583W        W28392  10.861   3.027  11.929 -0.1565 -0.2830  0.0573
12584W        W28393  18.206   3.908   2.333 -0.0263 -0.1890 -0.3150
12585W        W28394  10.584  10.403   3.558  0.0256 -0.2251  0.1858
12586W        W28395   1.604  10.425  14.140  0.1757 -0.3174 -0.1215
12587W        W28396  12.220  18.766  14.681  0.3248  0.4033 -0.0941
12588W        W28397   7.570  15.482   0.270 -0.0414  0.1136  0.0295
12589W        W28398   5.683   8.980  13.586  0.3924  0.0642 -0.5339
12590W        W28399   0.138  15.163   5.577 -0.4110 -0.1815 -0.0876
12591W        W28400   3.137  11.981   2.682  0.3235 -0.1396  0.1386
12592W        W28401   6.228  15.904  11.985 -0.0369 -0.1892 -0.1327
12593W        W28402   0.332  11.949  11.896  0.0481  0.1616 -0.0319
12594W        W28403  18.535   1.229  11.361  0.1550 -0.2858  0.0569
12595W        W28404  15.784  16.298   1.343  0.4454  0.0215 -0.1027
12596W        W28405   0.194  18.606   2.974  0.4136  0.0292 -0.0423
12597W        W28406  16.171   5.383  12.957  0.1514  0.0864  0.0908
12598W        W28407   4.901  16.417   4.257  0.2292  0.0224 -0.1279
12599W        W28408  10.547  18.519  15.047 -0.0528 -0.2128 -0.0077
12600W        W28409  18.523  16.608   3.196  0.1012 -0.2700  0.0160
12601W        W28410  16.682   1.882  12.476  0.0254  0.0036 -0.1285
12602W        W28411   4.367   5.208   4.646 -0.1631  0.0793 -0.1700
12603W        W28412   9.204   6.876  10.636 -0.0245  0.1139  0.0022
12604W        W28413  11.197   6.245   1.040 -0.0654  0.2417 -0.0323
12605W        W28414  13.123  14.681   0.988 -0.2456 -0.3104  0.0512
12606W        W28415  10.665  11.275   2.693 -0.1517  0.0517 -0.1485
12607W        W28416   5.562   3.864   2.151 -0.0379  0.0470  0.2658
12608W        W28417  14.334  13.399   2.955 -0.0282  0.2336 -0.1809
12609W        W28418   5.053   1.461   3.766  0.0563  0.0146  0.1006
12610W        W28419  13.242  11.366  11.282  0.0128 -0.3580  0.4137
12611W        W28420  10.459  17.427  12.701 -0.3368  0.0495 -0.3414
12612W        W28421   9.111   1.515  11.290 -0.0412 -0.1225  0.0499
12613W        W28422   9.433   3.627   0.367 -0.1730 -0.0797 -0.2405
12614W        W28423  10.082   2.311   0.715  0.1863  0.3292  0.0076
12615W        W28424   0.060  12.472  13.014  0.1298  0.1936  0.2736
12616W        W28425  15.235   8.197  12.263  0.0283 -0.1271 -0.0114
12617W        W28426  16.937   7.214   5.132 -0.0157 -0.0603  0.0680
12618W        W28427  12.229   0.011  12.092  0.1521  0.0164  0.2555
12619W        W28428   3.702  11.733  13.653  0.0749  0.4319 -0.0773
12620W        W28429  16.906   0.742   4.105 -0.3343 -0.0638  0.3427
12621W        W28430   7.623  14.316  13.471 -0.3297  0.0142 -0.0995
12622W        W28431   8.320   2.482   4.062 -0.1700  0.3516 -0.3578
12623W        W28432  18.476   7.223  13.806  0.2946 -0.0261  0.2455
12624W        W28433   7.053  11.082   2.676  0.2188 -0.4245 -0.0604
12625W        W28434  12.629   6.391  14.907  0.2727 -0.1770 -0.1344
12626W        W28435   9.675  10.548   3.151 -0.0029 -0.0925 -0.1741
12627W        W28436   7.730   9.917   4.542  0.0799 -0.1403  0.2079
12628W        W28437  14.734   8.936  15.127  0.0663  0.2671  0.1115
12629W        W28438   4.228  11.865   2.739  0.4111 -0.1236 -0.0249
12630W        W28439   1.306   2.015  11.240 -0.0485 -0.2820 -0.3369
12631W        W28440  14.352   4.296   4.912  0.0309 -0.1375 -0.2520
12632W        W28441   6.156   9.806  12.393  0.2173 -0.2571 -0.2123
12633W        W28442  11.902  14.022  14.768  0.0235 -0.1414  0.1605
12634W        W28443   9.418  15.736   9.560 -0.3390 -0.1777  0.2327
12635W        W28444  18.894   4.219   1.167 -0.0487  0.0414  0.1218
12636W        W28445  13.103   6.012  11.477  0.0512  0.2436 -0.2283
12637W        W28446   6.858   6.309   2.677 -0.0883 -0.0724 -0.3940
12638W        W28447   5.318   9.981  12.739 -0.0285  0.1486  0.2104
12639W        W28448   6.696   1.280  11.689 -0.0491 -0.0719  0.0520
12640W        W28449  17.130  17.670   0.049 -0.4104  0.1286  0.1286
12641W        W28450  10.036  17.004   2.037 -0.2015 -0.2616 -0.1270
12642W        W28451   5.419   2.952   4.409  0.3137  0.2472  0.0276
12643W        W28452  10.747   0.028   3.181 -0.2486 -0.0314  0.0850
12644W        W28453   9.700  15.349   0.335  0.0166 -0.1596 -0.2434
12645W        W28454   6.948   4.810   4.699  0.0023  0.1185  0.1132
12646W        W28455  14.313  18.014   4.207  0.1573  0.1180 -0.2982
12647W        W28456   6.622   9.417   5.200  0.0867 -0.0594  0.0641
12648W        W28457   4.037  15.939   2.192  0.4482  0.0957 -0.1917
12649W        W28458  12.283   3.145  14.417  0.2252  0.3015 -0.0542
12650W        W28459   7.761  12.900  13.348  0.1366 -0.0964  0.2016
12651W        W28460  11.826  17.561  13.728  0.0928 -0.0392  0.0471
12652W        W28461  18.981  11.296  13.195  0.2556  0.1617  0.0480
12653W        W28462   0.756   3.712   4.215  0.1462  0.1541  0.0774
12654W        W28463   7.217  13.403   3.358 -0.1765 -0.6455 -0.0880
12655W        W28464   2.807  16.665  10.778 -0.1996  0.3254  0.0917
12656W        W28465  13.218   4.830   4.548  0.0574  0.1371  0.1198
12657W        W28466   9.320  17.239  13.749  0.4760 -0.1269 -0.2124
12658W        W28467  13.524  16.200  11.665 -0.2244  0.1840 -0.0132
12659W        W28468   1.665   9.362   4.921  0.0242  0.2257  0.0709
12660W        W28469  17.776   0.246  13.308 -0.0985  0.1531  0.1257
12661W        W28470   9.198  10.790   3.368 -0.4114 -0.3265 -0.1520
12662W        W28471   8.711  18.982  14.725 -0.1315 -0.0129 -0.1330
12663W        W28472  15.988   5.280   3.229 -0.0940  0.1722  0.2024
12664W        W28473  12.932  18.719  13.233 -0.0869 -0.3334 -0.2149
12665W        W28474   4.846   0.165   3.889 -0.2830  0.0036 -0.0842
12666W        W28475  13.341  12.980  14.714  0.0867  0.0560  0.0870
12667W        W28476   8.003   3.115  10.478  0.0453 -0.2265 -0.0635
12668W        W28477  10.241   2.570   4.266  0.1104 -0.0161  0.3314
12669W        W28478  11.003  11.915  12.864  0.0441 -0.3421  0.0038
12670W        W28479   5.638  10.947   3.834 -0.0724  0.0251 -0.2218
12671W        W28480  16.077  18.377   4.080 -0.1223 -0.2143 -0.0648
12672W        W28481   8.845   2.849   1.813 -0.0644  0.0245  0.0682
12673W        W28482  11.421   9.888  11.495  0.2113 -0.2265  0.1900
12674W        W28483  18.365   6.758   2.392 -0.1892 -0.3323 -0.0164
12675W        W28484  18.368   0.004   3.241 -0.4237 -0.0509  0.2593
12676W        W28485  16.418  18.216   2.329  0.0072 -0.2599 -0.3074
12677W        W28486   8.898   6.378  12.998 -0.0835 -0.2299  0.0521
12678W        W28487   9.630  11.497  10.872 -0.0063  0.2051 -0.3285
12679W        W28488  14.785   3.418   4.597  0.1126 -0.0683 -0.2170
12680W        W28489  10.473  15.143  11.394  0.0131 -0.1398 -0.1349
12681W        W28490  18.505   5.944   5.115  0.1949  0.1558 -0.1478
12682W        W28491  18.971   1.697   1.135 -0.2633  0.0535 -0.1424
12683W        W28492   8.435  17.825   0.782  0.0017  0.2932 -0.1880
12684W        W28493   9.561  15.136   1.251 -0.0786 -0.0675 -0.2577
12685W        W28494  10.266  15.598  11.685  0.2483  0.1701 -0.1083
12686W        W28495   0.444   3.501  10.508 -0.0133 -0.0152  0.4013
12687W        W28496   9.186   3.036   4.040  0.2421 -0.1259  0.4711
12688W        W28497   9.473   6.107   3.312 -0.3278  0.1130 -0.2237
12689W        W28498   2.327  14.485  14.820  0.0091  0.0856 -0.2638
12690W        W28499   4.700  12.958   2.062  0.3058  0.0236  0.0720
12691W        W28500   1.834   4.260   2.406 -0.3492  0.2973  0.3295
12692W        W28501  16.101  17.097  12.060  0.0007  0.1739 -0.3188
12693W        W28502  16.633   4.574  10.954  0.0218 -0.0472 -0.0542
12694W        W28503   2.462   8.744  14.972 -0.0220  0.0107 -0.1581
12695W        W28504  18.534   1.540   5.132  0.3162  0.3216  0.1584
12696W        W28505   8.658  14.989  13.716 -0.1783  0.0609  0.2214
12697W        W28506  18.747   9.359  12.613 -0.2665  0.1788 -0.0944
12698W        W28507  12.009   0.340   1.108  0.1603  0.2349  0.1370
12699W        W28508  18.009  11.828  12.644  0.0664  0.1499  0.0410
12700W        W28509  14.726   8.592  11.638 -0.1016  0.0006 -0.1062
12701W        W28510  16.290   3.324  10.876  0.0499  0.0157 -0.0451
12702W        W28511   7.648   0.980   1.376 -0.2711  0.0145  0.3533
12703W        W28512   5.619   5.835  11.796  0.3279  0.0354  0.0092
12704W        W28513   2.154   4.143   1.751  0.2251 -0.0828  0.2920
12705W        W28514  18.795  13.158   1.735 -0.1338  0.0867 -0.0749
12706W        W28515   9.389  17.345  11.466 -0.0721  0.1269 -0.1363
12707W        W28516  18.747   1.833   2.019  0.1518  0.1486 -0.0330
12708W        W28517   3.914   8.876  12.719 -0.1957  0.0020  0.1958
12709W        W28518   5.165   1.199  11.038  0.0840  0.1606  0.1555
12710W        W28519  12.733   6.848  14.603 -0.0688  0.0841  0.3003
12711W        W28520   6.284   2.381   3.329  0.1350  0.2215 -0.4401
12712W        W28521   2.139   4.020   0.526 -0.1607 -0.0089 -0.1592
12713W        W28522   7.531  11.438   0.679  0.3081  0.0591  0.1722
12714W        W28523   4.506   0.429   3.605  0.0451 -0.1803 -0.2362
12715W        W28524  14.534  14.982   0.615 -0.0143  0.0029 -0.0500
12716W        W28525  10.739  13.739   1.262  0.0452  0.1747  0.0609
12717W        W28526  17.520  14.443  11.561  0.0679  0.1108 -0.3308
12718W        W28527  16.544  14.934  12.091  0.0134  0.1729 -0.2323
12719W        W28528  14.915   1.158   1.632 -0.3157 -0.0052 -0.1704
12720W        W28529  16.287   0.643  11.437  0.1912 -0.1462  0.1634
12721W        W28530   7.286  17.474  10.500 -0.0478 -0.3536  0.3298
12722W        W28531  15.646  15.109  15.081 -0.2425 -0.2288 -0.1668
12723W        W28532  18.180  18.470  13.033 -0.2365  0.2682  0.0123
12724W        W28533  12.944   3.450  14.164 -0.1083  0.1320  0.0087
12725W        W28534   5.704   2.783   2.254  0.1575 -0.0294  0.0850
12726W        W28535   2.059  16.841  13.904 -0.1523  0.1836  0.0648
12727W        W28536   2.143  15.508   0.861  0.0728 -0.0172  0.2948
12728W        W28537  18.082   0.420   4.505  0.0317 -0.0431  0.1420
12729W        W28538  14.992   0.115   0.800  0.0592  0.0661  0.1223
12730W        W28539  14.843   2.086  14.375  0.2275 -0.1583 -0.2004
12731W        W28540   6.335  12.054   3.974 -0.0210 -0.1770 -0.4633
12732W        W28541   8.468  14.139   9.244  0.1072  0.0999  0.1620
12733W        W28542  13.421  11.306   1.896  0.3573  0.1622  0.1462
12734W        W28543  11.843  18.979   3.974  0.0144 -0.1344  0.1366
12735W        W28544   6.097  13.504  10.582  0.0462 -0.0659  0.2696
12736W        W28545   2.291   5.108  13.006 -0.0383 -0.1901 -0.1257
12737W        W28546   5.633  12.996  13.316 -0.3314  0.0410  0.0107
12738W        W28547   7.931   2.929   0.286  0.1034  0.2114  0.0685
12739W        W28548  15.864   0.179  13.109 -0.1101  0.2904  0.2200
12740W        W28549  15.563  13.120  12.086  0.1799  0.4784 -0.1534
12741W        W28550  10.173  14.871  14.006  0.0026 -0.2481 -0.4107
12742W        W28551   6.994   2.929   1.247  0.0829  0.2847  0.0398
12743W        W28552   8.049  10.872  11.742  0.3403 -0.0691  0.0703
12744W        W28553  14.387  14.233   4.029  0.1008 -0.2047  0.1918
12745W        W28554   7.425   8.834  11.386  0.1178 -0.0375 -0.2798
12746W        W28555   2.053   3.603   3.527  0.1447  0.0665 -0.0804
12747W        W28556  15.335  18.558  12.258  0.0228  0.4989  0.0642
12748W        W28557   8.656   5.749  11.520  0.0563  0.1152  0.0604
12749W        W28558   7.848  15.555  14.732  0.1488  0.0053 -0.1291
12750W        W28559  13.955  14.028   2.420 -0.3866 -0.2792  0.0201
12751W        W28560   1.441   0.147  14.317 -0.0271  0.0609  0.0636
12752W        W28561   8.498  17.313  14.781 -0.4060 -0.1782  0.1771
12753W        W28562  16.480   5.628   5.052  0.0011 -0.2290  0.0563
12754W        W28563   6.612  16.011  12.542 -0.0753  0.0510 -0.2551
12755W        W28564   2.598  11.868  13.722 -0.2855 -0.1797 -0.2470
12756W        W28565  17.978  16.143   0.413  0.2822  0.0107  0.3182
12757W        W28566  10.219  14.000   4.691  0.2261 -0.2059  0.0339
12758W        W28567   1.828   3.693  11.759 -0.1986 -0.1816  0.0874
12759W        W28568  13.841  14.676  12.422  0.0310  0.1560 -0.2212
12760W        W28569   0.083   9.314  13.759  0.2654 -0.0286 -0.0390
12761W        W28570   9.591   1.096   4.131 -0.1930 -0.1542 -0.1312
12762W        W28571  16.295  10.797  12.272  0.3109 -0.1172 -0.0694
12763W        W28572   3.006   6.372  15.151 -0.0694  0.0538  0.1993
12764W        W28573   0.665  10.989   2.970 -0.0237  0.1763 -0.0596
12765W        W28574  11.223   1.306  10.779  0.0625 -0.1053 -0.0542
12766W        W28575   5.538   8.173  14.667 -0.0831  0.1369 -0.0943
12767W        W28576   8.531   7.784  13.398  0.4193  0.0819 -0.3492
12768W        W28577  13.851   8.648   0.638 -0.0719 -0.1050  0.2411
12769W        W28578   1.729  15.607  11.695  0.2043 -0.0436  0.0218
12770W        W28579  17.609  17.900  13.977  0.2342  0.2014  0.1303
12771W        W28580   7.389   7.031   2.625 -0.0575  0.1210 -0.2050
12772W        W28581   0.583  17.391  12.705  0.1303  0.0716  0.0210
12773W        W28582  12.357   0.455  13.002  0.0391 -0.2964  0.1140
12774W        W28583   1.885  10.141  10.689 -0.0380  0.1862 -0.1333
12775W        W28584   2.686  16.448  13.229  0.2738  0.0079 -0.2072
12776W        W28585  17.222   0.672   3.168 -0.1173  0.0876  0.0733
12777W        W28586   0.620   0.001   4.332  0.1013 -0.1228  0.2064
12778W        W28587  10.677   0.719   0.305  0.0952 -0.1866  0.1592
12779W        W28588   9.808  11.671   0.371  0.0671 -0.0645  0.1498
12780W        W28589   9.302   9.731  13.524 -0.0005  0.0124  0.1657
12781W        W28590   5.472   1.774   3.722 -0.0456  0.3303 -0.2459
12782W        W28591   7.098   5.329  14.975  0.0529  0.0573  0.1162
12783W        W28592  13.765  12.834   1.729 -0.1732 -0.2440  0.0691
12784W        W28593  14.235  17.418   0.868  0.0852  0.2305  0.2251
12785W        W28594   4.638  18.398   4.721  0.2521 -0.1834 -0.0269
12786W        W28595  11.977  12.320   9.949 -0.1558  0.0146  0.1497
12787W        W28596  10.135  15.095  13.576  0.2816 -0.1779  0.1583
12788W        W28597   0.117   2.388  13.932 -0.0225  0.1845  0.0827
12789W        W28598   7.837   6.337   2.487  0.1657 -0.2446  0.0306
12790W        W28599  11.354  10.980  14.489  0.0323  0.0599  0.1998
12791W        W28600  13.613  15.560   0.778  0.5644 -0.0333 -0.1426
12792W        W28601  16.941   6.687  10.404 -0.1612  0.4243 -0.0668
12793W        W28602   3.742   5.416   2.889  0.3069  0.1528  0.2379
12794W        W28603  13.343   5.296   0.460 -0.1760 -0.0386 -0.0769
12795W        W28604   9.474  18.689  15.230  0.0751  0.2984 -0.1991
12796W        W28605   7.066  11.203   4.972 -0.0439  0.1916 -0.1884
12797W        W28606   1.848  12.344  13.550 -0.1478  0.0436 -0.0020
12798W        W28607   7.440  12.239   2.739  0.1213 -0.2906  0.0852
12799W        W28608   7.718   2.190  12.853 -0.2406  0.4103  0.0244
12800W        W28609   0.819  15.837   0.634  0.3043 -0.2179 -0.1044
12801W        W28610   4.681   1.253   0.289 -0.1101 -0.1328  0.1615
12802W        W28611  11.929  17.792  11.070 -0.1405  0.1804  0.0051
12803W        W28612   5.150   3.713   4.994  0.0138  0.1702 -0.5851
12804W        W28613  17.419   4.841  12.848 -0.0499  0.0884  0.1645
12805W        W28614   8.126  18.492  12.528  0.2319 -0.0405  0.2051
12806W        W28615  13.053  17.356  13.601 -0.0459 -0.0967  0.0214
12807W        W28616   5.547  12.793   5.597 -0.2889 -0.1502 -0.1853
12808W        W28617  10.313  13.069   4.391 -0.1869 -0.0067  0.1759
12809W        W28618   7.920   3.939  14.114  0.4004  0.2182 -0.2075
12810W        W28619  16.337  13.453   2.346  0.1022 -0.1716 -0.0283
12811W        W28620  16.232  12.623  13.280  0.2238 -0.0037  0.4709
12812W        W28621  13.093  15.625   5.414 -0.1816  0.1966 -0.0826
12813W        W28622  14.053   9.747  12.199  0.1946  0.0327 -0.0708
12814W        W28623   3.076   4.409  11.779 -0.1649  0.0490  0.2173
12815W        W28624  12.838   4.224  12.894 -0.0728  0.3048  0.1228
12816W        W28625   3.970   3.200   1.457 -0.0490  0.0901 -0.0902
12817W        W28626  15.659  14.460   1.286  0.0929  0.0959  0.0680
12818W        W28627   3.438   8.421   3.603 -0.2716  0.1277  0.1719
12819W        W28628  14.088   0.444   3.336  0.1414 -0.2513  0.2282
12820W        W28629  14.567   1.793   2.033 -0.1747  0.0634  0.1504
12821W        W28630   0.013   5.409   0.328 -0.0481  0.1245 -0.1545
12822W        W28631   1.954  11.519  14.387 -0.0977 -0.2559  0.2551
12823W        W28632  12.504  14.539  13.748  0.3489 -0.1378 -0.2245
12824W        W28633  10.260   0.964   1.220  0.3657 -0.0826  0.0350
12825W        W28634  14.175   0.248  13.143  0.0248 -0.2329  0.1034
12826W        W28635   8.829   3.993  12.303 -0.0687 -0.2841 -0.0591
12827W        W28636   3.832   9.671   9.302  0.0977 -0.0078  0.0494
12828W        W28637   9.527   8.591  12.918  0.1529 -0.0251  0.4593
12829W        W28638  12.735  18.654   3.412  0.1134  0.0588 -0.2638
12830W        W28639   4.805  13.383  11.093 -0.2869  0.0607 -0.2182
12831W        W28640  14.259   3.801   5.212  0.4821 -0.0223 -0.0512
12832W        W28641   9.204  13.080   0.501 -0.1517 -0.2531 -0.0751
12833W        W28642  15.161  12.629  11.478 -0.2025 -0.3889 -0.1287
12834W        W28643  13.540   2.069   2.399 -0.0792 -0.1002 -0.1030
12835W        W28644   4.160   5.125   5.598 -0.0365 -0.1707  0.1393
12836W        W28645  17.771  14.947   3.650  0.1686 -0.1622 -0.0650
12837W        W28646  16.602   8.269   0.259  0.1402 -0.2332  0.0509
12838W        W28647  13.153  11.514   4.837  0.0777  0.1159  0.1842
12839W        W28648   0.466  13.480  11.164 -0.2364 -0.1701  0.1917
12840W        W28649   6.073  11.327   0.769 -0.4687  0.2256  0.3102
12841W        W28650   7.069  12.422  13.687 -0.1671 -0.1109 -0.1731
12842W        W28651   3.234  16.512   4.940  0.1009  0.1197  0.1145
12843W        W28652  13.420   6.236   5.556  0.0185 -0.0527  0.0801
12844W        W28653  12.876  10.276   3.641 -0.2100 -0.1280 -0.1517
12845W        W28654   9.022   7.230   0.409 -0.0506  0.2185 -0.0385
12846W        W28655  16.648  13.079   2.718  0.0020  0.0489 -0.0940
12847W        W28656   3.674   4.898   1.510  0.0978  0.3598  0.1777
12848W        W28657  13.874   2.180   0.546 -0.2365  0.1496 -0.0919
12849W        W28658   7.036  16.766   0.427 -0.1065 -0.1813  0.1316
12850W        W28659   4.917   3.133  14.083  0.2011  0.1272 -0.0145
12851W        W28660   9.962  11.638   0.861 -0.0627 -0.2144 -0.1995
12852W        W28661   4.415   5.079  11.326 -0.0428  0.1463  0.1488
12853W        W28662   1.739  12.736   5.182  0.2600 -0.0695 -0.4016
12854W        W28663   9.280   4.567  10.512 -0.1108  0.1383 -0.0844
12855W        W28664   1.007  18.781   1.393  0.0936  0.0454  0.2667
12856W        W28665   5.310  13.173   4.115 -0.0240 -0.1022 -0.1055
12857W        W28666   8.260   9.722   2.367 -0.1428 -0.0762 -0.0018
12858W        W28667   5.981  17.851   2.967 -0.1190  0.0507 -0.3335
12859W        W28668   8.359  11.344  14.134 -0.1202 -0.0043  0.3104
12860W        W28669   8.876   7.998  13.850  0.5139 -0.0826 -0.0141
12861W        W28670   0.167  11.923   4.638  0.3383  0.0504  0.0187
12862W        W28671  17.531  17.845   3.609  0.3814 -0.2523 -0.1945
12863W        W28672  11.801  17.062  13.343 -0.1471 -0.0262  0.0062
12864W        W28673  15.620  15.003   9.908 -0.2297  0.0912  0.0370
12865W        W28674  11.212   9.864  12.388 -0.0422  0.0811 -0.0742
12866W        W28675   6.165  15.411  10.973 -0.3224  0.3071  0.1449
12867W        W28676  12.520   3.490  12.867  0.1979 -0.1318 -0.2166
12868W        W28677   5.136   0.818  14.322  0.1258 -0.0835 -0.1635
12869W        W28678   3.546   3.941   0.487  0.5650 -0.3802 -0.1664
12870W        W28679   7.202   1.181   0.890  0.2018 -0.0891 -0.1745
12871W        W28680   3.067   3.226   3.370 -0.1898 -0.1155  0.2176
12872W        W28681  13.504   0.257   0.048 -0.2954 -0.0856  0.2534
12873W        W28682   7.496   9.777   1.091  0.3801 -0.0974  0.1525
12874W        W28683  14.380   4.414   0.235  0.4329 -0.3435  0.0676
12875W        W28684  11.447   5.177  14.705 -0.1239  0.1390 -0.0266
12876W        W28685  16.983   4.104   0.284  0.4741  0.2213 -0.0309
12877W        W28686   9.400  10.130  14.834  0.0637  0.0687 -0.0023
12878W        W28687  11.779   5.000  13.825 -0.0350 -0.0786  0.2262
12879W        W28688  16.642   5.684  13.792 -0.1307 -0.2040  0.0338
12880W        W28689   5.142   9.671  14.754  0.1584  0.1738 -0.2201
12881W        W28690  14.246   7.717  10.329  0.1493 -0.0371 -0.0553
12882W        W28691  14.787   6.215  14.942 -0.0030  0.0936 -0.2225
12883W        W28692   3.456   9.991   4.272  0.3114 -0.2929  0.0772
12884W        W28693   8.261   1.503   3.991  0.2733 -0.3373  0.0550
12885W        W28694   8.973   8.023   2.530  0.2841  0.2976  0.1268
12886W        W28695  17.227  11.495  14.925 -0.0935  0.1124 -0.1127
12887W        W28696   3.873   2.362   9.969  0.2646  0.1232 -0.1161
12888W        W28697   5.398  11.601   3.012  0.1560  0.0081 -0.2053
12889W        W28698   1.905   7.987   0.939  0.2349 -0.0164  0.0005
12890W        W28699   3.295   4.902  10.930 -0.1938  0.2925 -0.0414
12891W        W28700   0.526   9.587  12.459  0.1016  0.0032 -0.0840
12892W        W28701   3.570  18.743   0.831  0.1532 -0.0764 -0.1130
12893W        W28702  10.565  16.526   1.623  0.0312 -0.1049 -0.1187
12894W        W28703  18.704   7.445   1.449  0.1633 -0.1212 -0.1857
12895W        W28704   6.949  17.970  12.255  0.3191  0.2245  0.1154
12896W        W28705  19.004   2.662  11.718 -0.2436  0.1066  0.3366
12897W        W28706   7.554  11.295   4.887 -0.0605  0.0204  0.3708
12898W        W28707  19.032   0.173  14.661 -0.2198  0.1189 -0.0482
12899W        W28708  18.607   9.454  13.789  0.0331  0.0772  0.1503
12900W        W28709   3.901  10.382  14.600  0.0825 -0.0488 -0.0094
12901W        W28710  14.602  16.278  12.839  0.0720  0.0870  0.1444
12902W        W28711  17.071  16.256   0.005 -0.3032  0.2328 -0.2993
12903W        W28712  16.899   4.762   4.236 -0.0179 -0.1386 -0.0118
12904W        W28713   5.833  15.707   9.976 -0.0152 -0.2040 -0.0456
12905W        W28714  18.940   3.402   3.707 -0.1452  0.0281 -0.0295
12906W        W28715  12.338   6.784  11.278 -0.1312 -0.2592  0.1841
12907W        W28716   0.030   2.753   5.154 -0.1193  0.2400 -0.0706
12908W        W28717   9.023  15.799   0.690 -0.0317  0.0730  0.0197
12909W        W28718   1.568   7.411  10.990  0.2586 -0.0638  0.0699
12910W        W28719   4.294   7.106  14.133  0.3129 -0.1690 -0.1161
12911W        W28720   5.551  14.848  11.533 -0.3343 -0.1900 -0.0473
12912W        W28721  10.014   2.215  14.992 -0.0218  0.2146  0.2564
12913W        W28722   1.806   6.355   1.062  0.2058 -0.2394 -0.1688
12914W        W28723   7.017  18.457   1.714  0.0728  0.1305  0.1609
12915W        W28724  14.715   9.081  12.301  0.2033  0.0282 -0.2899
12916W        W28725  10.845   6.185   9.153 -0.2418  0.1711 -0.1493
12917W        W28726  12.860  14.027  12.566  0.2236  0.0020  0.3061
12918W        W28727  17.722  15.687  12.027 -0.2750  0.2362 -0.0353
12919W        W28728   1.650   6.818   3.602 -0.1470  0.2240  0.1598
12920W        W28729   4.263   7.386   0.632  0.2262  0.1561  0.1954
12921W        W28730  12.783   1.352   2.312  0.1002 -0.1036 -0.2197
12922W        W28731   8.612  10.080   2.551  0.0157  0.0028  0.1269
12923W        W28732  10.169   4.104  12.526  0.1640  0.1171 -0.1540
12924W        W28733   8.363  17.490   2.432 -0.0241 -0.0775  0.0013
12925W        W28734  11.238   1.351   5.000 -0.0323  0.2900  0.2265
12926W        W28735  16.691   5.680  11.635 -0.0284 -0.4879 -0.0020
12927W        W28736  19.015  18.294  12.114 -0.1819 -0.1556  0.1475
12928W        W28737   0.945  11.839   2.161  0.2161  0.0780 -0.1354
12929W        W28738   0.947   2.878  14.340 -0.1963  0.0088 -0.0444
12930W        W28739   5.836   3.678  13.029  0.2374 -0.0528  0.1229
12931W        W28740  16.751   8.031   2.562 -0.0793  0.3479  0.0630
12932W        W28741   2.478  12.186  10.466  0.2424  0.0352  0.0136
12933W        W28742  18.598  14.326   3.360 -0.2214 -0.1274  0.2994
12934W        W28743   8.140  10.308  11.799 -0.0346 -0.2718  0.0931
12935W        W28744  14.868  14.912   3.238  0.2526  0.0641  0.2918
12936W        W28745   2.429   7.862  13.844 -0.0228  0.3594  0.2173
12937W        W28746  13.895  17.330  12.658  0.0232  0.0302 -0.1127
12938W        W28747  10.816  10.498   1.196  0.0207 -0.0232  0.0723
12939W        W28748   9.920  16.998  12.358 -0.0800 -0.1648  0.2911
12940W        W28749   6.678  17.339   1.163 -0.1298  0.0484  0.1559
12941W        W28750  13.745   3.140  11.247 -0.0354 -0.0317  0.3186
12942W        W28751  17.317   6.882  13.087  0.0448 -0.0963 -0.3492
12943W        W28752   0.366   6.077   2.585  0.1123 -0.2437  0.0088
12944W        W28753  11.902  18.177   4.834  0.1301  0.1955  0.0451
12945W        W28754   2.413  12.854  14.030 -0.0627  0.4707  0.0594
12946W        W28755   3.013  14.396  11.382  0.1690 -0.0556  0.1395
12947W        W28756   3.334  13.881  10.761 -0.2942 -0.1305 -0.1524
12948W        W28757  10.610  14.457   4.546 -0.1264 -0.2114  0.0352
12949W        W28758   9.048   7.851  12.153 -0.0714 -0.0934  0.1766
12950W        W28759  18.479   8.231   3.880 -0.1686 -0.3593 -0.1924
12951W        W28760   3.461   1.561   1.737  0.0201 -0.0520  0.1656
12952W        W28761   4.826  14.981   3.724 -0.0461  0.0846  0.1937
12953W        W28762   1.033  10.665  12.016 -0.0774 -0.3205 -0.3777
12954W        W28763   4.459   6.532   4.276 -0.1620 -0.3340 -0.4301
12955W        W28764   2.940  15.492  14.851  0.2110  0.2808  0.0594
12956W        W28765  10.237   4.311   3.630  0.0371  0.0968 -0.2810
12957W        W28766   3.357   3.256   2.504 -0.2698 -0.2489 -0.0988
12958W        W28767  11.714   8.541   0.547  0.0285  0.0350  0.1769
12959W        W28768  10.049  12.323  11.700 -0.2822 -0.3191 -0.1498
12960W        W28769  14.653   4.646   2.225 -0.0565 -0.0323 -0.0378
12961W        W28770   9.377   9.098  12.850 -0.2265 -0.0022  0.0238
12962W        W28771  10.471   1.178   2.686 -0.0801  0.0154 -0.0964
12963W        W28772  15.702   3.140  13.002 -0.2389  0.0011 -0.0580
12964W        W28773   9.699  17.558   0.910  0.0376  0.1909 -0.1215
12965W        W28774   3.363   7.483   3.212 -0.2266 -0.0071 -0.2126
12966W        W28775  10.110  14.725  14.600 -0.0999  0.0680 -0.0158
12967W        W28776  15.598   3.412  12.422 -0.0977  0.0884 -0.1754
12968W        W28777  11.425   6.939  14.105 -0.1288  0.1751  0.2108
12969W        W28778  18.681   6.992  11.225 -0.0465  0.0996 -0.0771
12970W        W28779   6.772  16.623  12.271 -0.0770  0.0650  0.2052
12971W        W28780   5.373  18.200   0.404  0.2724 -0.0335  0.1416
12972W        W28781   1.390   4.402   4.612 -0.2372 -0.2344 -0.2813
12973W        W28782  12.006  10.329   0.546  0.2943 -0.0065  0.2900
12974W        W28783  16.365  17.746   0.446  0.0001  0.0152 -0.0145
12975W        W28784   9.410  11.476   0.735  0.0943 -0.0703 -0.3187
12976W        W28785   3.985  14.077   3.846 -0.0908  0.0500 -0.1251
12977W        W28786  18.796   8.949  14.818  0.2230  0.1653 -0.0172
12978W        W28787  14.427   7.249  12.864 -0.0072 -0.1884  0.1150
12979W        W28788  18.383  16.092   1.934 -0.2035 -0.0590  0.0218
12980W        W28789  13.987   0.459  12.508  0.0452  0.0845 -0.1163
12981W        W28790   3.516  11.535   4.785 -0.0634 -0.0480 -0.1611
12982W        W28791   4.870   0.332   4.777 -0.0326 -0.0078 -0.3843
12983W        W28792  12.383  15.752   0.691 -0.0415  0.2853  0.1321
12984W        W28793  11.035   0.214  10.917 -0.1813  0.2686  0.1375
12985W        W28794  17.735  15.790  13.784 -0.2090  0.0864  0.2946
12986W        W28795  15.289  18.976  13.928  0.2467 -0.2648  0.2168
12987W        W28796  13.793   5.387   5.431  0.0159 -0.1986 -0.1146
12988W        W28797  13.605   2.880  13.443  0.3543  0.0076  0.1211
12989W        W28798  13.824   9.396   0.105  0.1363 -0.0589 -0.3698
12990W        W28799  15.452  13.193   4.651 -0.0041 -0.0319  0.0603
12991W        W28800   7.426   9.582  14.751 -0.0179 -0.1975  0.3737
12992W        W28801  17.086  11.838   1.685 -0.0916 -0.4764  0.0127
12993W        W28802   6.907  15.391   5.453  0.0260 -0.1276  0.0117
12994W        W28803   3.228   0.937   0.943  0.4529  0.1337  0.3122
12995W        W28804  17.170  17.503  14.413 -0.2156  0.1742  0.2927
12996W        W28805  17.587  15.781   0.559  0.0631 -0.2151  0.2877
12997W        W28806  15.339  14.115   2.965  0.2179  0.1507 -0.1905
12998W        W28807   9.798  15.456  11.897 -0.0728  0.2904  0.0368
12999W        W28808   6.154   8.956  14.924 -0.0908 -0.0664  0.0242
13000W        W28809   5.076  10.452  14.908 -0.0634  0.0639 -0.3581
13001W        W28810  14.565  18.957   0.576  0.1112 -0.1135  0.3268
13002W        W28811   2.807  15.437   1.507  0.0158  0.2558 -0.0612
13003W        W28812   0.775  11.102  12.632 -0.0792 -0.3080  0.0877
13004W        W28813  13.607   5.378  11.087  0.2352  0.1288 -0.3784
13005W        W28814  13.451  16.544   5.496  0.0572 -0.0636 -0.2076
13006W        W28815   6.111   7.997  14.837 -0.3371 -0.2502  0.1274
13007W        W28816  17.125   6.786  14.406 -0.1296  0.1234 -0.0658
13008W        W28817  12.482   6.021   1.322 -0.5176 -0.2224  0.0315
13009W        W28818  10.416   1.969  14.148 -0.2155 -0.0366  0.0906
13010W        W28819   9.724  13.121   0.649 -0.0102 -0.2028 -0.0466
13011W        W28820   4.821  18.571  14.973  0.0366 -0.2517 -0.0208
13012W        W28821   1.514   6.881  13.451  0.2889  0.1907  0.1956
13013W        W28822  16.788   0.709  11.416  0.0495  0.0314  0.1565
13014W        W28823  11.266  13.345  11.815 -0.0561 -0.0432  0.3374
13015W        W28824  15.239   4.231   5.229  0.2468  0.1757  0.0269
13016W        W28825  16.519   2.356   5.941 -0.0931 -0.0998 -0.0310
13017W        W28826  10.290  17.620   3.277  0.0646 -0.2004 -0.1286
13018W        W28827   8.145  13.483   3.394  0.0532 -0.1697  0.1528
13019W        W28828   5.004  19.011   2.883  0.0719 -0.0579  0.1302
13020W        W28829   5.867  10.070  12.761 -0.2024  0.1003 -0.0002
13021W        W28830   0.535   7.438  12.435  0.0632  0.3766  0.0777
13022W        W28831   7.375   1.932  12.128  0.5255 -0.3338  0.2096
13023W        W28832   8.081   6.320   1.108 -0.2414 -0.0630 -0.1750
13024W        W28833   9.050  15.097  13.417  0.2910 -0.2407 -0.4499
13025W        W28834   1.728   6.858   2.915  0.0479 -0.1037  0.0895
13026W        W28835  17.475   7.178  14.610 -0.3670  0.1839  0.1799
13027W        W28836  15.481  13.574   4.098  0.1067  0.3219  0.2698
13028W        W28837   0.974  13.735   1.827 -0.2751  0.0849 -0.0100
13029W        W28838   7.990   1.155  14.330  0.1222  0.2294 -0.2202
13030W        W28839  10.774   2.127   3.429 -0.3541  0.0407  0.2493
13031W        W28840  17.167   2.033  13.244 -0.1944  0.3013  0.2959
13032W        W28841  15.915  18.832   4.263  0.1995  0.0041  0.0531
13033W        W28842   6.992   3.225  15.273 -0.0585 -0.1036 -0.0403
13034W        W28843  12.540   6.653   1.477  0.3120 -0.2102  0.1457
13035W        W28844   3.913  10.268  10.347 -0.1397 -0.2271 -0.3695
13036W        W28845  12.938  16.810   5.741 -0.1754 -0.0277  0.1251
13037W        W28846  15.273   5.251   3.935 -0.3636 -0.0132 -0.0279
13038W        W28847  14.855  12.659  11.027 -0.2297 -0.2497 -0.0303
13039W        W28848   2.050   2.890   0.511 -0.1333 -0.0591 -0.0785
13040W        W28849   1.707   5.709   5.771  0.1044 -0.2896 -0.1853
13041W        W28850  17.695   2.404   1.031  0.0660 -0.1037  0.1991
13042W        W28851  10.462   9.128   1.062  0.0012  0.0674 -0.2558
13043W        W28852  16.229  10.596  10.504 -0.2299  0.0954  0.0566
13044W        W28853   1.703   1.820   3.447 -0.0102  0.3158  0.1185
13045W        W28854  14.830  12.876  15.178  0.0356  0.0384  0.2532
13046W        W28855  13.200   7.788   0.744 -0.0061 -0.0848  0.1606
13047W        W28856  11.832  14.818   0.634 -0.3176 -0.2041  0.2770
13048W        W28857   2.591   7.781   0.812 -0.1281 -0.0585 -0.1161
13049W        W28858  11.907   1.183   0.766 -0.4306  0.1223 -0.0010
13050W        W28859  13.878  16.118  14.592  0.0026  0.0430 -0.0671
13051W        W28860  15.160   2.304  14.009 -0.2108  0.1645  0.1738
13052W        W28861  13.736   4.522   0.406 -0.1261 -0.0000  0.0187
13053W        W28862   3.926  18.497   3.284  0.1904  0.0368  0.0313
13054W        W28863   4.469  11.201  12.583 -0.5435 -0.1954 -0.0681
13055W        W28864   0.907   5.458  14.731  0.0870 -0.1469 -0.1603
13056W        W28865   3.813   8.890   0.699  0.0671  0.3714 -0.1448
13057W        W28866  12.302   4.234  13.175  0.1376 -0.0974  0.0172
13058W        W28867   0.464   9.460   0.390 -0.1984  0.0416  0.3969
13059W        W28868   1.674   8.606   4.002 -0.1834 -0.1781  0.3407
13060W        W28869   6.075  12.152   0.064 -0.0966 -0.2406 -0.0060
13061W        W28870   5.857  16.661  10.094  0.1876 -0.0186 -0.0520
13062W        W28871  11.212   2.259  13.669 -0.0937  0.0507 -0.1016
13063W        W28872  17.845   7.862   5.848  0.1182  0.5176 -0.1182
13064W        W28873  12.674   3.726   0.311  0.1704  0.2496  0.0854
13065W        W28874   7.933  15.371  15.166 -0.1003 -0.1853 -0.0928
13066W        W28875  17.380  17.525  10.097  0.0596  0.5885 -0.1666
13067W        W28876  14.611   8.377  14.147  0.1863 -0.2539  0.0536
13068W        W28877   8.134  13.677  12.726  0.2252 -0.2453 -0.2630
13069W        W28878   0.545   4.585  10.821 -0.0886 -0.0630  0.1291
13070W        W28879  10.474   0.550   2.212  0.5213 -0.0577  0.2060
13071W        W28880  12.133  11.885  14.576  0.1575 -0.0168  0.0074
13072W        W28881  17.741   1.626  14.470  0.0261 -0.1498  0.1009
13073W        W28882   3.708   6.448  13.120 -0.0561  0.0426 -0.0532
13074W        W28883   4.563  18.431   0.716 -0.4209  0.0914  0.1136
13075W        W28884   5.038   1.729   1.468 -0.1900  0.3554 -0.0707
13076W        W28885   9.118   5.935  11.723  0.1864  0.0402 -0.0105
13077W        W28886  14.393  14.097   4.761  0.2909  0.0059  0.1021
13078W        W28887   3.476  13.901  12.461 -0.1715 -0.0588  0.1072
13079W        W28888  14.203   9.004  12.294  0.0239  0.0752 -0.2150
13080W        W28889   8.509   9.619   0.632  0.0469  0.0876 -0.0128
13081W        W28890   8.929  13.846  11.635 -0.0686  0.0301 -0.0092
13082W        W28891   2.418   1.068   2.635 -0.2207  0.2294  0.0811
13083W        W28892  17.556   7.106   1.853 -0.1590  0.1312 -0.2518
13084W        W28893  14.883   2.613  13.124 -0.0871 -0.1444  0.1911
13085W        W28894  13.679   8.781   1.052 -0.1568 -0.3834 -0.1693
13086W        W28895   1.926   0.975   0.134  0.2272 -0.2110  0.2654
13087W        W28896   3.863   1.622  13.890 -0.1638  0.1679 -0.1470
13088W        W28897   2.912   7.774   1.920 -0.0612  0.1245  0.1479
13089W        W28898   0.418   5.477  14.655 -0.2053 -0.3073 -0.1075
13090W        W28899   9.728  18.928   5.162 -0.2094 -0.4222 -0.2154
13091W        W28900   7.111  12.346   9.879 -0.0198 -0.0140 -0.0668
13092W        W28901  12.942   1.391   0.865 -0.1406 -0.1129 -0.0976
13093W        W28902   8.467  18.644   4.389  0.1800 -0.4080 -0.0955
13094W        W28903  18.980   0.600  14.841 -0.1808 -0.0673 -0.1371
13095W        W28904  12.959   6.235   5.658 -0.0016  0.1336 -0.0404
13096W        W28905   6.919   4.008   3.025 -0.1603 -0.2281  0.2473
13097W        W28906   9.101  17.056   9.668  0.1785 -0.1177 -0.0780
13098W        W28907  11.224   2.380   3.403 -0.3131  0.0528  0.3892
13099W        W28908  10.310   0.931  14.654  0.1661  0.0766 -0.0896
13100W        W28909  13.526   0.621  12.226 -0.0485  0.1814 -0.1129
13101W        W28910   3.261   1.773   4.421  0.0027 -0.0397  0.2186
13102W        W28911   3.036   8.698   0.390 -0.1164  0.0885  0.2307
13103W        W28912   9.514   8.579   1.099  0.0230 -0.2053 -0.3345
13104W        W28913  12.247   7.742   0.593 -0.1617 -0.3155 -0.0933
13105W        W28914   4.713   1.160  11.971  0.1281 -0.1650  0.1823
13106W        W28915  18.313  16.732   4.658  0.0625  0.1624 -0.1226
13107W        W28916   1.108   6.068  12.476 -0.0422  0.1601 -0.1178
13108W        W28917   4.171   3.709  13.691 -0.0668  0.2089  0.0034
13109W        W28918  16.763   5.065   0.442  0.0645  0.3220 -0.1699
13110W        W28919   9.641   6.230  13.489  0.0378  0.2094  0.0930
13111W        W28920   5.186   2.692  14.947 -0.0045 -0.1549  0.0730
13112W        W28921   6.639  15.813  14.168 -0.3907  0.0047 -0.0421
13113W        W28922   2.546  10.426   1.457 -0.2963  0.0583 -0.0313
13114W        W28923   7.751  14.454  11.654 -0.0235  0.1745  0.1152
13115W        W28924   5.515   9.842   4.482 -0.3432 -0.1317  0.0511
13116W        W28925  18.362  15.231   0.719  0.0271 -0.0424 -0.2811
13117W        W28926  16.485   2.358  12.498  0.0753 -0.0043 -0.2113
13118W        W28927   6.057  17.199  15.113 -0.0103  0.0763 -0.0991
13119W        W28928   5.109   3.302   4.580  0.3064 -0.0555 -0.1500
13120W        W28929  17.923  17.460  12.190  0.0361 -0.2523  0.1781
13121W        W28930   6.869  15.580  12.682  0.0695 -0.1094 -0.3084
13122W        W28931  18.439   2.177   3.173 -0.1733 -0.3361 -0.3862
13123W        W28932   9.942  11.125  12.718  0.0276  0.0905 -0.0720
13124W        W28933   2.704   5.845   4.342  0.1354  0.2457 -0.0824
13125W        W28934  14.057  13.416  10.615  0.0071 -0.2097 -0.0792
13126W        W28935  18.589  12.095  13.778 -0.0861  0.0153 -0.1552
13127W        W28936   0.968  14.622  12.433 -0.0565  0.0044 -0.1749
13128W        W28937   2.523   2.705   1.712 -0.0859  0.0966  0.1358
13129W        W28938   5.783  14.173   4.703 -0.4199  0.2164  0.0005
13130W        W28939  17.222   2.960   2.748  0.0699  0.1002  0.3631
13131W        W28940   2.002   1.847   2.579 -0.0584  0.1279 -0.2294
13132W        W28941  12.373  12.663   4.664 -0.2791  0.0755 -0.1623
13133W        W28942  10.288   1.291   1.715 -0.3523  0.1412 -0.2466
13134W        W28943   1.726  14.572  15.120 -0.0530  0.3132 -0.2757
13135W        W28944  15.595  16.266  15.074  0.0443 -0.3444 -0.0676
13136W        W28945  13.389  14.053   4.779 -0.1310  0.2092 -0.0406
13137W        W28946   8.060  15.966   2.078 -0.0698 -0.0075 -0.0265
13138W        W28947   9.771   7.227  13.254  0.0392  0.1903  0.1828
13139W        W28948  16.942  15.139  10.780  0.2999  0.0071 -0.0896
13140W        W28949   3.023   8.583   9.585  0.2515 -0.3590  0.2950
13141W        W28950   8.900   1.786   2.872  0.2910 -0.0412  0.1116
13142W        W28951   1.283   8.542   3.150 -0.1013 -0.3385  0.0929
13143W        W28952  10.701   1.645  12.881  0.0462  0.1658  0.1036
13144W        W28953  12.929   8.417   1.419 -0.1152  0.0374 -0.1385
13145W        W28954  10.264  17.364   1.694 -0.0023  0.3218 -0.0180
13146W        W28955   6.477   2.990   2.563 -0.2872 -0.0417  0.1621
13147W        W28956  18.056  16.487  11.876 -0.0324  0.1242 -0.1648
13148W        W28957   1.548   2.815   0.597  0.0478 -0.3112 -0.4768
13149W        W28958  14.286   0.036  11.763 -0.1397 -0.0105 -0.0038
13150W        W28959  17.143   8.423   4.805  0.0997 -0.0331 -0.0002
13151W        W28960   0.931   1.374   2.645  0.0081  0.2561  0.2133
13152W        W28961   2.998   8.923  12.887  0.0837 -0.1028  0.3054
13153W        W28962  11.024   8.185  11.907  0.1385 -0.1271 -0.0733
13154W        W28963  10.713   9.975  13.114  0.0783  0.3033 -0.4322
13155W        W28964   2.659   6.735   4.115  0.0076 -0.2138  0.1628
13156W        W28965   9.100   5.956  14.339 -0.0539  0.3002  0.1613
13157W        W28966   4.572  15.847   2.893  0.2481 -0.3719 -0.1160
13158W        W28967   8.202  15.531  11.589  0.2310 -0.0774 -0.0852
13159W        W28968   1.595  14.392  12.002  0.2019  0.1857 -0.0741
13160W        W28969   1.720   4.561  13.968  0.3010  0.1593  0.0039
13161W        W28970  14.210   3.030   5.865  0.3190  0.0417  0.1062
13162W        W28971  16.448   9.699  12.280 -0.0689  0.1415 -0.1208
13163W        W28972  16.920  18.229  11.880  0.1951  0.1236 -0.0914
13164W        W28973  10.516  14.186   0.304 -0.0572 -0.1466  0.1265
13165W        W28974   5.167   6.194   5.448  0.1684  0.0484  0.0425
13166W        W28975   0.839   4.577   0.900  0.2056 -0.0623 -0.1148
13167W        W28976  10.134   6.527   3.225  0.1456 -0.6291 -0.2047
13168W        W28977   4.192  14.299   0.881 -0.2066  0.0803  0.0670
13169W        W28978  10.893  12.530  10.391  0.0123  0.0905  0.0555
13170W        W28979  11.110  18.775   2.850 -0.4148  0.0318 -0.3038
13171W        W28980   1.731   1.302   3.525  0.1905  0.0511 -0.2630
13172W        W28981  16.990   9.863  13.022  0.0494  0.1793  0.0476
13173W        W28982   9.041  10.790  13.975  0.1056 -0.1664  0.0213
13174W        W28983   9.296  17.869  11.350  0.1120 -0.0070 -0.1110
13175W        W28984  10.531  15.502  10.424 -0.1289  0.1942  0.1858
13176W        W28985   5.565  13.115   1.383  0.0814  0.0609 -0.0686
13177W        W28986  13.191   0.242   2.132  0.1031 -0.2406  0.1552
13178W        W28987  10.858   3.076  12.893  0.1647  0.0344 -0.2231
13179W        W28988   7.775  12.005  10.595  0.0177  0.0608  0.3369
13180W        W28989   5.931   5.431   3.613 -0.1037 -0.2201 -0.0397
13181W        W28990  14.523   4.421  13.824  0.4405  0.2428 -0.1442
13182W        W28991   7.184   4.815  10.888  0.0241  0.1444  0.0017
13183W        W28992   7.629  13.399  10.990 -0.1359 -0.0302 -0.0809
13184W        W28993   2.070   0.248   0.176  0.3073 -0.1014  0.1021
13185W        W28994  16.043  10.630  13.061 -0.0499  0.0049 -0.2994
13186W        W28995  14.889  11.048  12.066 -0.2506 -0.2133 -0.1905
13187W        W28996   2.178  15.197   3.043  0.0147  0.1353 -0.1747
13188W        W28997   5.582  12.071  12.176  0.0522  0.1290 -0.0222
13189W        W28998   7.896   4.569   4.640 -0.0476  0.1449  0.0819
13190W        W28999  12.464   8.507   1.482  0.1046  0.0202  0.0219
13191W        W29000  18.498   9.248   3.673 -0.2296 -0.1579 -0.1474
13192W        W29001   7.240  11.401   1.100 -0.3297 -0.3163 -0.1993
13193W        W29002  17.888  16.880   3.749  0.0293 -0.4203  0.0938
13194W        W29003  13.693   6.825   2.255  0.3134 -0.0843 -0.1083
13195W        W29004   9.797   4.771  12.163 -0.0014 -0.2964  0.3629
13196W        W29005   6.970   2.681  10.526  0.1204 -0.3544  0.1645
13197W        W29006   0.770  13.899  11.369  0.1464 -0.5123 -0.2196
13198W        W29007   3.504   1.820   3.964  0.1983  0.3427 -0.1982
13199W        W29008  18.669  15.092  12.111 -0.0273 -0.0386  0.0786
13200W        W29009  10.945  10.851   1.774 -0.0010  0.1796 -0.1378
13201W        W29010  15.705  15.201   4.846 -0.1151 -0.2341  0.0968
13202W        W29011  15.085   6.026   2.763  0.1499  0.1482 -0.3745
13203W        W29012   4.344  19.016   4.031  0.3037  0.0716 -0.3102
13204W        W29013   1.013   1.843  14.765  0.0909 -0.1291  0.0094
13205W        W29014  15.291  14.265  13.513  0.1034 -0.1496  0.1065
13206W        W29015   0.199  12.970  10.518 -0.0889  0.1170 -0.0671
13207W        W29016  15.491  17.259  14.468  0.0177 -0.4656 -0.0616
13208W        W29017   5.801  16.814  13.302 -0.2288  0.0653 -0.2996
13209W        W29018  12.439  14.322   0.160  0.0399 -0.1857 -0.1558
13210W        W29019  18.913  12.008  14.167 -0.0748  0.0545 -0.0700
13211W        W29020   0.758  14.519   9.797 -0.3624  0.3560 -0.0118
13212W        W29021   8.802  17.720   2.776  0.0644 -0.2062  0.4088
13213W        W29022   0.242   3.657   4.550  0.0440  0.0964  0.1967
13214W        W29023   3.806  13.951  11.579  0.0635 -0.1668 -0.2126
13215W        W29024  16.836  10.664  14.955  0.4723 -0.1852  0.2345
13216W        W29025  11.186  12.893   1.829 -0.1157  0.0429 -0.0187
13217W        W29026  15.739   3.321  15.016 -0.0496 -0.1083  0.0456
13218W        W29027   0.404  14.101  15.011  0.0141  0.1030  0.0034
13219W        W29028   2.571  16.393   2.286  0.0241 -0.1798  0.0102
13220W        W29029  10.451  11.016   5.208  0.1959 -0.3567  0.0485
13221W        W29030   7.289   8.371  13.963 -0.0550 -0.0699 -0.0408
13222W        W29031   2.884   2.582  14.196  0.2244  0.0149  0.1301
13223W        W29032  10.470   3.410   3.152 -0.1134  0.4221  0.1332
13224W        W29033  14.009  11.368   1.515  0.0589 -0.0217  0.0885
13225W        W29034   1.410   4.180  11.847 -0.0546 -0.0152  0.1468
13226W        W29035   9.201   8.067   2.972 -0.2521  0.1966  0.2664
13227W        W29036   5.811   1.096  11.276 -0.0550  0.5257 -0.1049
13228W        W29037   1.532   0.132   5.208  0.1668 -0.0547 -0.0267
13229W        W29038  13.200   6.320  12.711  0.0815  0.1739  0.2734
13230W        W29039  12.031  14.045   4.207  0.1515  0.0714  0.1073
13231W        W29040  10.544  10.292   4.552  0.0207  0.0051 -0.1058
13232W        W29041  13.048  15.053   4.354 -0.1672 -0.0673 -0.2315
13233W        W29042   0.853  11.963   3.257 -0.3863 -0.0361 -0.0390
13234W        W29043   6.810  13.958  11.327 -0.0631  0.3568  0.1235
13235W        W29044   8.373  17.615   0.296  0.0963 -0.1040 -0.2327
13236W        W29045  18.138  18.106   2.570 -0.2696 -0.0550 -0.4453
13237W        W29046  11.225   7.077   1.260  0.0445 -0.2529 -0.0338
13238W        W29047   5.529   3.700  14.002  0.0848  0.4308 -0.0267
13239W        W29048  18.797   8.369   1.488  0.0170 -0.0554  0.2075
13240W        W29049  17.717   5.674  13.342 -0.0020 -0.0038 -0.0871
13241W        W29050  13.668   1.010   1.470 -0.1368 -0.0331  0.2873
13242W        W29051   0.143  10.207  11.445  0.1132 -0.0812 -0.2544
13243W        W29052   4.287   1.527   4.287  0.0084 -0.0300  0.1217
13244W        W29053  11.204   2.864  14.680 -0.3788  0.1049 -0.2234
13245W        W29054   0.535   6.543  12.137 -0.3084  0.3116 -0.3204
13246W        W29055   7.674  16.517   3.164 -0.1986 -0.2853 -0.0416
13247W        W29056  15.017   7.506  10.807  0.0180  0.0769 -0.1656
13248W        W29057  11.149  16.111  12.485  0.0893 -0.1435  0.0353
13249W        W29058   4.921  14.982   1.872 -0.0476 -0.0871 -0.1965
13250W        W29059   9.088   9.018   2.616  0.1703 -0.0613  0.1224
13251W        W29060   1.535   7.758   5.712  0.0639  0.2286 -0.2453
13252W        W29061  12.360  15.382   4.598 -0.0437 -0.0560  0.2188
13253W        W29062  10.738   7.526  12.692  0.1152 -0.1675 -0.0901
13254W        W29063   1.304   7.872  11.107  0.0737 -0.1098  0.3319
13255W        W29064  16.337  17.905  12.618 -0.0095  0.2262  0.2706
13256W        W29065  16.693  14.828  13.421  0.0719 -0.1910 -0.2145
13257W        W29066   9.435  13.030  10.657 -0.1116 -0.0898  0.0471
13258W        W29067   4.697   2.887   3.652 -0.1685 -0.0916 -0.1214
13259W        W29068   5.640   5.789  11.060 -0.3487 -0.2448 -0.4066
13260W        W29069  15.631   2.457   1.754  0.3104 -0.1570 -0.0499
13261W        W29070   1.724  16.725   3.719  0.2515 -0.0242 -0.1368
13262W        W29071  10.903  16.511  14.420 -0.1430  0.2400 -0.0926
13263W        W29072  16.122  14.667   1.289  0.0950  0.3481 -0.0328
13264W        W29073  16.904   3.596   1.460  0.1855 -0.3198  0.4046
13265W        W29074  11.291   9.249   2.181 -0.0102  0.1524 -0.1361
13266W        W29075  14.442  17.863  13.701 -0.4249 -0.2973 -0.0887
13267W        W29076   7.751  11.518  13.014 -0.2433  0.0852 -0.0213
13268W        W29077  15.190   3.697  15.203 -0.0801  0.2824  0.0775
13269W        W29078  16.541   6.474   3.951 -0.0619  0.2450  0.1016
13270W        W29079  18.228   2.441  10.571  0.0157 -0.0790 -0.2985
13271W        W29080   9.906  13.645   0.825 -0.3423  0.0441  0.2803
13272W        W29081  16.039  18.337  13.009  0.2615 -0.0147  0.0425
13273W        W29082  12.891   5.913   4.418  0.0858 -0.1699 -0.0517
13274W        W29083   6.315   6.504  14.495 -0.0162  0.1528  0.0006
13275W        W29084   7.031   2.619  14.493 -0.0105 -0.1529 -0.3554
13276W        W29085   7.764  10.125   1.700  0.1678 -0.1481 -0.0741
13277W        W29086   9.064   7.134  14.103  0.1556 -0.1665  0.0272
13278W        W29087  11.984   4.344   1.872 -0.2110 -0.0815  0.2392
13279W        W29088   3.096  14.410   1.641 -0.0476  0.2079 -0.1462
13280W        W29089   5.131  17.525   1.305  0.1833  0.1466 -0.1768
13281W        W29090   9.372   7.722  11.149  0.3492 -0.3806  0.0550
13282W        W29091  11.726  17.877  12.232  0.2684 -0.0024  0.1226
13283W        W29092   3.522  11.101   3.187 -0.0844  0.5335  0.1804
13284W        W29093  10.554   4.908  14.267 -0.0010 -0.0729  0.0718
13285W        W29094  16.838   0.376   4.954  0.0579 -0.2164  0.0018
13286W        W29095  12.690   6.842   4.870 -0.1904  0.2081 -0.0284
13287W        W29096  12.024  17.554  13.179 -0.1120 -0.6221  0.0048
13288W        W29097   9.183   7.729  14.778  0.0816 -0.1587 -0.2783
13289W        W29098   5.102   0.584  10.732 -0.4778 -0.3721 -0.0535
13290W        W29099  14.429   6.757   2.771 -0.0217 -0.2355  0.1034
13291W        W29100   0.499  16.223  14.663 -0.3391 -0.2645 -0.0061
13292W        W29101   3.441  11.782  11.115  0.1767  0.1775 -0.2740
13293W        W29102  11.664   0.859   1.602 -0.2242 -0.1098  0.1443
13294W        W29103   2.425   7.801   4.402 -0.0136 -0.1600  0.3417
13295W        W29104  15.218   0.576   0.910 -0.0268  0.1055  0.2236
13296W        W29105   6.357  11.940  10.788  0.0168  0.0998  0.1102
13297W        W29106  10.234   0.833  12.777 -0.4684  0.0738 -0.5722
13298W        W29107  18.886   2.385  12.731 -0.3535 -0.0119  0.1479
13299W        W29108   7.617  14.387   1.516 -0.1310 -0.0821 -0.3287
13300W        W29109   6.330   3.239  12.538  0.0605  0.0255 -0.0095
13301W        W29110  15.344  18.515  14.258  0.0892  0.1698  0.3533
13302W        W29111  12.692   3.923  11.392  0.2668 -0.3000  0.0411
13303W        W29112   0.317  12.019  12.492  0.1962 -0.1046  0.0839
13304W        W29113  11.088  17.474   0.395  0.0607  0.3552 -0.0673
13305W        W29114   7.780   7.619   3.553  0.0273 -0.0615  0.1350
13306W        W29115  18.759   1.003  12.544 -0.1860 -0.0035  0.1121
13307W        W29116  18.216   2.951  10.492  0.0240 -0.0290  0.1423
13308W        W29117  14.486  15.365   2.543 -0.0272 -0.1511 -0.3298
13309W        W29118  17.778   5.744   0.392  0.0431 -0.2473 -0.0734
13310W        W29119  15.696   3.979  12.463  0.0688  0.0022 -0.2287
13311W        W29120   8.261   0.593  13.529  0.1959  0.5483 -0.1355
13312W        W29121  16.902   9.353   1.043  0.2894 -0.4142 -0.3167
13313W        W29122   8.438  10.358   4.083  0.0650  0.0618  0.0074
13314W        W29123  14.858   0.261  14.547 -0.1410  0.0202 -0.1936
13315W        W29124   3.763  13.037   4.821  0.3355 -0.0538 -0.3422
13316W        W29125   2.133   0.140  12.723  0.0054  0.0258 -0.2034
13317W        W29126   6.306   6.295  10.445 -0.2002 -0.1626  0.2319
13318W        W29127   7.363  13.555  12.110 -0.1294 -0.0655 -0.2706
13319W        W29128  14.278   0.551   0.818  0.2890 -0.3514 -0.2223
13320W        W29129  17.493   5.670  12.708 -0.0173  0.1240  0.0994
13321W        W29130  14.981  16.411  13.115 -0.0369 -0.0007  0.0959
13322W        W29131  15.833  13.948   3.183 -0.1000  0.1442 -0.0047
13323W        W29132   9.098  16.546   1.154 -0.1981  0.3427  0.2071
13324W        W29133  11.599  13.963   1.433 -0.0141 -0.2136  0.0648
13325W        W29134  18.266   6.854  14.172 -0.2122  0.0061 -0.0072
13326W        W29135   8.034   8.706  10.853  0.0158  0.1314  0.4431
13327W        W29136   9.757  15.858  14.277  0.1334  0.0531 -0.1668
13328W        W29137   2.066  18.327   0.461  0.0523 -0.2690 -0.1537
13329W        W29138   6.627   8.782  15.122 -0.1320 -0.1761  0.0225
13330W        W29139   7.283   4.362  14.638 -0.3993 -0.1002  0.0235
13331W        W29140   6.153   3.726  11.671 -0.3343  0.2333  0.2207
13332W        W29141   5.258   4.282  10.874 -0.0357 -0.1343  0.2990
13333W        W29142  10.710   4.919  13.551 -0.1067  0.2647 -0.0780
13334W        W29143   0.934  16.880   3.898  0.0111  0.1886  0.2300
13335W        W29144  15.215   9.289   1.564  0.0939 -0.1754  0.1970
13336W        W29145   7.914   1.109   1.881  0.0954 -0.4033  0.4988
13337W        W29146   7.953   8.481  13.919  0.1193 -0.1201  0.2465
13338W        W29147   0.003  18.024  11.374 -0.1538  0.3524  0.1680
13339W        W29148   0.483   8.549  14.167 -0.1531  0.0986 -0.3897
13340W        W29149   1.708  10.380   4.142 -0.0703  0.1538  0.0579
13341W        W29150  14.765   4.432   1.315  0.0380  0.0869  0.0875
13342W        W29151  12.015  16.461  12.173 -0.3275  0.0991 -0.1020
13343W        W29152  19.004   6.127  12.962  0.0863  0.0534 -0.1556
13344W        W29153   6.300   2.008   0.762  0.1477 -0.0025 -0.1604
13345W        W29154  16.954   3.245   0.213  0.0039 -0.1947 -0.2197
13346W        W29155   6.264  16.895  13.075  0.1806  0.0797  0.1693
13347W        W29156   4.644   2.270  13.322  0.0973 -0.0257  0.0232
13348W        W29157  13.960   4.200   2.698  0.2454 -0.1843 -0.0308
13349W        W29158  15.698   6.024   2.499  0.0895  0.0741  0.0766
13350W        W29159  11.319  14.156  13.159 -0.0581 -0.1722 -0.0875
13351W        W29160   3.291  12.160  10.897 -0.0977 -0.1372  0.2961
13352W        W29161  17.049  17.707   2.022  0.1227 -0.1666 -0.1187
13353W        W29162   8.818   8.349  14.390 -0.0694 -0.2101  0.2591
13354W        W29163   0.429   4.314  11.783 -0.2362 -0.1367 -0.1112
13355W        W29164  12.189  18.202   0.738  0.0991  0.0987  0.0851
13356W        W29165  11.190   6.457  14.549 -0.2487 -0.3647 -0.0603
13357W        W29166   6.442   3.928   3.270 -0.0623  0.1871  0.0972
13358W        W29167  10.901   1.426  13.267 -0.3242  0.2353  0.1548
13359W        W29168   0.090  15.848   4.500 -0.0120  0.3184  0.5162
13360W        W29169  13.029  16.573  14.559 -0.0001  0.2780  0.0777
13361W        W29170  12.580   1.911  13.793  0.1047  0.1905 -0.1677
13362W        W29171  17.987  17.411  13.021  0.0696 -0.0022 -0.0416
13363W        W29172  18.622  16.879   2.531 -0.2828 -0.2240 -0.0017
13364W        W29173  11.783  14.601   4.874 -0.0691 -0.1384  0.1191
13365W        W29174  17.053  18.025  10.984 -0.0675 -0.2075 -0.0882
13366W        W29175   3.648   2.090  12.173 -0.0272 -0.1472  0.2462
13367W        W29176  16.753  12.129  12.255  0.3270 -0.2952  0.0620
13368W        W29177  10.259   7.502  12.480 -0.3638  0.0826  0.1919
13369W        W29178  15.599  14.907   5.247 -0.2633  0.1664 -0.0886
13370W        W29179  18.243   9.205  12.614  0.2468 -0.0493  0.1152
13371W        W29180  18.397  10.977   1.557 -0.4014  0.2077 -0.2353
13372W        W29181  18.920   6.239   0.129  0.0543 -0.1864  0.3121
13373W        W29182  16.123   6.871  11.715  0.3406 -0.1185 -0.0912
13374W        W29183   3.150   2.965   2.160 -0.0191 -0.1295  0.1833
13375W        W29184  14.166   5.503   4.989 -0.0378  0.2594  0.0332
13376W        W29185   4.929  15.566  12.657  0.2992  0.2552  0.4577
13377W        W29186   2.432   7.507   3.775 -0.2021 -0.1261  0.1016
13378W        W29187  10.556   3.694   5.097 -0.4622 -0.0188 -0.3265
13379W        W29188  11.101   3.655  11.030  0.1598 -0.1591  0.1202
13380W        W29189   8.404  12.719  13.880  0.2072 -0.1681 -0.0122
13381W        W29190  15.835   9.103   4.807 -0.1811 -0.0188 -0.1842
13382W        W29191  10.830   4.018   1.333 -0.0250  0.1325 -0.0977
13383W        W29192   6.776  15.688  11.942 -0.3327 -0.1673 -0.1851
13384W        W29193   2.677   7.222  12.423 -0.0715  0.1994  0.0624
13385W        W29194  15.844   2.982   4.796  0.0603 -0.0250 -0.0831
13386W        W29195  18.046   6.569   5.764 -0.2775  0.2659 -0.0393
13387W        W29196   5.579   5.745  13.459  0.0266  0.4673 -0.0439
13388W        W29197  11.420   3.784   0.442  0.1614  0.1760 -0.0096
13389W        W29198   8.484   7.313  11.344 -0.1499  0.2160 -0.3809
13390W        W29199  18.389  10.311   3.562  0.0870  0.1076  0.1995
13391W        W29200  10.190  16.780  10.934  0.1334  0.1706 -0.0518
13392W        W29201   3.062   4.199  14.608 -0.1974 -0.0344  0.1797
13393W        W29202   3.181   1.662   0.264  0.2524  0.1126 -0.0301
13394W        W29203   2.619   8.885   9.952  0.0094  0.1560 -0.3536
13395W        W29204  17.700  12.232   4.747 -0.1070 -0.0902 -0.0396
13396W        W29205  14.798   9.319   0.143  0.0425  0.1970  0.0664
13397W        W29206   6.041  14.054  13.091 -0.0508  0.0899 -0.0720
13398W        W29207   9.384  11.597  11.358 -0.1476  0.0137  0.1454
13399W        W29208   6.962   1.156  14.981 -0.0389  0.0148 -0.0514
13400W        W29209  17.670   1.788  13.122  0.1222  0.1190 -0.2256
13401W        W29210   2.963  12.226   4.791 -0.0149 -0.2088  0.3142
13402W        W29211  10.876   6.249  11.431 -0.4591  0.2787 -0.3033
13403W        W29212  17.382  12.666   5.537  0.2432  0.0042  0.1105
13404W        W29213   4.695  11.381  11.545 -0.1565  0.0169 -0.1890
13405W        W29214   8.699  12.920  11.328  0.2600  0.0662  0.1752
13406W        W29215  18.666   7.841   1.182  0.0484  0.2016 -0.0472
13407W        W29216   4.772   4.429  10.630  0.1686  0.1510  0.1066
13408W        W29217   6.775   8.773   4.064 -0.0861 -0.3672  0.3940
13409W        W29218   4.255   2.069   0.081  0.0126  0.3440  0.0544
13410W        W29219   6.804   0.338   1.519  0.0143  0.0645 -0.2658
13411W        W29220   6.117   0.576  13.500  0.1022  0.4255 -0.0266
13412W        W29221  15.919  16.383   2.909  0.3174  0.1232 -0.4333
13413W        W29222  14.287  13.897   3.001 -0.0829 -0.2807 -0.3176
13414W        W29223  12.729   3.834   1.750 -0.0725 -0.1204 -0.2218
13415W        W29224   3.572  18.538  12.650  0.0052 -0.3257 -0.1387
13416W        W29225  15.436  11.261  13.293  0.1264 -0.2738 -0.3953
13417W        W29226  12.446   8.064   3.915 -0.0379 -0.1166  0.0649
13418W        W29227  18.315   4.876   2.192 -0.1898  0.3165 -0.2360
13419W        W29228   8.113  12.808  12.126  0.2838 -0.4333  0.0305
13420W        W29229   0.875   8.852  11.432  0.3352 -0.0939  0.0996
13421W        W29230  16.240  12.543   0.175 -0.4871 -0.2989  0.2593
13422W        W29231  15.589   5.245  12.689  0.0114  0.2386 -0.1731
13423W        W29232  10.479   6.892  14.031 -0.0627  0.1043 -0.0073
13424W        W29233   2.559  19.009   5.018  0.0291  0.0123  0.1620
13425W        W29234   8.163  15.655   0.779  0.0249  0.0069  0.0229
13426W        W29235   5.020   1.228   1.395 -0.0969  0.0262 -0.0588
13427W        W29236   9.579   7.228  10.654  0.0455  0.3444  0.1119
13428W        W29237   6.635  11.772   1.888  0.1923  0.3265  0.1030
13429W        W29238  15.161   3.555   5.151  0.1003 -0.0283 -0.2550
13430W        W29239   7.569  11.556  10.079  0.0269  0.1573 -0.1435
13431W        W29240   9.987   5.560   1.458  0.0127  0.2122  0.1727
13432W        W29241  13.562  12.093   2.859  0.0361 -0.0173  0.1062
13433W        W29242  15.658   8.225  13.076 -0.3427  0.0234  0.1041
13434W        W29243   8.958   0.801  10.938 -0.1303  0.3058 -0.1121
13435W        W29244   2.409   5.841   9.799  0.1031  0.0100 -0.0043
13436W        W29245   7.302  13.183   0.629  0.1664  0.4003 -0.2029
13437W        W29246  11.077  11.995   0.252  0.1681  0.2298 -0.0971
13438W        W29247   3.920  16.037   1.341 -0.1696 -0.3319  0.0100
13439W        W29248  11.295  13.032   1.115 -0.3808  0.1224  0.1543
13440W        W29249   3.902  11.078  11.617  0.0290 -0.2372  0.2629
13441W        W29250   1.457  16.511   1.853  0.0499 -0.0819  0.2075
13442W        W29251   2.843   7.021  13.818 -0.0284 -0.0398 -0.1449
13443W        W29252   0.034  17.899   4.672 -0.2486 -0.0450  0.2467
13444W        W29253   4.717   2.650   2.298  0.1105  0.2735  0.2842
13445W        W29254   5.339   4.041  13.060  0.2353 -0.0216 -0.2180
13446W        W29255   3.850   9.978  14.878  0.1255  0.1492 -0.0595
13447W        W29256  14.085  16.976  10.754 -0.1156 -0.2833 -0.0090
13448W        W29257   1.564   6.128  12.172 -0.0549  0.0845 -0.0293
13449W        W29258  10.148   1.523   4.899 -0.2705  0.0725  0.0817
13450W        W29259  12.939   9.101   2.224  0.1269  0.0096  0.3247
13451W        W29260   0.494   5.553  13.209  0.2502 -0.1097 -0.2759
13452W        W29261   1.080  18.636   2.704 -0.0505  0.2708 -0.2845
13453W        W29262  10.290  14.447   1.819  0.3354 -0.2885  0.4363
13454W        W29263  11.090   4.770   2.110 -0.3010 -0.2204 -0.3141
13455W        W29264  10.158  13.566   1.846  0.4014 -0.2273 -0.0995
13456W        W29265  12.930  12.840  14.181  0.0427 -0.0787  0.0532
13457W        W29266   3.599  12.209  13.647  0.4468 -0.0674  0.1449
13458W        W29267   4.064  12.292  10.483 -0.2685 -0.1635  0.0437
13459W        W29268  10.635  12.332  10.777  0.0329  0.1094  0.0823
13460W        W29269   2.954  18.212   4.630  0.1749 -0.1700  0.0444
13461W        W29270   6.143  18.552  10.542 -0.0127 -0.1627 -0.2703
13462W        W29271   8.864   9.435   9.537 -0.0003 -0.1136 -0.0474
13463W        W29272   7.936  17.328  10.316 -0.0024 -0.4078 -0.0788
13464W        W29273   9.243  16.728   4.451 -0.0614  0.1712 -0.1727
13465W        W29274   9.138  16.743  11.983 -0.2466 -0.2466 -0.1553
13466W        W29275  17.953   6.720   4.307 -0.3538 -0.2266  0.0636
13467W        W29276  16.341  10.931   3.444 -0.2424 -0.0352  0.2610
13468W        W29277   7.669  15.028  10.694 -0.0400  0.0151 -0.4022
13469W        W29278  16.407  18.517   1.918  0.1957  0.1176  0.0147
13470W        W29279  10.141  13.298   0.220  0.1551  0.1771 -0.2300
13471W        W29280   7.577   6.079  14.270  0.1743  0.3087  0.0429
13472W        W29281   6.942   4.149  12.588 -0.1840 -0.0943 -0.2782
13473W        W29282   7.046  16.946  10.537 -0.0265  0.2918  0.2816
13474W        W29283   6.399   1.839  13.185 -0.1389  0.0761 -0.3029
13475W        W29284   3.696   7.278   5.149 -0.2021  0.0232 -0.0113
13476W        W29285  16.220  15.451   3.643  0.0275  0.0900  0.0514
13477W        W29286   3.247  13.196  11.795 -0.0549  0.0089  0.5379
13478W        W29287  10.305   2.384   3.359  0.1439 -0.0457 -0.2672
13479W        W29288   6.380   1.197  12.663 -0.1213 -0.3131  0.1279
13480W        W29289  18.239   2.853   3.969  0.3941  0.2129 -0.1042
13481W        W29290   4.795   5.163  14.654 -0.1035 -0.1075 -0.1403
13482W        W29291   0.799  18.675  14.528  0.0556  0.2347  0.0610
13483W        W29292  18.302  13.958  13.819 -0.2059  0.0375 -0.2870
13484W        W29293  13.981   2.539   4.055 -0.0699  0.0363 -0.2975
13485W        W29294   0.712  16.389  11.080  0.0203  0.0212  0.2268
13486W        W29295   2.447   4.294   0.975  0.0380 -0.0936 -0.0018
13487W        W29296  11.059   6.884  13.340  0.0976 -0.1858  0.2840
13488W        W29297   8.630   7.418   0.251  0.1443  0.0069  0.1796
13489W        W29298   1.518  13.748   2.022  0.1708  0.0297  0.0954
13490W        W29299  14.066   0.856   1.155  0.0154 -0.1528 -0.0553
13491W        W29300  17.807  17.866   2.211 -0.0620 -0.0173  0.0675
13492W        W29301  18.466   0.548   0.919  0.1971  0.2217 -0.2690
13493W        W29302  13.108  18.056   3.789  0.1567 -0.4293 -0.0709
13494W        W29303  12.112  12.311  13.806 -0.0617 -0.2538 -0.2196
13495W        W29304   4.143   3.954   4.469 -0.0148  0.1313 -0.1548
13496W        W29305   0.328  17.544  13.138 -0.0589 -0.2533 -0.0856
13497W        W29306   1.371   0.579  14.596  0.3259 -0.1889 -0.1187
13498W        W29307  15.821   2.414  10.554 -0.1791  0.1482  0.1194
13499W        W29308   7.181  10.856  14.721 -0.2161 -0.2271  0.1839
13500W        W29309  11.263   4.947   1.623  0.2757 -0.0484 -0.0556
13501W        W29310   1.930  17.748   1.451  0.1472 -0.2071 -0.1585
13502W        W29311  11.855   0.713  13.185 -0.3488  0.0018  0.0030
13503W        W29312   1.832  10.918  12.724  0.1361  0.0338 -0.0646
13504W        W29313  10.991   1.542   1.575 -0.1382 -0.0082 -0.2617
13505W        W29314  18.093   5.051   3.748  0.1163  0.1079 -0.2342
13506W        W29315   3.554   2.509  14.129 -0.0230 -0.4203 -0.0676
13507W        W29316  10.149   7.046   2.415 -0.1106  0.0044 -0.1924
13508W        W29317   0.154  12.152   2.558 -0.0061  0.1919 -0.0090
13509W        W29318  13.924  12.340   1.020  0.1752  0.1386 -0.0734
13510W        W29319   4.231  11.479   4.779 -0.0224 -0.2370  0.2465
13511W        W29320  11.916   5.254   3.607  0.1680  0.0313  0.1076
13512W        W29321   3.159   7.126  14.760  0.0997  0.0980 -0.0273
13513W        W29322  11.157   8.212   1.049 -0.1632 -0.2458  0.1306
13514W        W29323   8.979  11.223  14.724  0.0677 -0.2669 -0.2711
13515W        W29324  12.977   7.296   5.807  0.3320 -0.0373 -0.2893
13516W        W29325   6.921  12.653   2.955  0.1538 -0.2420 -0.0398
13517W        W29326   5.403   2.586   0.963 -0.0061  0.0636 -0.4524
13518W        W29327  15.234  17.641   3.828  0.0795  0.0490  0.0758
13519W        W29328   4.625   8.636  12.026  0.0477 -0.0969  0.1139
13520W        W29329  17.811  15.979   4.267 -0.0401 -0.1099 -0.2114
13521W        W29330   3.997   6.442  11.485  0.0028  0.0049 -0.1362
13522W        W29331   3.849  12.351   9.585 -0.0394  0.0043  0.3511
13523W        W29332  18.738   6.583   2.602 -0.2177  0.1031 -0.2713
13524W        W29333   0.160  17.349   3.758  0.0239 -0.3476  0.2193
13525W        W29334   3.056   8.375  10.807  0.1667 -0.5652  0.2359
13526W        W29335  13.259   0.638  13.081  0.3484  0.6236 -0.3670
13527W        W29336   8.275  10.075  11.250  0.2241 -0.0156 -0.0894
13528W        W29337   1.169   6.908   0.902 -0.0461 -0.0424 -0.1703
13529W        W29338  10.452  13.575   4.805  0.1000 -0.0091 -0.0224
13530W        W29339  12.524   8.321   5.306  0.0975 -0.0529  0.0542
13531W        W29340   0.848  14.603   1.560  0.0780 -0.2006 -0.2085
13532W        W29341  16.647  18.806  14.035 -0.3886 -0.0182 -0.1691
13533W        W29342   3.090  12.402   3.788  0.6611 -0.0202 -0.0362
13534W        W29343  12.944  17.789   4.184 -0.2756  0.0575 -0.0341
13535W        W29344   6.934  18.249   3.355 -0.3543 -0.1383  0.0411
13536W        W29345   7.224   1.462  12.129  0.1272  0.0706  0.1034
13537W        W29346   3.384  11.902  12.244 -0.2408  0.0747 -0.0159
13538W        W29347  17.037  13.416  14.765 -0.0929 -0.0629  0.1488
13539W        W29348   1.032   7.552   1.786  0.0112  0.0714  0.0431
13540W        W29349   7.865   8.867   0.857  0.0664 -0.0693  0.2250
13541W        W29350  16.084  11.252   3.234 -0.0192 -0.0816  0.2632
13542W        W29351  18.383   1.426   0.391 -0.1373  0.2492 -0.2897
13543W        W29352  12.834  10.794  13.123  0.3315  0.0395 -0.1511
13544W        W29353   2.701   3.934   0.278  0.0015  0.0182 -0.0039
13545W        W29354  13.433  18.238  13.697 -0.0199  0.0031  0.0931
13546W        W29355   6.159  12.693   9.993  0.2503 -0.2517  0.0932
13547W        W29356   9.753   1.274  11.970 -0.0144 -0.2561  0.1159
13548W        W29357  14.996   7.947  10.394 -0.0293  0.2040 -0.1640
13549W        W29358  18.343   0.453   3.039 -0.2618 -0.0461 -0.0664
13550W        W29359   9.761   4.971   1.399  0.1746  0.1229 -0.2132
13551W        W29360   8.736   9.850   1.543  0.2700  0.1430  0.2726
13552W        W29361  17.229  17.554  10.824 -0.1540  0.1210 -0.0719
13553W        W29362   6.407  17.761   1.364 -0.0042  0.1093  0.0480
13554W        W29363   0.150   7.267  11.162  0.1455  0.0266  0.1123
13555W        W29364   8.224   7.123   1.102  0.0513 -0.0314  0.3204
13556W        W29365   2.749  12.902   2.271 -0.4730  0.3435 -0.0688
13557W        W29366   0.690   6.923   4.939 -0.2396 -0.0493 -0.0034
13558W        W29367  13.512   1.087  10.366  0.2860  0.0098  0.1369
13559W        W29368  13.802   5.787   5.154  0.2440  0.1454 -0.0220
13560W        W29369  17.341  16.588  12.227  0.0463 -0.2899  0.1018
13561W        W29370  15.366   8.880  10.928 -0.1238  0.1778  0.1442
13562W        W29371   4.230   8.799  14.221  0.2911  0.1750 -0.2370
13563W        W29372  11.526  18.931  12.061  0.2675 -0.0468 -0.2463
13564W        W29373   9.022   5.422   2.640  0.1510 -0.4154 -0.3419
13565W        W29374  17.707   1.805   5.628  0.0392  0.1312 -0.1626
13566W        W29375   9.858   1.588   3.979 -0.0308 -0.0344  0.3520
13567W        W29376   4.014  18.730  14.466  0.1812  0.3755 -0.3358
13568W        W29377   0.224  13.421  13.147  0.0606  0.0921  0.2859
13569W        W29378  15.678  13.985   1.211  0.1504  0.0777 -0.0496
13570W        W29379   8.985   1.019   3.038 -0.1337  0.0538  0.0541
13571W        W29380  11.300  10.378  12.210 -0.0542 -0.1344  0.2840
13572W        W29381   9.178   2.588   1.172 -0.2142  0.1539  0.0698
13573W        W29382   4.559   6.311   0.776  0.3029 -0.0015 -0.0778
13574W        W29383   3.282   9.066   0.213 -0.0765 -0.2167  0.5088
13575W        W29384   4.147   6.162   1.512 -0.2365 -0.2797 -0.1026
13576W        W29385   0.840  11.136  10.813  0.1222 -0.5881  0.0150
13577W        W29386   0.643  11.259   2.088  0.1748  0.0938  0.1204
13578W        W29387   1.639  12.030  14.008 -0.1905  0.2721 -0.2036
13579W        W29388   5.436   2.121   1.218 -0.0062 -0.2485 -0.2254
13580W        W29389  16.000   4.177  14.138 -0.0918  0.1171 -0.3121
13581W        W29390  10.451   8.097   1.738  0.1777 -0.1471 -0.0915
13582W        W29391   2.528   2.357  15.111  0.3403  0.1629 -0.3793
13583W        W29392  15.576   5.241  11.971  0.0873 -0.2002 -0.1788
13584W        W29393   7.828  13.076  12.850 -0.2861  0.1832 -0.3325
13585W        W29394  16.484   7.856  12.491  0.4150  0.0328 -0.0296
13586W        W29395   0.924  14.486   0.994 -0.1334 -0.1081 -0.1100
13587W        W29396   8.214  18.856   1.585  0.0425 -0.2322 -0.2855
13588W        W29397   0.146   2.838  14.784 -0.0715  0.1631  0.1276
13589W        W29398   3.992   0.702  13.775  0.0286  0.1235 -0.4482
13590W        W29399  12.571  11.120   4.269 -0.0472  0.0361  0.0897
13591W        W29400   9.196  14.055   4.920  0.1134 -0.2741  0.1173
13592W        W29401  10.737   4.390  13.706 -0.0682  0.0017 -0.1642
13593W        W29402  16.908   4.915  13.075  0.0916  0.0928 -0.1147
13594W        W29403   6.356  15.978   3.526 -0.1933 -0.1661 -0.2307
13595W        W29404   0.613   5.039  13.346  0.3617 -0.2027 -0.1391
13596W        W29405  14.103  10.514   1.718 -0.0627  0.0123 -0.2570
13597W        W29406  16.418   6.436   0.011  0.2347  0.1235  0.1250
13598W        W29407   2.342   5.283   3.067 -0.1312 -0.1141  0.2955
13599W        W29408  10.297  11.019  10.347 -0.1063 -0.0913 -0.0151
13600W        W29409  13.463   6.193   5.038  0.0045 -0.3229 -0.0047
13601W        W29410   2.853   6.258   2.332 -0.0606 -0.0890  0.2758
13602W        W29411  18.857   5.787  12.610  0.0867 -0.0154  0.2815
13603W        W29412  15.005   0.572   4.749  0.0002  0.1842  0.0688
13604W        W29413   5.503  12.651   5.070 -0.0826 -0.2082 -0.0835
13605W        W29414  16.578  12.741   3.785 -0.2535 -0.2095  0.2320
13606W        W29415   8.656   1.222   9.799 -0.0301  0.1075  0.1668
13607W        W29416   1.212   0.406   4.872  0.0097 -0.0591 -0.0708
13608W        W29417   1.764   3.735  14.802  0.1273 -0.2435  0.1594
13609W        W29418  17.507   8.417  13.193 -0.1925 -0.1512  0.3043
13610W        W29419   2.163  17.160   0.297 -0.0366 -0.0231 -0.0986
13611W        W29420  12.628   3.663   4.506 -0.3443 -0.1058  0.1410
13612W        W29421  12.178  11.689  10.537 -0.3280  0.1863 -0.2168
13613W        W29422   4.369  14.701   4.917  0.0033 -0.1357 -0.0085
13614W        W29423   7.391  14.921   4.836  0.1229  0.0870 -0.1604
13615W        W29424   7.806   9.513  15.067 -0.1536 -0.0777 -0.2134
13616W        W29425   8.100  10.951  14.147  0.1884 -0.1444 -0.5438
13617W        W29426   1.413  18.256   2.369 -0.2097  0.0730  0.0177
13618W        W29427   8.088  12.131  12.839 -0.0453 -0.2111  0.1065
13619W        W29428  15.131   4.481  13.144  0.1538  0.1806 -0.1144
13620W        W29429   2.284   2.654  10.785  0.4582 -0.0152  0.2394
13621W        W29430  15.443  13.420   5.066  0.0107  0.2719  0.2386
13622W        W29431   4.141  15.723  14.361 -0.0579 -0.0921  0.2208
13623W        W29432  12.433   4.437   1.030 -0.2222 -0.1370 -0.2542
13624W        W29433  13.799  10.109   5.209 -0.0383 -0.3402 -0.3888
13625W        W29434   6.026   0.151  15.277  0.0375  0.0438 -0.0567
13626W        W29435   9.582  18.051   2.718 -0.0393  0.0991  0.1223
13627W        W29436  16.889   3.795  14.776 -0.0366  0.0807 -0.2027
13628W        W29437   6.932  13.922   1.753  0.0070 -0.0563  0.1966
13629W        W29438   4.930  18.071   0.034 -0.0775 -0.1320  0.0775
13630W        W29439   4.738   3.482   2.851  0.1212 -0.0977  0.2386
13631W        W29440   2.311   1.349   4.242 -0.0808 -0.0380 -0.2747
13632W        W29441  18.190   5.211   2.758 -0.0511 -0.3657  0.1115
13633W        W29442  14.768   4.048   5.091 -0.1404  0.0959 -0.0251
13634W        W29443   0.854  17.208   0.214 -0.3958 -0.0258  0.3380
13635W        W29444   3.084  14.651   4.420  0.0804 -0.1365 -0.0937
13636W        W29445   6.923  12.197   0.704  0.1340 -0.0503  0.2540
13637W        W29446   8.827  17.077   5.131 -0.1580  0.1379  0.3044
13638W        W29447  17.826  13.932  10.841  0.0528 -0.2343 -0.0605
13639W        W29448   5.940   2.699  12.565 -0.0102 -0.0916  0.0531
13640W        W29449   1.523   8.117   5.325  0.2697  0.0143 -0.1540
13641W        W29450  18.657   8.342  14.102  0.2775 -0.1977  0.0151
13642W        W29451   3.490  10.854   5.410  0.1261 -0.0331  0.0778
13643W        W29452   3.243   7.036  11.318 -0.0313  0.1237 -0.1389
13644W        W29453  13.315   0.488   0.630  0.0199 -0.4279 -0.0730
13645W        W29454  12.496  17.244  12.378  0.1409  0.1084 -0.2400
13646W        W29455  11.776   7.250  13.874  0.0915 -0.1424 -0.2743
13647W        W29456   4.470   2.331  11.282  0.1468 -0.1225 -0.1625
13648W        W29457  13.209  14.883   0.039 -0.2987 -0.1516  0.2350
13649W        W29458   7.899   3.953   1.047 -0.0634  0.1352  0.0659
13650W        W29459  13.546  12.208  15.051 -0.0782 -0.0464 -0.0045
13651W        W29460  12.102  10.832   1.293 -0.2011 -0.0165 -0.0242
13652W        W29461   5.677   1.134  13.226 -0.2265 -0.1204 -0.0277
13653W        W29462   1.989  13.855  13.342  0.6042 -0.2498  0.1850
13654W        W29463   7.109   3.664  10.294  0.0258  0.1165 -0.1625
13655W        W29464  13.676  18.573  12.654  0.0028  0.2146 -0.2397
13656W        W29465  10.967   6.179   2.911  0.0780  0.2004  0.2208
13657W        W29466   5.232   9.815   9.085  0.0183 -0.0328 -0.0858
13658W        W29467   9.735   2.244  12.938  0.2718  0.1642 -0.0862
13659W        W29468   0.122   2.702   2.062  0.0767  0.1194  0.0095
13660W        W29469  11.803  10.796  14.431 -0.0590 -0.0247  0.2203
13661W        W29470   9.632  14.269  11.858  0.0185  0.0955 -0.3995
13662W        W29471  13.026   8.978  11.454  0.0324  0.0873 -0.2956
13663W        W29472  14.097   4.757  10.673  0.0489 -0.2283  0.1650
13664W        W29473   6.320  17.299   1.559  0.0984  0.0156 -0.0685
13665W        W29474  18.762  15.348   3.684 -0.1238  0.0474 -0.0534
13666W        W29475   2.857   2.103   2.279 -0.0623  0.4091 -0.1259
13667W        W29476  18.603  14.505  12.411 -0.3219  0.0233  0.1432
13668W        W29477   5.974  11.940  10.453 -0.0012  0.2977 -0.0769
13669W        W29478  16.071   5.516   5.995  0.1246  0.1178  0.0425
13670W        W29479   7.368  10.332  12.434  0.3571  0.2289 -0.2906
13671W        W29480  13.029   3.473  10.672 -0.1843  0.0517 -0.0583
13672W        W29481   0.412   4.890  11.821  0.1164 -0.2082 -0.3250
13673W        W29482  10.196  18.923   2.972 -0.1795 -0.0415  0.0743
13674W        W29483   5.170   3.949  15.027 -0.3478  0.0176 -0.0900
13675W        W29484   0.724   5.658  12.466 -0.1045 -0.0202  0.1729
13676W        W29485   7.897  17.759  11.068 -0.1200  0.0925  0.2319
13677W        W29486   3.742   6.314  11.888  0.0568  0.1872  0.0720
13678W        W29487   8.068   6.830  14.667  0.0333 -0.0552  0.2106
13679W        W29488   5.755   7.963  13.219 -0.0576  0.0829 -0.0649
13680W        W29489  14.013   7.512  12.505 -0.1136 -0.0460 -0.0663
13681W        W29490   2.294  16.761   0.550 -0.2407 -0.0531  0.0644
13682W        W29491   2.715  18.755  14.963 -0.0911  0.1221  0.1253
13683W        W29492  17.738   6.024   4.071  0.1974  0.2113  0.1591
13684W        W29493  12.590   1.853   2.492  0.0916 -0.0301  0.1188
13685W        W29494  16.802  10.708   2.686 -0.1240  0.0426 -0.1347
13686W        W29495   5.705  14.440   2.842 -0.1653  0.0295 -0.0044
13687W        W29496  14.975  14.306  14.579  0.1291  0.0602 -0.1029
13688W        W29497   6.387   8.437   4.281  0.0946 -0.0388 -0.0921
13689W        W29498   7.716  18.253  11.017  0.1990 -0.2648  0.2716
13690W        W29499  17.368   3.949  13.109  0.0216 -0.5592  0.3594
13691W        W29500  10.484  10.662  12.481 -0.0301 -0.0596 -0.0993
13692W        W29501  17.563  16.684   5.427 -0.1648 -0.0059  0.1799
13693W        W29502   7.260  14.774  10.350 -0.2178 -0.0484 -0.0265
13694W        W29503   9.525   9.194  15.014 -0.1610 -0.1374  0.2624
13695W        W29504  10.901   6.801  14.853 -0.1210 -0.2241 -0.0165
13696W        W29505   0.899   0.220   3.037 -0.1017 -0.3323 -0.1482
13697W        W29506   3.184  18.632   0.047  0.0353 -0.1091 -0.0343
13698W        W29507   3.311  13.861   0.977 -0.4152 -0.2411 -0.0964
13699W        W29508   2.745   6.948  14.390 -0.0866 -0.0913 -0.0833
13700W        W29509   7.850  12.504  11.225  0.0647 -0.2058  0.2889
13701W        W29510  12.221  12.137  11.393  0.0472 -0.1171  0.0730
13702W        W29511  18.619  14.970  11.560 -0.0271  0.1657  0.1075
13703W        W29512   1.158   6.416   2.268 -0.3112  0.1115  0.0186
13704W        W29513   3.470   7.793  13.612  0.2144 -0.1267 -0.0245
13705W        W29514  17.541  12.567  14.981 -0.0861 -0.0625  0.4923
13706W        W29515  18.101   0.751   0.369 -0.1186  0.2015  0.0694
13707W        W29516   7.000  14.845  11.292  0.0061 -0.4776 -0.1221
13708W        W29517  10.787   0.977  12.915  0.0589  0.0258  0.1765
13709W        W29518  17.592   9.953   1.368  0.1423 -0.0670 -0.5812
13710W        W29519  10.152  15.352   0.010  0.2016  0.0886  0.1182
13711W        W29520  17.054  13.567  12.062  0.0371  0.1666 -0.1981
13712W        W29521   5.906   3.815   1.766 -0.2144 -0.0712  0.1431
13713W        W29522   5.816   8.068   1.807  0.0323 -0.1223  0.0675
13714W        W29523   0.579  13.084   4.462 -0.0281  0.2178 -0.1173
13715W        W29524  11.715   3.216   5.393 -0.0673  0.0810  0.0311
13716W        W29525  17.358   5.496  13.747 -0.4115  0.3645  0.0480
13717W        W29526   0.558   3.852   5.707 -0.4200 -0.0749  0.0384
13718W        W29527  10.302   8.557   9.535 -0.2271 -0.1212 -0.0581
13719W        W29528  17.560  14.265   4.200 -0.0377 -0.1094 -0.1318
13720W        W29529   9.871  14.978  11.477  0.1908 -0.2128 -0.1050
13721W        W29530   9.039   8.881  12.520  0.0872  0.0273 -0.1982
13722W        W29531   8.013   4.326  11.919  0.1437 -0.1643 -0.0014
13723W        W29532   2.824   4.959   0.029  0.0568  0.1662 -0.4196
13724W        W29533  12.258   7.499  12.475 -0.0153 -0.0894  0.0815
13725W        W29534   6.592  16.060  15.203 -0.0263 -0.3699 -0.0265
13726W        W29535  15.016  15.716   5.341  0.0045 -0.0306  0.3278
13727W        W29536  15.459   3.421   9.607 -0.1433  0.5623  0.2675
13728W        W29537  15.395   2.950   1.617 -0.2491  0.1395  0.1378
13729W        W29538  16.426   7.665   2.393  0.5049  0.1921 -0.2162
13730W        W29539   0.828  10.645   1.418 -0.1344 -0.0428  0.1372
13731W        W29540  18.690  10.318   3.154 -0.1127 -0.2741  0.0273
13732W        W29541   5.853  10.050   1.485  0.0213  0.0957 -0.1557
13733W        W29542   9.446  18.482   3.099 -0.2257 -0.0957  0.0648
13734W        W29543  15.388  17.639   4.926 -0.4327  0.3185 -0.1257
13735W        W29544   3.497  17.496  13.812  0.1283 -0.1830  0.1939
13736W        W29545  17.214  13.063  13.184  0.0402  0.1041 -0.2491
13737W        W29546  13.188   8.640  12.838 -0.0735  0.0108 -0.0056
13738W        W29547  17.631   9.415  12.933 -0.0584 -0.3517  0.0731
13739W        W29548  15.798  11.830  12.083 -0.1879  0.1551 -0.0995
13740W        W29549   1.216   1.191   4.125 -0.2213  0.0617 -0.4180
13741W        W29550  13.939  10.961  11.726 -0.3303  0.1503 -0.2547
13742W        W29551  12.181   8.647  12.419  0.0581 -0.1935 -0.0379
13743W        W29552   6.822  14.825  13.172  0.3172  0.0712  0.1710
13744W        W29553   5.558   3.476   4.327 -0.1521  0.1531  0.1114
13745W        W29554  12.614   1.272  12.521  0.0904  0.2656 -0.1342
13746W        W29555  11.455   5.338   1.364 -0.0048 -0.1030  0.2511
13747W        W29556   7.174   5.532   0.346  0.2856  0.0321  0.0803
13748W        W29557   0.596  11.734  13.667  0.0602 -0.0523  0.1567
13749W        W29558  10.747  10.359  14.977  0.1781  0.1658  0.0400
13750W        W29559   1.180   1.112  13.813 -0.2665  0.1077  0.2080
13751W        W29560   0.458  18.783   1.446  0.0478  0.0612  0.2027
13752W        W29561   9.841  18.195  11.817 -0.0805 -0.2365 -0.5861
13753W        W29562   8.380  13.768   2.553  0.1726 -0.0174  0.1353
13754W        W29563   4.289  15.087   3.788  0.2381 -0.0110 -0.1761
13755W        W29564  13.012   3.057  10.194  0.2263 -0.0728 -0.1509
13756W        W29565   3.950  14.314  12.408  0.3106 -0.2614 -0.0376
13757W        W29566   6.754   8.223   2.473  0.0937  0.1627 -0.1680
13758W        W29567   0.876  16.666  11.995 -0.1964 -0.4434 -0.0402
13759W        W29568   4.886  18.507  14.124  0.1074  0.1035  0.0818
13760W        W29569   5.708  12.420   0.812  0.2339 -0.3110 -0.2352
13761W        W29570  13.311   1.196  14.199  0.1652 -0.1585 -0.3555
13762W        W29571  17.278   4.876  12.361  0.1414 -0.0296 -0.0307
13763W        W29572  19.000  17.172   1.409 -0.1603  0.2967  0.1724
13764W        W29573  13.608  12.305   4.739 -0.2634  0.3926  0.2611
13765W        W29574   6.793   3.710   0.951  0.0560  0.0889 -0.2418
13766W        W29575  11.328  16.269   4.703  0.2448  0.2411 -0.0520
13767W        W29576   0.982   0.017   0.569  0.0677  0.3051 -0.4277
13768W        W29577  13.834  14.581  14.026  0.1523  0.2430  0.2935
13769W        W29578   4.825   5.958   1.888  0.1956  0.0835 -0.2899
13770W        W29579  18.538  14.851  14.371  0.1170  0.0333  0.3527
13771W        W29580   3.209   0.622   3.645 -0.2070 -0.0796 -0.3047
13772W        W29581  18.235   8.102  14.914 -0.0452 -0.1724  0.5053
13773W        W29582   2.924  10.765   1.391 -0.2769  0.3043 -0.1358
13774W        W29583  16.110  16.739   2.603 -0.2339  0.1520  0.2925
13775W        W29584   0.296   3.699   2.982 -0.2339 -0.1552  0.2053
13776W        W29585   0.599   7.408  11.340  0.0694 -0.0601  0.1524
13777W        W29586   3.483  16.487   4.498  0.1994 -0.2965 -0.1329
13778W        W29587  13.726   3.580   3.320 -0.0979  0.2181 -0.1195
13779W        W29588  12.078  13.786   0.924 -0.2032  0.1664 -0.1795
13780W        W29589   2.878  12.599  10.437 -0.1625  0.2268 -0.0471
13781W        W29590  13.304  16.705  11.935 -0.3268 -0.0392 -0.1233
13782W        W29591   1.339   8.356   2.233  0.0065 -0.4054  0.0886
13783W        W29592   1.391   7.320  12.568  0.1455  0.5598  0.3221
13784W        W29593   1.882   3.285   5.438 -0.1870  0.2839  0.0807
13785W        W29594  18.730   0.913   3.845  0.0030 -0.0142  0.1627
13786W        W29595  18.914   4.479  10.305 -0.0946  0.0324  0.0441
13787W        W29596  14.781  15.177   3.630  0.0590 -0.3433  0.1399
13788W        W29597   0.355   0.551   0.098  0.0363  0.2798 -0.1533
13789W        W29598  12.453   5.535  11.816 -0.1145  0.0496  0.1967
13790W        W29599   7.711  15.136  12.403  0.3654  0.1461 -0.3960
13791W        W29600  11.883   0.750  12.663  0.1605 -0.1542  0.0271
13792W        W29601  10.703  16.428  12.466  0.1062  0.2909  0.0082
13793W        W29602   0.741   8.629  11.005  0.0146 -0.1025  0.1278
13794W        W29603   0.744  18.478  15.044  0.2623 -0.0645  0.0816
13795W        W29604  17.879  14.942   0.622  0.0492 -0.0222  0.0648
13796W        W29605  14.290   2.063   4.793  0.2325 -0.2222  0.0844
13797W        W29606   5.610  13.498  13.005 -0.2367  0.0318  0.1627
13798W        W29607  16.128   1.583   2.765 -0.0800 -0.1671  0.1953
13799W        W29608   7.729  14.655   4.585 -0.4189  0.0133  0.0737
13800W        W29609   6.750  14.737   3.587  0.0669 -0.0809 -0.2086
13801W        W29610   0.594   6.708  10.831 -0.3348 -0.2989  0.4834
13802W        W29611  16.877  15.330   1.446 -0.3291 -0.3414  0.0390
13803W        W29612   1.195   0.623   3.505  0.0772  0.0267  0.1684
13804W        W29613   3.168   3.356   5.006  0.1305 -0.3214 -0.0102
13805W        W29614   8.559   5.621   1.738  0.0144 -0.0402 -0.0322
13806W        W29615  16.774  18.901   1.150  0.3067  0.1174  0.2674
13807W        W29616  18.516   7.723  10.858  0.0688  0.2397  0.1470
13808W        W29617   5.494  16.554   0.332  0.2633  0.0304  0.0181
13809W        W29618   3.972   3.052  12.894  0.3556  0.0322  0.2073
13810W        W29619  15.048  10.640   2.798 -0.0105  0.0751  0.2859
13811W        W29620  12.355  10.874   4.689 -0.0735  0.1747 -0.0777
13812W        W29621   0.584   7.784  10.612  0.0592  0.1180 -0.3370
13813W        W29622   8.101   1.578  12.786 -0.1905 -0.2747 -0.1794
13814W        W29623   6.872   3.191  12.848  0.0797  0.0711 -0.0117
13815W        W29624  15.292  10.605  11.591  0.0500 -0.0803 -0.0945
13816W        W29625   1.448  14.806  13.970  0.1067  0.1471 -0.0660
13817W        W29626  15.528  10.790   4.657  0.0452  0.0488  0.0292
13818W        W29627  15.534  10.342   5.039 -0.0280  0.0418 -0.0526
13819W        W29628  10.088   6.664  14.899  0.2797  0.2579 -0.2232
13820W        W29629   7.305   2.970  13.207 -0.0767  0.1329  0.0545
13821W        W29630  10.929   3.066   0.254 -0.0072 -0.3130  0.0006
13822W        W29631   1.453  13.355  12.187  0.0603  0.0958  0.0432
13823W        W29632  18.751  17.070  12.656  0.0939  0.1414 -0.0856
13824W        W29633  18.671   8.343   0.972 -0.1153 -0.0755 -0.0880
13825W        W29634  15.767   9.193  14.431  0.0542 -0.0486 -0.2400
13826W        W29635   0.511   7.255  14.965  0.1784  0.0344  0.0536
13827W        W29636   1.852   6.200   4.968 -0.0518 -0.1819  0.1093
13828W        W29637   9.317   3.189   1.743  0.2178  0.0753 -0.2032
13829W        W29638   9.445  16.178  12.993 -0.1900  0.4297  0.0007
13830W        W29639   9.836   2.800  14.687  0.3724  0.0951 -0.0638
13831W        W29640  11.991   4.296   3.061  0.3265 -0.1389 -0.1431
13832W        W29641  10.250  12.646   9.892  0.4562 -0.0934 -0.1360
13833W        W29642  11.603   8.589   1.665 -0.2606  0.0339  0.0552
13834W        W29643   4.008  13.687  13.155  0.0642 -0.0450  0.1805
13835W        W29644  10.091   2.551   1.220  0.1449  0.2522  0.0498
13836W        W29645   5.387  13.598   2.714  0.0859  0.0085  0.1837
13837W        W29646   7.817  17.153   0.190 -0.2662 -0.2535 -0.0033
13838W        W29647   5.656  19.029  11.499  0.0032  0.0270  0.0615
13839W        W29648   0.243  16.750   0.618  0.4149  0.2269  0.1295
13840W        W29649  14.519  14.175  12.397 -0.0011  0.2442  0.2283
13841W        W29650   2.094   7.726  11.327  0.0294  0.1961  0.3283
13842W        W29651  16.832  14.767  14.870  0.1489 -0.1272 -0.0493
13843W        W29652   3.820  13.115   0.926  0.0183 -0.2383 -0.3601
13844W        W29653  16.764   2.042  14.249  0.1158  0.3257 -0.0811
13845W        W29654  10.575  15.565   0.590 -0.2136  0.1382  0.0761
13846W        W29655  12.703  15.227  14.785 -0.2712  0.1841  0.3608
13847W        W29656  13.229  10.880   4.905  0.0497 -0.0619  0.2367
13848W        W29657   0.339   1.937   3.146 -0.1139 -0.1885 -0.1901
13849W        W29658  11.529  12.874  13.295  0.1706  0.1059  0.0179
13850W        W29659   4.236   9.167   3.463 -0.1921 -0.1349  0.1713
13851W        W29660  11.245   6.573  12.750  0.3009  0.1977  0.1636
13852W        W29661  11.734   9.894   5.049  0.0433  0.0856  0.1689
13853W        W29662  16.853   2.073  14.722 -0.3186  0.0208  0.0752
13854W        W29663   7.551   0.390   9.129  0.0107  0.0190 -0.0111
13855W        W29664  14.780  14.511  14.159  0.1086  0.0292 -0.1981
13856W        W29665  14.990  11.763   2.382 -0.2960  0.0537 -0.4999
13857W        W29666   4.892  18.815  12.171 -0.1554  0.3679  0.0692
13858W        W29667   0.551   7.746   2.234 -0.0281 -0.0255  0.0950
13859W        W29668   2.569   3.532  14.297  0.2040 -0.1914  0.0311
13860W        W29669  16.843  16.473  13.344  0.1623 -0.0593 -0.2651
13861W        W29670  17.481   0.930  10.584 -0.1494  0.2709  0.0820
13862W        W29671   6.720   0.462   3.204 -0.0094 -0.0986  0.0971
13863W        W29672  11.580   6.080   5.519  0.1609  0.0853  0.1180
13864W        W29673  16.803   5.424  12.075  0.2793 -0.2157  0.2544
13865W        W29674  15.085   5.128   9.972 -0.0929  0.0769  0.1475
13866W        W29675  15.059  16.923   4.692 -0.0297  0.0319  0.1230
13867W        W29676  16.481   1.913   2.915  0.1163  0.0187 -0.1291
13868W        W29677  11.501   9.207  13.762  0.0497 -0.0551  0.1401
13869W        W29678   4.982   4.747   1.665  0.6916 -0.3685 -0.1312
13870W        W29679  14.970  10.385   2.153 -0.0353 -0.2906  0.0847
13871W        W29680  18.212  15.366   3.661 -0.3054 -0.0810  0.0262
13872W        W29681   8.760  11.045   4.331 -0.2526  0.0523 -0.1750
13873W        W29682  13.343  11.629  10.513  0.1322  0.1591  0.1345
13874W        W29683   8.195   4.601   4.171 -0.4024 -0.4237 -0.0710
13875W        W29684  18.735  12.729  10.310 -0.3511  0.1564  0.4981
13876W        W29685  18.478   2.451   4.214 -0.3383  0.1108  0.2459
13877W        W29686  12.530   3.521  10.884 -0.1919  0.0810 -0.1467
13878W        W29687   0.087  16.325   4.169 -0.0555 -0.0891 -0.4144
13879W        W29688  13.192  17.949  14.242 -0.2169 -0.2620  0.0490
13880W        W29689   2.127  16.840  14.814  0.2067  0.1494 -0.1281
13881W        W29690  16.954   2.417  13.462 -0.2040 -0.0481 -0.0281
13882W        W29691   8.004  16.713   4.250  0.0855  0.0321 -0.1502
13883W        W29692   5.314   3.442   0.535 -0.2312 -0.1449 -0.0409
13884W        W29693   2.064  17.055  11.998 -0.1348 -0.1247 -0.0287
13885W        W29694   6.183  12.284  13.816  0.0051  0.2429  0.2627
13886W        W29695  12.928   7.997  10.621 -0.3378 -0.3498  0.0906
13887W        W29696  13.974  13.691   9.748  0.2146  0.2247  0.1454
13888W        W29697   8.992  11.495  12.496  0.1406  0.0048 -0.2229
13889W        W29698  13.767  16.328   2.984  0.0736 -0.0362 -0.1529
13890W        W29699  17.385  10.007  12.242 -0.2427  0.4313 -0.0074
13891W        W29700   7.059   6.113  14.115 -0.0594  0.2869  0.0887
13892W        W29701   1.377  12.257  13.277  0.0649 -0.1609  0.0317
13893W        W29702   5.155   8.492  12.660  0.0678  0.2401  0.1896
13894W        W29703  17.694  18.746  11.873 -0.0175  0.1651 -0.2674
13895W        W29704  12.452  13.450   0.987 -0.1549  0.0269  0.1104
13896W        W29705  11.632  10.886   1.428  0.1457 -0.2994 -0.0219
13897W        W29706  15.040  17.854  11.268 -0.0599 -0.0316 -0.1031
13898W        W29707   0.477  17.647  11.861 -0.0108 -0.2297  0.0017
13899W        W29708   7.744  17.844  10.579  0.2380  0.1938 -0.0110
13900W        W29709   7.894  15.360   3.178 -0.0795 -0.1350  0.0825
13901W        W29710  15.424   8.817  11.959  0.1473  0.0166 -0.2814
13902W        W29711   7.729  16.274  13.587 -0.0778 -0.3362 -0.0722
13903W        W29712  14.779   0.254  12.003  0.0146  0.0285 -0.0431
13904W        W29713  14.895  15.631  11.525  0.1496  0.0049  0.1939
13905W        W29714   0.654  12.357  15.192  0.1442  0.0713  0.0071
13906W        W29715   3.629   5.275  11.036  0.0092 -0.0054  0.3286
13907W        W29716  13.176  17.865  11.306  0.1618  0.2154 -0.2054
13908W        W29717  12.318  13.496   0.525  0.1351 -0.0701  0.1148
13909W        W29718   2.798   6.201   0.351 -0.3384  0.4046  0.0922
13910W        W29719  10.966  12.831  15.000 -0.1658 -0.0529 -0.2834
13911W        W29720   7.926   4.494  10.823 -0.6908 -0.1985  0.0542
13912W        W29721   2.973   4.059  10.934  0.0277 -0.1184 -0.5464
13913W        W29722   1.870  14.326   1.392 -0.3051  0.0795 -0.1177
13914W        W29723   7.208   8.964   3.674 -0.2039 -0.0198  0.2265
13915W        W29724  13.005   2.340  14.735 -0.0442 -0.0420  0.1262
13916W        W29725   7.359   7.057   0.006  0.1921 -0.0436  0.0972
13917W        W29726  15.330  17.690  12.660  0.0209 -0.0275  0.0317
13918W        W29727   1.932  14.602  14.011  0.3957 -0.1663  0.1911
13919W        W29728   3.402  18.594   4.090  0.1932 -0.0178 -0.0582
13920W        W29729   7.033   1.053  12.868  0.3607 -0.3452  0.0660
13921W        W29730  18.241   9.555   1.734 -0.3905 -0.1474  0.0292
13922W        W29731  12.277  15.480   1.215  0.0113 -0.3379  0.4523
13923W        W29732   3.714  17.099   3.272 -0.3082 -0.0785 -0.3767
13924W        W29733   2.889   5.359  12.250 -0.2836 -0.1900  0.0522
13925W        W29734   6.591  15.354   9.487  0.2076  0.1777  0.1727
13926W        W29735  18.751   0.740   2.147 -0.2774 -0.2153 -0.1017
13927W        W29736  16.807  15.256   4.669  0.0146  0.0771 -0.0307
13928W        W29737  14.450   4.011   2.230 -0.2090 -0.0851 -0.0951
13929W        W29738   9.618   0.641   1.896  0.1939 -0.0884  0.1468
13930W        W29739   5.326   3.173  14.838  0.3796 -0.1395 -0.3330
13931W        W29740   5.564  15.271   1.347 -0.1415  0.4545 -0.1184
13932W        W29741   1.221   1.176  12.260  0.2781  0.1347  0.0285
13933W        W29742  11.497  15.491   4.164  0.2319  0.1142 -0.4461
13934W        W29743   4.164   2.214   1.492 -0.0413 -0.1013 -0.0351
13935W        W29744  18.340  15.088  14.750 -0.2088 -0.2536 -0.2903
13936W        W29745  14.959   5.390   1.087 -0.1691  0.1778 -0.1187
13937W        W29746  10.785   0.615   1.261  0.0951  0.0379  0.3198
13938W        W29747   1.515   1.391  11.758  0.2099  0.2286  0.0970
13939W        W29748   9.315   7.216   5.089  0.0994  0.2072 -0.1938
13940W        W29749  12.110  15.649   1.677 -0.2086 -0.1841  0.0586
13941W        W29750   3.829   6.170   2.138 -0.2509 -0.0180  0.1445
13942W        W29751   5.646   0.963  14.278  0.1032  0.1946 -0.1196
13943W        W29752  18.526  18.385  13.393  0.0265  0.1372  0.0261
13944W        W29753  17.129   9.916  11.690 -0.3320  0.1364 -0.2445
13945W        W29754   8.712   5.398   0.362  0.0378 -0.2860  0.0549
13946W        W29755  16.117  15.405  14.884 -0.2492 -0.0039 -0.3401
13947W        W29756   3.510  16.994   0.649 -0.2905 -0.1309 -0.1828
13948W        W29757   9.389  11.385   0.185  0.0193 -0.0188 -0.0094
13949W        W29758  18.665  10.252  13.044 -0.2209  0.0274 -0.1700
13950W        W29759   6.006   2.105   0.032  0.3627  0.0939 -0.0269
13951W        W29760   1.775  12.656   3.849 -0.2447  0.1374 -0.0452
13952W        W29761   7.837  17.949  11.547  0.0909 -0.3374  0.0235
13953W        W29762   0.584   8.073  11.801  0.1976 -0.3889 -0.3648
13954W        W29763   9.876  17.535   1.976 -0.5586 -0.1562  0.0210
13955W        W29764  17.263   1.107   4.104  0.0581 -0.0894 -0.1490
13956W        W29765   8.385  13.400  14.069 -0.0981 -0.1589 -0.1106
13957W        W29766  18.590   2.652  12.381 -0.1376 -0.2478 -0.3796
13958W        W29767   1.991   6.025   2.983 -0.2509  0.2574  0.0988
13959W        W29768  18.051  16.809   3.273  0.0949 -0.0468  0.3157
13960W        W29769   2.937  14.221  13.878 -0.1407 -0.3844 -0.0181
13961W        W29770   8.188  15.126   9.961  0.0570 -0.2955 -0.5435
13962W        W29771   5.141  12.767   1.440 -0.0733  0.3338  0.1211
13963W        W29772   1.050  17.140  13.673 -0.1487 -0.2810 -0.2891
13964W        W29773   9.135   6.369  10.598 -0.1210  0.1891 -0.0278
13965W        W29774   3.918   4.395  13.375 -0.1512  0.2346 -0.0844
13966W        W29775  15.818   7.887  14.773 -0.2408 -0.2030 -0.2276
13967W        W29776   6.127  17.002   1.923 -0.0138  0.0939 -0.4627
13968W        W29777  17.287   5.700  11.662 -0.1117 -0.2008 -0.0913
13969W        W29778   3.775   8.615  13.769 -0.1162  0.2527  0.1162
13970W        W29779   7.570   3.579  12.323 -0.3330  0.0790 -0.0713
13971W        W29780   7.648   3.080   3.567 -0.3024 -0.3083 -0.1235
13972W        W29781   5.169   0.320   0.353 -0.0667  0.1934  0.0947
13973W        W29782  16.585  15.890   3.525  0.0876  0.1219  0.2034
13974W        W29783  15.163   8.733   9.166  0.1816  0.4443  0.2754
13975W        W29784   9.446   9.968  11.141 -0.0520  0.1755  0.0137
13976W        W29785   4.534   2.441   1.792  0.3973 -0.1561  0.0573
13977W        W29786  12.072   3.476  15.004 -0.2655 -0.1305  0.0099
13978W        W29787   3.941  17.722   2.223  0.1068  0.2546 -0.0406
13979W        W29788  14.189  11.815   6.081  0.1143  0.0597 -0.0691
13980W        W29789  12.303  15.792   2.797  0.3202  0.2331  0.0774
13981W        W29790   8.424  17.680   4.404 -0.1724  0.0939 -0.1920
13982W        W29791   2.584   3.953   3.223  0.1612  0.0202  0.0254
13983W        W29792  18.134  13.087  11.689  0.1094  0.0000  0.1843
13984W        W29793  14.431   1.729  12.104  0.0222 -0.1848 -0.3842
13985W        W29794  14.988   7.496  12.201 -0.1533  0.3160 -0.0537
13986W        W29795  14.353  15.800   2.851 -0.0579 -0.0747  0.1783
13987W        W29796   8.738  18.561   1.471 -0.1286  0.2040  0.2283
13988W        W29797  11.058  15.848   0.634  0.0687 -0.0319 -0.0747
13989W        W29798  11.395   8.349   4.832 -0.0935  0.0615 -0.2822
13990W        W29799   0.940  10.063  14.928 -0.0255  0.0855 -0.1420
13991W        W29800  11.095   6.654  11.900 -0.2374  0.0581  0.4121
13992W        W29801   1.263   1.138   0.563 -0.6522 -0.3790 -0.2519
13993W        W29802  16.849  15.366  14.174  0.2125 -0.0129  0.0441
13994W        W29803  14.945  18.205  14.202  0.2310 -0.0802 -0.0798
13995W        W29804  16.185  18.765  14.059  0.3786  0.2093  0.0862
13996W        W29805   6.191   3.092   0.101  0.0510 -0.0515 -0.2216
13997W        W29806   7.863   5.011   4.419 -0.0967 -0.1942 -0.1365
13998W        W29807   4.433  14.981  13.922  0.0831 -0.0271  0.1634
13999W        W29808   7.825  18.897  11.438 -0.2644 -0.0237  0.1694
14000W        W29809   3.373  14.842   0.962  0.0534  0.1056  0.0162
14001W        W29810  13.166   2.121   9.910  0.1644  0.0545 -0.0393
14002W        W29811   0.953   4.494   5.003 -0.0754 -0.2398 -0.0452
14003W        W29812   0.102   1.003   5.513 -0.2731 -0.2934 -0.6652
14004W        W29813   9.502  15.790   1.703 -0.0317  0.2283  0.0945
14005W        W29814  11.706  12.868  10.448 -0.0624 -0.1173 -0.3742
14006W        W29815  11.700   2.644  12.949 -0.1912 -0.1163  0.0177
14007W        W29816  10.510  11.776   2.124  0.1037  0.2040  0.1077
14008W        W29817   0.893   7.832  11.431 -0.0268 -0.0516  0.0778
14009W        W29818  12.856   7.871   2.773  0.0032 -0.1208 -0.1430
14010W        W29819  12.346   9.663   9.871  0.0206  0.1335 -0.0207
14011W        W29820   2.657  17.694   0.387  0.1567  0.1138 -0.4989
14012W        W29821   4.718  10.272   1.442  0.0172  0.1348 -0.2559
14013W        W29822  18.476  11.761  11.906  0.2754  0.0566  0.2167
14014W        W29823   1.052   9.715   1.031 -0.1957 -0.0313 -0.4261
14015W        W29824   4.254  14.023  12.891 -0.2599  0.1514  0.1498
14016W        W29825   4.637  18.116   3.449 -0.4224  0.0090 -0.0498
14017W        W29826   0.295  18.329  10.489  0.0147 -0.1143  0.0223
14018W        W29827   7.263   7.206  12.070 -0.3770 -0.1922 -0.0636
14019W        W29828   2.703   0.297  13.314 -0.0968  0.1743  0.3332
14020W        W29829  11.790   2.909   9.558 -0.0269  0.1084  0.0647
14021W        W29830   2.840   8.361   0.083  0.0395  0.2446  0.0898
14022W        W29831  11.696   7.105   0.118 -0.1367 -0.3109 -0.0677
14023W        W29832  18.956   2.135  13.235  0.2166  0.3244  0.4077
14024W        W29833   9.859   1.944  10.239  0.0574 -0.0831 -0.0773
14025W        W29834  10.913   9.983  11.444 -0.0727  0.2837 -0.0639
14026W        W29835  13.062  11.757   3.655 -0.1718  0.0924 -0.0541
14027W        W29836   6.213  11.543  12.995 -0.2137  0.1203  0.0338
14028W        W29837   3.026  13.652   3.657 -0.0523  0.0675 -0.1032
14029W        W29838   0.674  14.295  12.037 -0.3741 -0.1042  0.0865
14030W        W29839   4.104   3.207   5.374  0.0785 -0.4245  0.0771
14031W        W29840   6.372  13.758   1.508  0.0111 -0.3318 -0.0665
14032W        W29841  14.984  11.453   5.370 -0.1747 -0.1567  0.2447
14033W        W29842  14.292   3.520   2.429  0.0293  0.0840  0.0407
14034W        W29843   7.497   4.324   0.926 -0.2244  0.0122 -0.2343
14035W        W29844  11.483   0.505   1.215  0.1957  0.0114  0.2763
14036W        W29845   9.019   9.769  11.827 -0.2206  0.3663  0.0187
14037W        W29846  14.916   3.910   1.996  0.2697 -0.1674  0.2137
14038W        W29847   0.010  15.152  12.957 -0.0488 -0.0305 -0.0473
14039W        W29848   0.323   1.453   0.946  0.1185  0.1281  0.0026
14040W        W29849   4.141   2.472   0.815  0.3138  0.0014 -0.1751
14041W        W29850   4.501   7.133  14.623 -0.1843  0.0770 -0.0014
14042W        W29851  18.638  15.454   0.357 -0.0772  0.0295  0.0568
14043W        W29852  10.239   5.040   1.174  0.1404 -0.2059  0.1360
14044W        W29853  18.431   6.887   0.158  0.0911  0.3574  0.1377
14045W        W29854   0.573   2.878  12.392 -0.0964 -0.3341  0.1599
14046W        W29855   7.592   7.529   3.975 -0.0575 -0.0888  0.2376
14047W        W29856   2.704   4.376  14.302  0.3553  0.2226  0.0377
14048W        W29857   8.612   2.182  14.874  0.2723  0.0283  0.1152
14049W        W29858   2.976  17.336  12.079  0.3054 -0.0910 -0.0476
14050W        W29859   0.542   3.918  12.443  0.0230 -0.1315 -0.0153
14051W        W29860  12.037  12.702  13.271  0.2542  0.1007 -0.1219
14052W        W29861   7.865  17.424  13.608  0.1805  0.0570  0.4689
14053W        W29862  17.388   1.715  11.468 -0.3176  0.2639  0.2455
14054W        W29863  17.142  17.045  14.162  0.2321  0.4668  0.1097
14055W        W29864   1.896   2.258   4.476  0.1362 -0.2208  0.1867
14056W        W29865   2.887   3.721  14.660  0.1570  0.0565 -0.1705
14057W        W29866   3.714  13.261  14.788  0.1310 -0.3163  0.2298
14058W        W29867  10.983   4.355   1.979 -0.0689 -0.1938  0.1726
14059W        W29868  12.318   4.267  12.136 -0.1734 -0.0358  0.0737
14060W        W29869  15.473   6.058   3.176 -0.0880 -0.0996  0.0216
14061W        W29870  14.330   0.816  12.428  0.3249 -0.0086  0.4337
14062W        W29871  15.938  16.477  14.785  0.1991 -0.3909  0.0934
14063W        W29872  17.911  11.388   2.012 -0.3749 -0.0597  0.1410
14064W        W29873  16.538   2.088   0.456  0.0894 -0.1411 -0.0992
14065W        W29874   6.859   1.065   3.118  0.3297 -0.2544 -0.2109
14066W        W29875   9.512   1.871   3.318 -0.3478  0.2292 -0.2108
14067W        W29876   0.741  11.329   4.094  0.0903  0.1032  0.0507
14068W        W29877  14.341  14.710  12.327  0.2286 -0.0457 -0.0230
14069W        W29878   3.241   9.167   9.645 -0.2449  0.2625  0.1911
14070W        W29879  14.377   9.267  15.097  0.3948 -0.3891  0.0076
14071W        W29880   3.662   6.419   4.728  0.0084  0.1846 -0.0453
14072W        W29881  13.019   6.509  10.829  0.0900 -0.0269 -0.0432
14073W        W29882  13.486  16.524   3.474 -0.0515 -0.0968  0.3035
14074W        W29883  12.038  10.283  12.745 -0.2305 -0.1721 -0.1362
14075W        W29884   8.150  14.469   4.790 -0.0007 -0.1013  0.0646
14076W        W29885   6.079   9.442   4.957 -0.1556  0.0638  0.0069
14077W        W29886   4.170   2.297  14.729 -0.1561  0.5813  0.0778
14078W        W29887  13.897   5.195   4.776 -0.2479  0.0316  0.5556
14079W        W29888  18.134  14.480  11.664  0.5125  0.1195  0.0554
14080W        W29889  10.464   2.661   3.774 -0.3960  0.0200  0.1074
14081W        W29890   1.842  14.341  13.110  0.2240  0.2867 -0.0924
14082W        W29891   5.405   2.804  12.743 -0.0331  0.1876  0.2389
14083W        W29892  15.079  13.366   3.407 -0.3713  0.2044  0.2116
14084W        W29893   3.685  18.759   2.839  0.4998 -0.1166  0.1174
14085W        W29894  13.975  14.423   4.298 -0.1416  0.2731 -0.3269
14086W        W29895  16.448  14.550   0.800 -0.1844  0.3417  0.0277
14087W        W29896   4.822  12.616  14.254  0.2775  0.3084  0.0785
14088W        W29897  10.182   8.024   4.476 -0.4240 -0.3788  0.2653
14089W        W29898   2.017  15.095   1.241 -0.0225 -0.3186  0.0160
14090W        W29899  16.960  14.923   4.024 -0.0368 -0.0958  0.5783
14091W        W29900  14.972   0.821  14.860  0.3325 -0.4232  0.0116
14092W        W29901   3.152   8.282   3.151 -0.0513  0.1858 -0.0364
14093W        W29902   9.644  14.201   5.684  0.2373  0.0706 -0.1473
14094W        W29903  13.305   7.432  14.238  0.0769 -0.1152  0.0874
14095W        W29904   8.271  12.662   1.845 -0.2524 -0.1851  0.0704
14096W        W29905   7.681  18.768   2.304  0.0009  0.0570  0.2095
14097W        W29906  17.663  12.602  13.778 -0.1188  0.3143  0.2172
14098W        W29907   0.662  12.159   4.544  0.3912  0.0936 -0.0043
14099W        W29908   1.869  16.098  14.466  0.2148 -0.2229  0.1676
14100W        W29909   7.125   4.945   9.419 -0.0379  0.1855 -0.0674
14101W        W29910   7.551  19.009   4.274 -0.0994  0.0032  0.1172
14102W        W29911  12.184   3.293   1.643 -0.0306  0.0366  0.0731
14103W        W29912   4.489   0.352   0.661  0.1907  0.4046 -0.3947
14104W        W29913   7.706  16.573   3.858 -0.0601  0.0566 -0.1433
14105W        W29914   3.753  18.555  11.057 -0.1750 -0.1213  0.3329
14106W        W29915   4.686  15.117   9.762  0.0707  0.2021  0.0367
14107W        W29916   2.715   3.435   4.870 -0.0338  0.1684  0.1637
14108W        W29917   6.666  16.103   0.465 -0.1890 -0.4711  0.2716
14109W        W29918   6.939  13.234   2.008 -0.0081  0.2966  0.1475
14110W        W29919  10.774  11.062  12.265  0.2443 -0.1504 -0.0955
14111W        W29920   6.850  13.125  14.387  0.2343 -0.0565  0.1082
14112W        W29921  18.736  12.775   0.942  0.1579  0.2394  0.0636
14113W        W29922  12.864  18.136  13.842  0.0912 -0.0064  0.1421
14114W        W29923  15.706  13.162  12.598 -0.0751  0.1223  0.4233
14115W        W29924   0.985  18.011   2.617  0.1678  0.1833 -0.0699
14116W        W29925   3.705  10.725   1.873 -0.3787  0.2516  0.0840
14117W        W29926  11.910   7.591   1.918  0.5283  0.2537  0.0908
14118W        W29927  12.139   9.038  14.517 -0.0017  0.0643 -0.0459
14119W        W29928   7.905   3.927  12.165  0.1416 -0.1095  0.1036
14120W        W29929   8.897  10.266   0.048  0.1921  0.1749  0.0776
14121W        W29930  18.265  17.405   1.599 -0.1933 -0.4443 -0.0155
14122W        W29931  18.092   7.216  13.338 -0.0278 -0.2141  0.5289
14123W        W29932   9.246  15.459   5.013 -0.2213  0.1384  0.0945
14124W        W29933  15.035   0.813  12.865 -0.2675 -0.3025  0.2313
14125W        W29934   8.476   8.020   0.114 -0.2408  0.0979  0.2048
14126W        W29935   4.958   5.558   1.319 -0.4422 -0.3136  0.1609
14127W        W29936  16.848  18.301   0.926 -0.0699 -0.1940  0.0360
14128W        W29937   3.358  15.873   3.888 -0.0836  0.0040  0.3401
14129W        W29938  11.642   7.684   4.166  0.1149  0.2551 -0.0621
14130W        W29939  12.773   5.891  14.744 -0.1368  0.1379  0.1680
14131W        W29940   4.953  12.342  10.210 -0.3063 -0.0202 -0.4572
14132W        W29941  14.011  16.861  11.255 -0.1579  0.1122 -0.0046
14133W        W29942  13.048   3.954   4.634  0.2236  0.0270  0.2014
14134W        W29943  14.586   4.562  10.462 -0.0327  0.1686 -0.1559
14135W        W29944   9.627   9.000   0.844 -0.1645 -0.1304 -0.1950
14136W        W29945  16.973   7.686   2.260 -0.2956 -0.0605 -0.3459
14137W        W29946  10.794  17.355   5.052  0.5301 -0.0502 -0.3244
14138W        W29947  17.301  11.892  14.381  0.0413  0.0761 -0.1445
14139W        W29948  16.634  15.763   0.564  0.2416  0.2235 -0.1156
14140W        W29949   6.161   8.453   4.920  0.0817  0.1653  0.0140
14141W        W29950  17.311   0.447  10.599 -0.0376  0.0090  0.0774
14142W        W29951  11.305   7.153  10.944 -0.1322  0.0115 -0.0572
14143W        W29952   5.361   2.176   2.325 -0.1631 -0.1794  0.0417
14144W        W29953   6.354  13.228   0.296 -0.1387  0.2644 -0.0208
14145W        W29954  16.834   2.679   3.203  0.0358  0.2439 -0.1303
14146W        W29955  11.532  14.490   2.340  0.0570  0.1339 -0.0349
14147W        W29956  12.034  11.416   9.960 -0.4265 -0.2173 -0.0995
14148W        W29957   8.608   4.155  11.861  0.0197  0.1842  0.1049
14149W        W29958   5.548  11.590  11.581 -0.1702 -0.1105  0.0842
14150W        W29959  12.412  18.575  15.109  0.0280  0.0534  0.1497
14151W        W29960   3.405  10.483   0.270  0.0617  0.0391  0.1671
14152W        W29961   0.380   8.611   3.949 -0.0098 -0.3043  0.2453
14153W        W29962  15.134   3.188  10.765  0.0961  0.0293 -0.2312
14154W        W29963  10.534  10.011  13.983 -0.2004  0.1619  0.1096
14155W        W29964  16.067   2.648  14.047  0.0713  0.0384  0.1387
14156W        W29965  12.168   1.646   6.046 -0.0270 -0.0043 -0.1347
14157W        W29966   8.104  15.851   3.384 -0.1926  0.1507 -0.0302
14158W        W29967   5.760  13.550  15.149 -0.0036  0.1890  0.1078
14159W        W29968  17.497  13.497   4.378 -0.1472  0.0217 -0.0600
14160W        W29969  16.050   7.311  13.912 -0.1844 -0.0511 -0.1659
14161W        W29970  13.716   5.798   2.224  0.0586 -0.2954 -0.4182
14162W        W29971   2.073   5.897  11.121 -0.0165 -0.3599  0.1521
14163W        W29972  17.241  11.340  14.442  0.0541 -0.4396  0.3172
14164W        W29973  14.242   2.917   1.051 -0.1049  0.1292 -0.0059
14165W        W29974   3.889   4.187   0.843  0.1139 -0.0652 -0.0949
14166W        W29975   2.296  13.633   0.196 -0.1959 -0.1751 -0.2101
14167W        W29976   2.680   4.279   4.079  0.2829  0.1165  0.2758
14168W        W29977  10.098   1.713   4.452  0.0354 -0.0511 -0.4001
14169W        W29978   7.080   5.956   3.865 -0.0164 -0.1395 -0.1136
14170W        W29979   4.957  11.537  10.761  0.1377 -0.0110  0.4275
14171W        W29980  17.964  15.305   3.217  0.1692  0.0718 -0.4116
14172W        W29981   2.379  14.009  14.561  0.2411 -0.0566  0.0327
14173W        W29982  12.783  10.856   2.891  0.1443 -0.1433 -0.2460
14174W        W29983  18.798   6.799  14.595  0.4264  0.0186 -0.0315
14175W        W29984  12.997   0.164  14.426  0.1968  0.1252 -0.1414
14176W        W29985  16.859   4.558   0.038  0.1859  0.3586  0.0539
14177W        W29986   6.077   4.179  14.625  0.0199 -0.0390  0.2791
14178W        W29987  13.089   6.038   3.981  0.2413 -0.2156  0.1346
14179W        W29988  12.742  12.281   4.419 -0.2590  0.2527  0.0550
14180W        W29989  18.303   9.241   3.107  0.0638  0.2227  0.0551
14181W        W29990   0.403  14.165  11.577 -0.2760 -0.2761 -0.0066
14182W        W29991   7.020   1.654  11.727  0.2375  0.1527  0.0028
14183W        W29992  12.622   3.721   2.217  0.0845  0.0300  0.1398
14184W        W29993   3.238  11.711  10.637 -0.2193  0.1553  0.2185
14185W        W29994   1.666   7.282   5.622 -0.0519  0.1535 -0.0354
14186W        W29995  11.795   0.794   4.714 -0.1307 -0.1217 -0.0849
14187W        W29996   6.055  18.795   5.118  0.1491  0.0595  0.0941
14188W        W29997  14.843   3.916   0.341  0.0968  0.1729 -0.0867
14189W        W29998   8.605  11.156  12.884  0.1453  0.0645  0.1094
14190W        W29999  12.026   3.092  13.510 -0.1233 -0.2838 -0.0139
14191W        W30000   9.274   2.225  12.663  0.2776 -0.0507  0.1467
14192W        W30001  16.430  10.494   4.786  0.1101 -0.0130 -0.2021
14193W        W30002  18.160   1.519  13.849 -0.0847  0.0035 -0.1449
14194W        W30003   1.163  13.255   0.992 -0.0549 -0.0303 -0.1079
14195W        W30004   1.674   3.850   0.942  0.1928 -0.0456  0.2303
14196W        W30005  16.859  18.842  13.324 -0.4806  0.4101 -0.3243
14197W        W30006   0.524   5.246  10.859  0.0562 -0.2803  0.0355
14198W        W30007   0.776  18.803  12.189 -0.3022  0.1966  0.2012
14199W        W30008  13.750   6.134  13.445  0.0796 -0.1441 -0.3323
14200W        W30009   6.675  17.859   0.093 -0.2102 -0.1014 -0.3489
14201W        W30010  17.170  16.544  14.816  0.0566  0.3345  0.4050
14202W        W30011   5.263  12.328   0.564  0.2985  0.1010  0.1820
14203W        W30012   8.776  10.030   1.023 -0.2524  0.1021  0.2194
14204W        W30013   6.964  14.245   4.610 -0.0303 -0.2016  0.0988
14205W        W30014   9.860  18.975   1.957  0.1419  0.1047 -0.0472
14206W        W30015   7.416   2.838  11.079  0.3227  0.3036 -0.1071
14207W        W30016   4.801  15.838   1.920 -0.0303 -0.1538  0.2360
14208W        W30017  18.587  12.968   3.144 -0.0189 -0.4013 -0.3203
14209W        W30018   8.906  15.255   0.768 -0.1562 -0.2724  0.1625
14210W        W30019   5.537   2.485   0.471  0.0272  0.0404  0.0974
14211W        W30020  14.124   0.169   4.744  0.2065  0.2121  0.2819
14212W        W30021  17.470   9.518   5.881  0.0082 -0.0514 -0.1269
14213W        W30022  13.997  11.508  15.264  0.0677 -0.3740 -0.0832
14214W        W30023   7.690   1.546   0.188  0.2219  0.0817  0.2310
14215W        W30024   2.074  12.493  13.944 -0.0796  0.1260 -0.0808
14216W        W30025  10.406   2.947  14.758 -0.2649  0.3703 -0.2986
14217W        W30026  17.362  11.873   0.531 -0.0644 -0.1397  0.0881
14218W        W30027  11.904   1.308  10.764 -0.2067  0.2135  0.3288
14219W        W30028   2.144  17.479  11.563 -0.2116 -0.1741  0.0077
14220W        W30029   4.232   6.992   5.085 -0.3288 -0.2052  0.0757
14221W        W30030   3.108   4.219  13.326  0.3418  0.0570 -0.0114
14222W        W30031   6.845   8.744   1.880  0.3816  0.1361 -0.0642
14223W        W30032   9.293  12.152   4.444  0.2079 -0.5454 -0.0421
14224W        W30033   7.342  10.871   3.069  0.2771 -0.0058 -0.1617
14225W        W30034  18.243   0.547  14.160  0.1689  0.1872 -0.0732
14226W        W30035   4.919  14.366   3.645 -0.1714  0.3958 -0.2650
14227W        W30036   8.048  12.167  12.336  0.2804 -0.0641 -0.2402
14228W        W30037  12.813  18.678   4.430  0.3858 -0.0724 -0.2286
14229W        W30038   8.439  11.923   2.009  0.1788 -0.1015 -0.1530
14230W        W30039   8.699   0.871   2.592  0.2346 -0.1008  0.2310
14231W        W30040  18.973   9.293   9.876  0.0975 -0.4466 -0.0104
14232W        W30041   4.662   7.891  14.737 -0.0807  0.1198  0.2463
14233W        W30042  11.528  18.794   1.766 -0.1033  0.1240 -0.0374
14234W        W30043  11.092  14.631  10.270 -0.2004  0.3546 -0.2138
14235W        W30044   9.138   2.152   0.869  0.1570  0.1290  0.2666
14236W        W30045  12.783   5.203  14.599  0.1337 -0.1711 -0.1265
14237W        W30046  18.557   0.993   0.316  0.2572  0.3641  0.0940
14238W        W30047  10.207  10.674  12.894 -0.3416 -0.0663 -0.1252
14239W        W30048   1.208  18.449   0.460  0.0991 -0.2631  0.1255
14240W        W30049   0.148  10.657   0.665  0.0196  0.0863  0.3409
14241W        W30050  14.085   3.297   3.408  0.2140  0.3353  0.1723
14242W        W30051  18.770  10.513  10.699 -0.0118 -0.1489 -0.2451
14243W        W30052  11.597   6.754  10.937 -0.1603  0.0618  0.0284
14244W        W30053  12.137  14.365   4.673 -0.1692  0.1819 -0.1167
14245W        W30054  13.266   6.755  13.081  0.3781  0.1198  0.1984
14246W        W30055  18.549   0.072   0.735 -0.2748 -0.1317  0.0884
14247W        W30056  17.013   5.845   6.035  0.2465 -0.1479  0.2658
14248W        W30057   3.169   8.266  11.297  0.0078 -0.2650  0.3480
14249W        W30058   3.756   5.409  14.406  0.0451 -0.0200 -0.1881
14250W        W30059   9.898  14.557   5.462 -0.2670  0.0322 -0.0851
14251W        W30060   0.029   2.145   6.025 -0.2577  0.1605  0.1178
14252W        W30061   7.376   5.129  14.139  0.1125 -0.2399  0.2683
14253W        W30062  15.512  14.566  11.988  0.1772 -0.0273  0.4233
14254W        W30063  18.843   8.236   1.974  0.2015 -0.1381  0.5393
14255W        W30064  10.669  16.163   0.294  0.1582  0.1703  0.1029
14256W        W30065   6.586  15.181   2.407  0.3448  0.3740  0.3246
14257W        W30066  12.826   8.429   0.079  0.3197  0.0568  0.0333
14258W        W30067   2.306  14.663  11.813 -0.0304 -0.0502  0.0203
14259W        W30068  14.378   4.831   5.087  0.2348 -0.0331  0.4107
14260W        W30069   3.509   7.521   4.639  0.1254 -0.0788 -0.0510
14261W        W30070   4.282  16.713  10.143 -0.2900  0.2390  0.2141
14262W        W30071   9.351  16.551  14.103 -0.0536 -0.0162  0.0594
14263W        W30072  18.158   6.812   3.373  0.0378 -0.1128  0.1558
14264W        W30073   4.016   0.396  10.799  0.1862  0.1447  0.2801
14265W        W30074  11.928  11.861  15.185  0.0615  0.0337  0.1508
14266W        W30075   9.966   4.740   1.954 -0.1331 -0.0052 -0.0489
14267W        W30076  14.040   7.518  11.528 -0.1352 -0.1149  0.0893
14268W        W30077   8.254   0.085  14.659  0.1433  0.0061  0.0243
14269W        W30078   6.587   7.101   3.176 -0.1212 -0.1960  0.0220
14270W        W30079  10.552   2.144   4.412  0.0971  0.0022 -0.3422
14271W        W30080   2.786   2.406   3.817  0.1100  0.1237  0.1863
14272W        W30081  14.177   6.611   5.102  0.0797  0.2750 -0.1306
14273W        W30082   6.606  14.428   4.971 -0.2915  0.1278 -0.1788
14274W        W30083  15.678  13.213   0.095 -0.2802 -0.0598  0.0824
14275W        W30084   4.232   2.629   3.966 -0.2263  0.1929 -0.0244
14276W        W30085  15.359   9.962   4.748  0.1939 -0.1007  0.0808
14277W        W30086   5.679  13.401   1.777  0.1433 -0.2180 -0.2338
14278W        W30087  14.429   7.291   4.026  0.2494 -0.3083 -0.1046
14279W        W30088   0.351  14.844   3.390  0.0178  0.1573 -0.0834
14280W        W30089  10.887  15.709  13.311 -0.1087 -0.0843 -0.1170
14281W        W30090  13.097   1.906   3.823  0.0661 -0.0673 -0.0045
14282W        W30091  12.596   2.014  14.885 -0.0396 -0.0641  0.3234
14283W        W30092  16.163   9.018  12.995  0.0304 -0.4350  0.0318
14284W        W30093   7.537   0.523   2.186  0.4152 -0.0808  0.0672
14285W        W30094  16.828   3.553   2.031 -0.1012 -0.3747  0.0340
14286W        W30095  12.374   1.144  13.898  0.0720  0.1778  0.0085
14287W        W30096   6.870   4.355   1.494 -0.1907  0.0736 -0.2416
14288W        W30097   3.210   2.158  13.498  0.0829  0.1388  0.0068
14289W        W30098  14.213   1.794   2.457  0.1331 -0.0715  0.0392
14290W        W30099   5.283  18.386  15.074 -0.1252  0.1472  0.1426
14291W        W30100  15.666  15.627  11.268  0.4189 -0.0196  0.1587
14292W        W30101  12.817  14.529   2.074  0.0424  0.1456  0.1222
14293W        W30102  17.843  14.797  14.868  0.3691  0.0382  0.0812
14294W        W30103  11.813  15.438  15.261  0.3565 -0.0509 -0.0011
14295W        W30104  16.907   0.780   0.084  0.0415  0.0529 -0.1948
14296W        W30105   0.048  15.105   6.085  0.2709  0.1003  0.1399
14297W        W30106   0.933   8.866   2.838  0.1696  0.2781 -0.0162
14298W        W30107   0.926   4.260  12.556 -0.2314  0.0138  0.1044
14299W        W30108  17.395  18.444   3.569  0.0845 -0.0784  0.1553
14300W        W30109   6.469   2.618  13.292 -0.0127 -0.0254 -0.0154
14301W        W30110   4.345   5.175   4.150  0.0041  0.1454 -0.0380
14302W        W30111   7.628  12.857   0.520  0.0186  0.2277 -0.2331
14303W        W30112  12.390  11.364  14.214  0.2151  0.0865  0.1560
14304W        W30113   4.697  17.184   4.298  0.3453 -0.2315 -0.0270
14305W        W30114  18.117   1.687   4.903  0.0171 -0.1594  0.0604
14306W        W30115  18.965   9.842  15.113 -0.0840 -0.2725 -0.0606
14307W        W30116  16.452   5.452  13.394 -0.1475  0.0647  0.3436
14308W        W30117   9.734  10.934   3.478 -0.0906  0.2352  0.0832
14309W        W30118   8.954   2.295   3.201  0.6944  0.1407  0.0264
14310W        W30119  16.599  14.639   3.287  0.0522 -0.1796 -0.1946
14311W        W30120   9.951   5.731   1.891 -0.0297  0.0273  0.2898
14312W        W30121   8.307   5.057   2.877  0.3067  0.0207  0.1448
14313W        W30122   4.592  16.943  10.607 -0.3694 -0.1130  0.1019
14314W        W30123   8.169   9.215   2.172  0.3672 -0.2910 -0.0551
14315W        W30124   6.327   9.452  13.579  0.0023 -0.0038  0.5173
14316W        W30125  17.178  18.535   2.269 -0.1025  0.3183  0.0915
14317W        W30126  16.977   7.966   0.486 -0.2344 -0.2044  0.0254
14318W        W30127  10.481   5.422   5.439  0.1217 -0.0997 -0.3199
14319W        W30128   9.546   9.518  14.434 -0.0635  0.2667  0.1120
14320W        W30129   3.074   8.213   1.747  0.1780 -0.4338 -0.1383
14321W        W30130  16.697   6.661  13.659  0.1249  0.4130 -0.2340
14322W        W30131  10.103   4.080   4.787 -0.1312  0.0221 -0.2117
14323W        W30132   6.109  15.322   2.575 -0.0952 -0.0006  0.2947
14324W        W30133   7.801  12.995   2.966 -0.0265  0.1018  0.1314
14325W        W30134  17.282  14.829  12.262 -0.1464  0.0063  0.3442
14326W        W30135  13.790   8.607   1.498 -0.0617  0.0416  0.5211
14327W        W30136   5.997   1.878   9.711 -0.0730 -0.3592 -0.0483
14328W        W30137   4.869   3.381  11.954  0.4476 -0.2196 -0.2737
14329W        W30138  14.177  14.751   3.985  0.1118  0.2566  0.1209
14330W        W30139  18.856  14.087  14.219  0.0227  0.3181  0.2371
14331W        W30140  11.789   4.867  10.046 -0.1137 -0.2531  0.0005
14332W        W30141   1.990  16.243   2.655  0.1053  0.2437  0.1090
14333W        W30142  18.921   8.358   0.496 -0.0275  0.2866  0.2641
14334W        W30143  15.905  15.414   0.102 -0.3526 -0.1897 -0.0939
14335W        W30144   6.310  15.709  10.291  0.2219 -0.0423  0.1932
14336W        W30145  13.194   2.166   2.063  0.1514  0.0047  0.3509
14337W        W30146   8.805  12.366   2.961  0.1092 -0.1924 -0.1703
14338W        W30147   2.509   6.952   1.024 -0.0484 -0.1815  0.0579
14339W        W30148  11.664  15.113   4.951 -0.1160  0.1928 -0.1033
14340W        W30149  18.852   5.532  13.796  0.0319  0.0652 -0.1176
14341W        W30150   0.303   4.425   3.837 -0.0362 -0.0883 -0.0613
14342W        W30151  17.606   4.026   4.328  0.2829 -0.0831  0.1035
14343W        W30152   1.026  18.570  13.829  0.2642  0.0459  0.5299
14344W        W30153   3.903  17.267   0.696 -0.2236  0.3116  0.0268
14345W        W30154  10.249   1.476  11.159 -0.0606  0.1401  0.2855
14346W        W30155   9.731   4.753   4.122  0.3074  0.1583  0.2259
14347W        W30156  13.692   6.181   2.525  0.0174  0.0495  0.2611
14348W        W30157   0.892  11.663  10.902  0.0803  0.0954  0.0637
14349W        W30158   7.088   1.195   4.949 -0.3674 -0.0085  0.0963
14350W        W30159  14.300   8.381   0.687 -0.1681  0.1338  0.2056
14351W        W30160   8.280   5.536  12.449 -0.1108 -0.3745 -0.2148
14352W        W30161   1.984  18.680  10.995 -0.0608 -0.0157  0.1617
14353W        W30162   2.778  12.048  10.856 -0.1173 -0.2139  0.0990
14354W        W30163  15.242  18.940   4.627 -0.2505  0.1495  0.1108
14355W        W30164   5.436   8.212  11.333 -0.3337 -0.0644  0.2420
14356W        W30165  13.477   4.364   2.971  0.1353 -0.2074  0.2764
14357W        W30166  16.532  11.252   2.844  0.2171 -0.0645  0.0700
14358W        W30167   8.456  18.047  14.625  0.3470  0.2577 -0.0667
14359W        W30168  18.698  18.190   4.600 -0.0934  0.1142  0.0800
14360W        W30169   9.875  15.960  12.523 -0.2514  0.1357  0.3519
14361W        W30170   2.009   1.287  11.773  0.1485 -0.0010 -0.0594
14362W        W30171  10.376   4.225   4.139  0.0179 -0.0800  0.0256
14363W        W30172   6.086   3.188  11.490 -0.0437  0.1740 -0.1031
14364W        W30173  13.443   4.594  11.804 -0.2535  0.3640 -0.0276
14365W        W30174  18.918  12.773   3.498  0.1899 -0.0614 -0.3142
14366W        W30175  10.964  17.300  14.323 -0.1134  0.1228  0.2277
14367W        W30176   8.913   2.524  11.286 -0.0512  0.1665 -0.1213
14368W        W30177  16.359   0.297  14.044 -0.3647 -0.0312  0.1847
14369W        W30178   4.956  10.079  13.182 -0.2310 -0.1871 -0.0825
14370W        W30179  10.277  11.784  14.405  0.3632 -0.0831  0.0044
14371W        W30180   8.541   7.418  12.809 -0.0903 -0.1864 -0.0675
14372W        W30181  18.171  12.178   4.493 -0.2727 -0.1168 -0.0285
14373W        W30182  14.674   2.825   1.704  0.0137  0.1887  0.4514
14374W        W30183   3.698  12.950  12.778  0.2471  0.0309  0.0534
14375W        W30184  11.533  11.877   5.323 -0.2320 -0.1643 -0.1726
14376W        W30185  12.042   2.148  14.981 -0.0919  0.0646 -0.1862
14377W        W30186  16.618   5.808  11.103 -0.2175  0.2465  0.0125
14378W        W30187   7.396   2.086   1.404 -0.3351 -0.0230 -0.0218
14379W        W30188  17.321   5.555   1.065 -0.0628 -0.2556 -0.0079
14380W        W30189   6.781   4.691  13.015  0.0301  0.0277  0.0785
14381W        W30190  10.873   1.966  13.290  0.2387 -0.1895 -0.0737
14382W        W30191   6.956   6.802   3.410  0.0403 -0.0600  0.3962
14383W        W30192  16.902   0.767   1.939 -0.0830  0.0090 -0.1833
14384W        W30193  11.743  15.312  10.304 -0.1749 -0.0675 -0.3403
14385W        W30194  14.040  18.649   2.984  0.0046 -0.1142  0.0979
14386W        W30195  15.144  15.904  13.232 -0.1464  0.1908  0.2317
14387W        W30196  15.321   5.169   1.790  0.1580  0.0890  0.0187
14388W        W30197   9.474   3.188  13.331  0.0824  0.2797 -0.2562
14389W        W30198  17.884  16.422   4.580  0.0841 -0.1740  0.0345
14390W        W30199   9.633  14.847   0.184 -0.0172 -0.2148  0.2558
14391W        W30200  18.810  16.026  12.525  0.2283 -0.4084 -0.6875
14392W        W30201   7.898  18.574  15.159 -0.0243 -0.1284 -0.0186
14393W        W30202  16.926  12.166  11.077 -0.0234  0.0501 -0.0409
14394W        W30203  10.982  10.042  11.973  0.0172 -0.2218  0.0803
14395W        W30204   1.813  11.574  14.836 -0.4384 -0.0618 -0.0957
14396W        W30205   9.767   0.797  13.808  0.2092  0.2816 -0.1942
14397W        W30206  11.878   7.543   0.206 -0.0376 -0.1329 -0.0555
14398W        W30207  16.583  16.244   4.704  0.1438  0.1811  0.1435
14399W        W30208   1.748   9.203  14.474  0.1464  0.0976  0.3559
14400W        W30209  12.934   3.129  14.526 -0.0644 -0.2224 -0.0904
14401W        W30210   8.482   4.593  13.632 -0.3402  0.2842 -0.1972
14402W        W30211   9.935   0.509  11.177  0.0147 -0.2225  0.1302
14403W        W30212  19.033  12.924  14.015 -0.0284 -0.0451  0.0065
14404W        W30213   1.805  11.032   2.229  0.1325 -0.1390 -0.2617
14405W        W30214   9.386   9.681  14.982  0.1060 -0.0809 -0.0114
14406W        W30215   3.514  15.106  10.728  0.1910 -0.0532 -0.3691
14407W        W30216   6.109  14.632   3.682 -0.1089 -0.1135 -0.1169
14408W        W30217  16.748  14.758   4.457 -0.1895  0.0113 -0.1418
14409W        W30218  10.690   7.440   1.991  0.3137 -0.4656  0.1067
14410W        W30219   3.378  15.199   4.899  0.0231  0.3122  0.0617
14411W        W30220  18.528   5.047   0.733  0.4292 -0.2059  0.1390
14412W        W30221   1.044  13.086  11.333 -0.0483 -0.0809  0.1887
14413W        W30222   1.140  16.013   1.828 -0.0443  0.2398  0.2680
14414W        W30223   3.187  16.481   4.028 -0.1472 -0.4002  0.0368
14415W        W30224   4.695   9.072   0.646  0.1149  0.1814 -0.1883
14416W        W30225  10.727  13.140  14.559 -0.3313 -0.3304 -0.0249
14417W        W30226   8.992   1.906  12.912 -0.0289  0.2955  0.0974
14418W        W30227   4.908   7.293  10.317 -0.0843  0.2599  0.1852
14419W        W30228   2.861  10.538   3.560  0.0837  0.2316  0.0516
14420W        W30229  17.769   1.311   1.724 -0.1231 -0.1829  0.0323
14421W        W30230  16.340   4.635  15.131 -0.1863  0.0512 -0.0103
14422W        W30231   9.205  10.315   0.561  0.3048 -0.0631 -0.1057
14423W        W30232   0.993   2.580  13.013 -0.1410 -0.3380 -0.0724
14424W        W30233  12.091   0.590   2.466 -0.1930 -0.2329  0.2899
14425W        W30234  14.587   1.857   2.798  0.2532  0.2039  0.0665
14426W        W30235  16.681   0.370   1.736  0.2420  0.1985  0.1965
14427W        W30236  13.425   2.377   0.450 -0.1229 -0.1224  0.1893
14428W        W30237   1.980  13.015  14.364  0.3214 -0.0205 -0.0101
14429W        W30238   9.495   0.937  10.974  0.3846  0.0466  0.3118
14430W        W30239  11.101  13.044   0.131  0.1427 -0.2997  0.0835
14431W        W30240  16.282  12.375  14.044 -0.0381  0.0343  0.2643
14432W        W30241   1.935  11.383   1.232 -0.0944  0.1565  0.3559
14433W        W30242   5.690   4.956   1.248  0.0198  0.0177  0.2150
14434W        W30243  16.612  11.692  13.045 -0.0138 -0.1842 -0.1525
14435W        W30244   0.336  18.632  12.220 -0.2040 -0.0899 -0.3483
14436W        W30245   3.551   4.893  13.963  0.0493  0.0064  0.0127
14437W        W30246   2.015   9.693   3.237 -0.1197 -0.1386 -0.0924
14438W        W30247  12.228   7.023  13.616  0.0714  0.0833  0.0753
14439W        W30248   1.153  14.018   2.904  0.0822  0.1814  0.3548
14440W        W30249  14.959  13.855  12.660  0.1386  0.1238  0.0626
14441W        W30250   3.392   9.877   1.807 -0.0197  0.0314 -0.2718
14442W        W30251  15.688  16.742  14.355 -0.0861 -0.1874  0.0257
14443W        W30252  19.003   4.289   3.485  0.0309  0.2897 -0.1105
14444W        W30253  12.603   5.979   2.785 -0.1497  0.1135  0.0935
14445W        W30254  16.703   2.792   3.687  0.3133  0.0606 -0.3226
14446W        W30255   4.266   2.110   4.608 -0.1227  0.0377  0.1377
14447W        W30256   5.782   5.825   3.870 -0.1416 -0.1303 -0.1139
14448W        W30257  11.329   6.598  15.010 -0.0876 -0.1397 -0.1621
14449W        W30258   2.306  11.275  14.684 -0.2133  0.1678 -0.1414
14450W        W30259   5.773  12.433  12.467  0.2213  0.1654 -0.0966
14451W        W30260  12.523  18.360  10.986 -0.3803  0.1236  0.0972
14452W        W30261  15.718   7.757   0.758 -0.1958  0.2619  0.0899
14453W        W30262  13.477  13.795  13.038  0.0221  0.0203  0.1213
14454W        W30263   7.458  18.631  14.084 -0.1835 -0.0593  0.0207
14455W        W30264   7.578  13.427  14.805 -0.0644 -0.1587  0.7032
14456W        W30265  12.173   3.356   2.133  0.2285 -0.1972  0.2162
14457W        W30266   1.055  16.270   0.395  0.1625 -0.0357 -0.3763
14458W        W30267   3.098   7.094  12.796  0.1372 -0.0186 -0.1576
14459W        W30268   9.035   7.796  10.615  0.2546  0.0698 -0.0532
14460W        W30269   9.997  15.651  14.968 -0.0415 -0.3620 -0.1212
14461W        W30270  12.746   6.279  12.428 -0.0044 -0.0555 -0.2750
14462W        W30271  17.720   0.906  14.961  0.0554  0.0104  0.0960
14463W        W30272  14.756  14.876  13.720 -0.1522  0.2290  0.0400
14464W        W30273   1.631   4.317   1.882  0.0365  0.1198 -0.2224
14465W        W30274   5.705  14.489   1.419 -0.0085  0.2411 -0.1833
14466W        W30275   9.369  15.092   2.987 -0.4272  0.1783 -0.1403
14467W        W30276  15.189   2.159   3.217  0.0853 -0.0646  0.2148
14468W        W30277  11.959   6.578   4.707 -0.0866  0.1433  0.2332
14469W        W30278   8.309   5.756  11.099  0.2073  0.0678  0.0419
14470W        W30279  14.836  14.816   4.538  0.2204  0.0513  0.1293
14471W        W30280   4.986   7.731  13.951 -0.0417 -0.2274  0.0999
14472W        W30281   8.763   7.109   2.107 -0.2422  0.1619  0.0699
14473W        W30282  11.985   5.924  12.812 -0.0631 -0.0197  0.1498
14474W        W30283  12.893  18.691   0.014  0.1101 -0.1735  0.2507
14475W        W30284   1.580  13.549  14.835  0.1228  0.3398  0.1768
14476W        W30285   2.186  11.577  10.451  0.3193 -0.0351  0.0137
14477W        W30286  12.290  10.298  15.165  0.0287 -0.1045 -0.2213
14478W        W30287   6.142  12.588   3.158  0.0109 -0.0802 -0.0330
14479W        W30288  10.854   1.820  11.936  0.2041  0.1972 -0.1747
14480W        W30289  14.657   0.860  13.244 -0.3305 -0.0666  0.2961
14481W        W30290   1.224   8.207  12.317  0.0709 -0.0944 -0.2346
14482W        W30291   6.164  16.822  14.795  0.1749 -0.1692  0.1415
14483W        W30292   3.096   6.533  14.674  0.4527 -0.0957 -0.3813
14484W        W30293   0.953  13.294   4.749 -0.0041 -0.0963  0.0349
14485W        W30294   8.538   7.584  15.004  0.5568 -0.3880  0.1944
14486W        W30295  13.524   7.482   4.825  0.1140 -0.1492 -0.0720
14487W        W30296   1.578  13.171   5.093  0.1189 -0.0754 -0.0162
14488W        W30297   6.386  11.192  12.137  0.0669  0.0962  0.1855
14489W        W30298   2.512  12.010   4.956 -0.0028  0.1626  0.1934
14490W        W30299  11.107   4.982   5.614 -0.0949 -0.0119  0.0121
14491W        W30300  14.476   1.213  12.145  0.1154  0.2398  0.3150
14492W        W30301  13.005   8.940  14.472  0.1461 -0.1129 -0.0577
14493W        W30302   5.631   4.842   5.235  0.0908 -0.2911 -0.1941
14494W        W30303   8.264   6.411   1.637  0.0723 -0.1150  0.1778
14495W        W30304  10.373  11.936   4.858  0.4640  0.2253 -0.1079
14496W        W30305   8.057   6.034   9.828 -0.1578  0.2183  0.1632
14497W        W30306   5.385  12.536   2.592 -0.1199  0.4157 -0.1052
14498W        W30307   4.597   9.155  11.952 -0.0255  0.1188  0.0981
14499W        W30308   4.266   3.322   1.857  0.4965 -0.0325 -0.0614
14500W        W30309   0.354  15.803  11.805  0.1580 -0.1017  0.1039
14501W        W30310   3.812  13.348  11.169  0.1655 -0.0307  0.0694
14502W        W30311  10.574  15.121   0.090 -0.0345  0.0292 -0.0155
14503W        W30312  17.220  12.662  14.107  0.2455  0.1481 -0.2798
14504W        W30313  17.412  15.241   5.729  0.2300  0.3642 -0.4520
14505W        W30314   1.802   4.163   3.373  0.1540 -0.1444 -0.1871
14506W        W30315  14.832  11.565  12.465  0.0188 -0.0556 -0.0937
14507W        W30316   3.602   2.539  13.609  0.2262 -0.0322 -0.0461
14508W        W30317  15.413   8.376   3.955 -0.1397 -0.0559  0.2014
14509W        W30318   4.652  13.763  11.488 -0.2845  0.2198  0.1038
14510W        W30319  10.764   3.617   3.484 -0.0360 -0.1303  0.2456
14511W        W30320   6.703   2.485  11.505  0.1643 -0.2607  0.1717
14512W        W30321  14.547   4.888   3.683 -0.1958 -0.0687  0.1516
14513W        W30322  17.039   1.724  15.061  0.0061  0.1158 -0.2986
14514W        W30323   4.471  17.257   3.868  0.3040  0.2274  0.2528
14515W        W30324   1.198  17.197   4.976  0.0499  0.1057  0.3307
14516W        W30325  11.543   3.447   4.610 -0.1342  0.1610  0.0135
14517W        W30326   5.648  18.644   3.846 -0.0481 -0.0257  0.0030
14518W        W30327   1.822  15.543   1.267 -0.1772 -0.2320 -0.0113
14519W        W30328   2.131   8.222  11.191 -0.3671  0.2997  0.5534
14520W        W30329   4.187   6.623  10.792 -0.1860 -0.1856  0.0727
14521W        W30330  18.242   2.264  13.796  0.1973 -0.1596  0.1753
14522W        W30331  16.056   6.057  15.194 -0.1234  0.2544 -0.2517
14523W        W30332   3.989   6.257  14.518 -0.2298 -0.3429 -0.1059
14524W        W30333   6.677  15.601   3.287  0.0068 -0.2006 -0.1333
14525W        W30334   4.097   7.299   5.518 -0.1549 -0.0168  0.0102
14526W        W30335   6.795   2.296  13.829 -0.2040  0.0116  0.2408
14527W        W30336   8.247   3.465  14.230 -0.0756 -0.2042  0.0699
14528W        W30337  18.507   2.306  10.226 -0.1439 -0.0578  0.1741
14529W        W30338  12.311  16.245   5.760  0.0341 -0.1741  0.3648
14530W        W30339  11.096  18.563  13.195 -0.1437  0.0451 -0.0690
14531W        W30340   2.462  11.660   0.654  0.0172 -0.1404  0.2321
14532W        W30341  11.551   8.652   5.710  0.0146  0.0410  0.2202
14533W        W30342  13.885  12.574  14.101 -0.1565 -0.3152  0.0670
14534W        W30343  15.504   1.362  14.388  0.2403  0.0676  0.1676
14535W        W30344  13.832   5.398   0.227 -0.0381 -0.0410  0.0742
14536W        W30345   9.402   7.986  11.600  0.2313 -0.2215 -0.0513
14537W        W30346   1.032  18.412  13.379 -0.0886 -0.1087 -0.0855
14538W        W30347  15.944   8.678  10.282 -0.1131  0.2751 -0.0195
14539W        W30348   0.241   1.396  15.148 -0.0616  0.2407  0.0015
14540W        W30349  14.487  15.433   5.775 -0.0474  0.0752 -0.1869
14541W        W30350   5.590  13.816   5.159  0.0200 -0.2719 -0.1639
14542W        W30351   2.685   7.615  13.383  0.2103 -0.2581  0.1055
14543W        W30352   8.262   9.985   1.633  0.0817 -0.1184  0.2296
14544W        W30353   9.795  11.395   2.691  0.1008 -0.0525  0.0529
14545W        W30354   5.406  17.395  13.108 -0.1172  0.5375 -0.0796
14546W        W30355   7.488  10.950   5.256  0.0488  0.1334  0.2049
14547W        W30356   2.716   2.507   4.883  0.3803 -0.0552 -0.0782
14548W        W30357   7.335   5.684   2.107 -0.0015  0.3103  0.2272
14549W        W30358   5.775   6.993   3.009  0.2319  0.0662 -0.1992
14550W        W30359   8.638   0.335  14.371 -0.0426 -0.1274 -0.1734
14551W        W30360   0.892   8.779   4.345 -0.2364 -0.5403 -0.4721
14552W        W30361  14.425   8.688  12.755  0.2542  0.0011 -0.2822
14553W        W30362   5.600  11.908   4.294 -0.0016 -0.2429  0.0175
14554W        W30363  13.000   9.131   1.646  0.0669  0.0448 -0.1574
14555W        W30364  12.833   9.563  13.676  0.2753 -0.0720 -0.0695
14556W        W30365   7.856   1.114  14.967 -0.1405 -0.1414 -0.0742
14557W        W30366   5.712   6.576  11.556  0.0765 -0.2170 -0.1707
14558W        W30367  12.163   3.765  10.502  0.2307  0.0344  0.1638
14559W        W30368   2.177   8.342   4.740 -0.2139  0.0694 -0.0322
14560W        W30369   7.787   2.244  12.316 -0.3827  0.0343 -0.0412
14561W        W30370   4.091   7.350  14.956 -0.0692  0.0713 -0.0112
14562W        W30371  17.400   1.889  12.071 -0.1820  0.2538  0.2163
14563W        W30372   9.227  11.934  13.408 -0.2686 -0.0521 -0.0365
14564W        W30373  14.040   1.294   4.950  0.1372  0.0203  0.0031
14565W        W30374  10.167   1.777  12.998 -0.1565  0.1261  0.2886
14566W        W30375  18.843   6.455  10.499  0.1039  0.0716  0.1619
14567W        W30376   2.807  16.737   2.001 -0.2086 -0.1918  0.0807
14568W        W30377  17.929  15.964  14.705 -0.2957  0.1737  0.0309
14569W        W30378  11.319  15.458  11.213  0.2105 -0.0318 -0.0023
14570W        W30379  10.315   7.628  13.070  0.0331  0.1029 -0.0708
14571W        W30380  11.958   9.055  13.609 -0.2600  0.2189  0.0688
14572W        W30381  13.476   2.999   4.115  0.6273  0.2481  0.0019
14573W        W30382  16.916   2.363   6.238 -0.0276  0.0262  0.2749
14574W        W30383   8.868  17.602   1.091  0.0854  0.4812 -0.2699
14575W        W30384   7.604   2.640  14.225  0.0098  0.0798 -0.0902
14576W        W30385  13.521  11.679  13.263  0.1128 -0.3806 -0.0281
14577W        W30386   2.900   4.318   1.773 -0.1646  0.0467  0.1542
14578W        W30387  15.293  18.070   4.792  0.1453  0.0624 -0.1036
14579W        W30388   1.006   7.076   4.029  0.2132 -0.0849  0.0539
14580W        W30389  10.940  12.935   3.180  0.2174  0.0000 -0.0300
14581W        W30390   8.867  17.571   3.266 -0.1175 -0.0270 -0.0000
14582W        W30391   7.219  17.641   4.135  0.0436 -0.0419  0.3154
14583W        W30392   0.858   6.586   0.552  0.5169 -0.1236 -0.1960
14584W        W30393   2.503   6.309   4.446  0.0662  0.0284  0.2430
14585W        W30394  12.772   0.570  13.353  0.0176 -0.1442  0.2407
14586W        W30395   9.401   3.496   2.294 -0.2800  0.1362 -0.1676
14587W        W30396   5.441   6.979   0.028 -0.3205 -0.1319  0.4036
14588W        W30397  12.654   2.938   0.790 -0.0616 -0.3062 -0.0153
14589W        W30398  14.628  13.651  13.658  0.4709  0.2075 -0.2123
14590W        W30399  14.847   6.371   1.293 -0.0473 -0.1052  0.1311
14591W        W30400  16.401   0.513   2.735  0.0495 -0.0386 -0.1562
14592W        W30401  12.748  19.007   1.126  0.4148  0.0101 -0.1780
14593W        W30402   4.256  10.811   1.563  0.1519 -0.2482 -0.1318
14594W        W30403   5.738   2.505   4.599 -0.0705 -0.2625  0.0010
14595W        W30404  18.734  15.693  12.890 -0.0198  0.1618  0.1726
14596W        W30405   8.049   2.031  13.160  0.1365 -0.0051 -0.1840
14597W        W30406  13.402  12.040   1.745  0.1630 -0.0601  0.4478
14598W        W30407   6.935   8.056  12.647 -0.0629 -0.1211 -0.1924
14599W        W30408   8.814   8.261   4.976  0.3458 -0.0223 -0.2632
14600W        W30409   3.902  16.955   4.962  0.0304 -0.2985 -0.0271
14601W        W30410  14.510  11.209   4.580  0.1090 -0.0841  0.1359
14602W        W30411  12.391   2.295   4.678  0.1040 -0.0263 -0.1440
14603W        W30412  12.730   4.110   3.713  0.0468 -0.1762  0.0546
14604W        W30413   4.650   3.737   0.554 -0.0149 -0.2610 -0.0375
14605W        W30414   9.166  13.461  13.342  0.2789 -0.0404 -0.1330
14606W        W30415   9.572  14.328   5.159 -0.1016  0.0148 -0.0580
14607W        W30416   0.166   4.122  14.321  0.0503  0.3697  0.2466
14608W        W30417  13.970  17.770  13.564 -0.1263  0.0547  0.1479
14609W        W30418  16.062  14.699  12.016 -0.0476  0.1329 -0.0429
14610W        W30419   6.239   0.629   0.011 -0.1471  0.1444  0.1457
14611W        W30420  11.951   9.547  10.891 -0.1929 -0.0521  0.3199
14612W        W30421  18.944   4.078   4.690  0.0496 -0.0213  0.3249
14613W        W30422  14.558  11.367   1.994 -0.1101  0.1287  0.0188
14614W        W30423   0.408   9.119   0.811  0.6119 -0.0040 -0.0502
14615W        W30424  11.763  14.048   2.542 -0.1404  0.2116  0.3029
14616W        W30425  13.467  14.273   4.323 -0.1772 -0.1630 -0.1185
14617W        W30426   9.800   0.536  12.467 -0.0094 -0.0057 -0.0809
14618W        W30427  15.925  13.761  12.809  0.2020 -0.1406  0.1386
14619W        W30428  10.691  10.709   4.336  0.0706 -0.2403  0.1994
14620W        W30429  17.175   6.247  10.447  0.1005 -0.2915 -0.2256
14621W        W30430   9.261   1.062  11.414  0.2168 -0.0678 -0.0221
14622W        W30431   4.890  11.570   2.701  0.0425 -0.4119 -0.1071
14623W        W30432   7.420  17.666   1.879  0.1617  0.0335  0.0558
14624W        W30433   6.641  10.073   3.436 -0.1798  0.1945 -0.3083
14625W        W30434   7.664  17.445   4.424  0.2687  0.0667  0.2344
14626W        W30435   4.018   7.506   1.460  0.1042 -0.1042  0.0903
14627W        W30436   1.392  17.429   1.385 -0.1048 -0.1082  0.0720
14628W        W30437  17.416  12.700  11.902  0.1382 -0.0189  0.0153
14629W        W30438   4.079  15.726   2.751 -0.2539 -0.1008  0.3059
14630W        W30439   7.608   7.014  13.812 -0.1244  0.1323 -0.0231
14631W        W30440  11.136   2.777  11.166  0.1709  0.0424 -0.2868
14632W        W30441   3.626  14.324   1.712  0.2723  0.2179 -0.2017
14633W        W30442   2.737   1.297   0.956 -0.0959 -0.0919  0.0627
14634W        W30443   7.058   2.567   1.607 -0.0371  0.0970 -0.0576
14635W        W30444   9.769   7.148   5.208  0.0726  0.0591  0.0862
14636W        W30445   1.738  14.657   5.464 -0.0468 -0.1038 -0.0949
14637W        W30446  10.805  11.531  12.526 -0.2751 -0.2270  0.0443
14638W        W30447  13.963   6.896   1.245  0.2257  0.1580  0.1398
14639W        W30448  12.124   5.947  13.707  0.0169 -0.3011 -0.4663
14640W        W30449  14.606   6.276   2.823 -0.0786 -0.1435  0.1674
14641W        W30450   2.822  14.000  12.548 -0.0360  0.1058 -0.0528
14642W        W30451  11.331  12.185   1.222 -0.0224  0.3039  0.4065
14643W        W30452  17.635   3.602   0.651 -0.1286 -0.2436  0.0788
14644W        W30453   8.393   1.943   2.062  0.1758  0.0524  0.2031
14645W        W30454   5.348   5.866   1.709  0.0004  0.0850 -0.1288
14646W        W30455  16.848   6.473  11.883 -0.0738  0.0337  0.0281
14647W        W30456   8.469  17.130  10.344  0.1448 -0.0340  0.0424
14648W        W30457  14.347   6.622   9.835 -0.2995  0.2347  0.0685
14649W        W30458  15.418   2.055  12.026 -0.0426 -0.1757  0.1235
14650W        W30459  13.418  10.595   4.572  0.0346  0.0532  0.3303
14651W        W30460  19.035  14.568  14.202  0.0161 -0.0374  0.0793
14652W        W30461   8.621  10.086  11.917  0.3216  0.0935  0.1827
14653W        W30462   5.877   7.209   3.517  0.0160 -0.2572 -0.0290
14654W        W30463   0.905  12.896   2.669  0.1002 -0.1326  0.2391
14655W        W30464  12.140  18.828   0.163  0.0097 -0.2325  0.2671
14656W        W30465  10.128  15.001   0.346 -0.0292  0.3755  0.1225
14657W        W30466  15.530   6.494   3.823 -0.1640 -0.2252 -0.0974
14658W        W30467  17.353   4.640   3.397  0.0282 -0.1737  0.1884
14659W        W30468  11.797   5.512   2.475 -0.4785 -0.0458  0.4412
14660W        W30469   7.979  14.513  13.924 -0.3398 -0.3324  0.1844
14661W        W30470   8.427  10.743  12.645 -0.2203  0.1253 -0.1968
14662W        W30471   4.812   9.924   4.116 -0.0939  0.3907 -0.2638
14663W        W30472  18.943   9.083   1.534 -0.2685 -0.2670 -0.1721
14664W        W30473   6.593   0.137  11.861  0.1431 -0.3552  0.2824
14665W        W30474  17.333  18.730  13.473  0.1120  0.0560  0.1024
14666W        W30475  12.257   8.233  12.813 -0.0390 -0.0239 -0.0842
14667W        W30476  13.509  15.692  10.988 -0.2068 -0.1761  0.0180
14668W        W30477  14.874   8.805   4.017  0.1164 -0.0443  0.1449
14669W        W30478   0.844  11.764  14.168  0.0270  0.0685 -0.0215
14670W        W30479   5.012  15.634  11.967  0.2152 -0.3900  0.0693
14671W        W30480   3.016  16.438  12.913  0.1342 -0.1101 -0.1819
14672W        W30481  14.105  18.489   5.256 -0.0174 -0.1726 -0.4353
14673W        W30482  17.470   8.915  13.073 -0.0985  0.0974 -0.1747
14674W        W30483   1.443  16.178  13.450  0.0490 -0.3645 -0.0670
14675W        W30484   6.484  11.306   1.156 -0.1428  0.3363  0.1545
14676W        W30485  16.301   1.201  13.877 -0.5034  0.0518  0.0437
14677W        W30486   5.251   4.680  12.877  0.0083  0.2490 -0.1546
14678W        W30487  14.843  13.992   2.511  0.1418 -0.0323 -0.0182
14679W        W30488   3.766   6.886   5.557  0.1730  0.0821  0.3017
14680W        W30489   7.899   3.836   0.564  0.0868 -0.0893 -0.2336
14681W        W30490   6.517  11.711   4.471 -0.0773  0.0398 -0.1354
14682W        W30491  16.040   7.267   3.578  0.1721 -0.1645 -0.4564
14683W        W30492  14.471  12.741   4.451  0.0175  0.2414 -0.0557
14684W        W30493  18.657   0.489   0.422 -0.1828  0.2923  0.2687
14685W        W30494  13.161   0.778   2.119 -0.1771 -0.1697 -0.0842
14686W        W30495   1.865  18.765  10.494  0.2553  0.1421 -0.1386
14687W        W30496   5.565  16.953  13.754  0.1523  0.1367 -0.0436
14688W        W30497  11.227   3.341  13.159  0.1735 -0.0144  0.4009
14689W        W30498  18.282  15.578  14.527 -0.2148  0.0140  0.0642
14690W        W30499   1.687   7.287  13.649 -0.1961 -0.3124  0.1382
14691W        W30500   4.535  11.275  15.163 -0.0902 -0.0764  0.1701
14692W        W30501   6.918  17.196   2.431 -0.3024 -0.2568 -0.0095
14693W        W30502   1.926   6.786  10.444  0.1046  0.1161 -0.6211
14694W        W30503  12.389  17.497   0.175 -0.0774 -0.0202 -0.0443
14695W        W30504   5.581  12.567   0.259  0.3567  0.2153  0.1696
14696W        W30505   2.331  11.162   0.601 -0.0072  0.0766  0.1486
14697W        W30506  17.415   2.508   4.382 -0.0864  0.0160 -0.1840
14698W        W30507  11.904  18.849  11.751 -0.3559  0.0525  0.0335
14699W        W30508   9.835   2.740   0.388 -0.0568  0.3865 -0.1544
14700W        W30509   2.732  17.182  10.848 -0.0326  0.0939 -0.0327
14701W        W30510  15.412   1.000   1.652 -0.3285 -0.2206 -0.2012
14702W        W30511   7.525   3.081  13.994  0.2055  0.4153 -0.2355
14703W        W30512   5.055  14.223   2.598 -0.1813 -0.0069  0.1235
14704W        W30513   7.328  13.074  14.488 -0.3832 -0.2518  0.0097
14705W        W30514   7.685   3.349  14.957 -0.2519 -0.1296 -0.0708
14706W        W30515   3.224  13.808   4.904 -0.0642 -0.0161 -0.0048
14707W        W30516  17.667  10.056   2.698  0.0250  0.1239 -0.0302
14708W        W30517   1.092   8.661  15.036  0.1253  0.0419 -0.3264
14709W        W30518   4.141   2.162   3.676 -0.0072 -0.0601 -0.2038
14710W        W30519   3.539  15.639  10.704  0.2867  0.1958 -0.0713
14711W        W30520  15.635   9.291  10.964 -0.0055 -0.0747  0.3030
14712W        W30521   3.183  15.705   1.357  0.0502 -0.2943 -0.0707
14713W        W30522   2.501  14.037   3.132  0.5360 -0.1220  0.1168
14714W        W30523  10.344  10.536   2.974  0.1127  0.0480 -0.5213
14715W        W30524   0.907   8.138   2.586  0.0317 -0.0411 -0.0526
14716W        W30525  13.662   7.439  11.881 -0.0960 -0.1846  0.0719
14717W        W30526  13.162  16.129   2.403 -0.0431  0.2887 -0.0141
14718W        W30527  13.016   7.505   5.308  0.1492  0.0044 -0.1832
14719W        W30528   9.089   2.282   2.176 -0.2227 -0.1820  0.0205
14720W        W30529  18.265   3.517  14.442 -0.1058 -0.1796  0.0624
14721W        W30530   6.496   5.274  13.849 -0.1258 -0.2063  0.1161
14722W        W30531   9.315   3.208  14.378  0.0789 -0.0447 -0.1913
14723W        W30532   1.361  13.321  14.181 -0.0719 -0.1927 -0.0240
14724W        W30533   7.960   3.454  13.333 -0.0881 -0.2060  0.1761
14725W        W30534  10.045   0.332   2.260 -0.2520 -0.0386  0.0199
14726W        W30535   6.523  14.859  14.153 -0.1902 -0.0850  0.0246
14727W        W30536  14.060  11.858  14.044 -0.0904  0.2435 -0.3949
14728W        W30537  11.186   0.640   1.705  0.4200  0.1089 -0.0932
14729W        W30538  12.961   3.760  15.173  0.1515 -0.2603 -0.0146
14730W        W30539  15.407  15.216   4.341 -0.0843 -0.0512 -0.0080
14731W        W30540  13.301   6.773  10.464  0.0157  0.3857 -0.1619
14732W        W30541  18.785   1.008  11.748 -0.1416  0.1577 -0.0159
14733W        W30542  12.225  13.371  12.640  0.1873  0.0287  0.2378
14734W        W30543  18.535  13.019  12.724  0.1892 -0.0234  0.2134
14735W        W30544  12.177  11.653   9.153  0.2537 -0.2884  0.1347
14736W        W30545   9.152   3.545   3.086  0.1040  0.0841 -0.1366
14737W        W30546   7.694  11.032  12.860 -0.1669  0.0712 -0.3330
14738W        W30547  12.352  17.651  14.375  0.1910 -0.1423 -0.3285
14739W        W30548  18.157  16.687   4.190  0.0072 -0.0124 -0.1197
14740W        W30549  10.841  17.418  12.352 -0.2901  0.5809 -0.0034
14741W        W30550   9.360  16.227  11.946 -0.1030 -0.1240 -0.0080
14742W        W30551   4.449   9.176   1.090 -0.3088 -0.1352  0.1432
14743W        W30552   5.076   6.804   4.004  0.0359  0.0690 -0.0052
14744W        W30553   1.731   5.023  12.894 -0.5737 -0.1205  0.2597
14745W        W30554   8.951  11.854   0.899 -0.0521 -0.0318  0.0974
14746W        W30555  18.472  18.242  12.235 -0.1922  0.0597 -0.1256
14747W        W30556   4.168   5.201   0.415  0.0156 -0.2322  0.2614
14748W        W30557  13.318   6.991   2.663 -0.0365  0.0081  0.2413
14749W        W30558   4.520   6.048   4.142  0.2791 -0.1534 -0.2465
14750W        W30559   6.548  15.017  11.541 -0.0723  0.2110 -0.0899
14751W        W30560  11.596   6.406   3.513  0.2600 -0.2715 -0.3698
14752W        W30561  16.334   3.943   4.554  0.1815  0.1041  0.2708
14753W        W30562   0.254  11.195   4.206 -0.2198  0.0490  0.3705
14754W        W30563   9.107  18.211   4.795  0.1914  0.1714  0.1544
14755W        W30564   7.452   5.617   1.569 -0.2075  0.1455  0.2690
14756W        W30565  12.681  14.183   1.541  0.3177 -0.1844  0.0631
14757W        W30566   3.536   5.642   4.127 -0.4819 -0.0494 -0.2224
14758W        W30567  18.793  13.613  13.945 -0.2518  0.0029  0.0562
14759W        W30568   5.849   0.782   0.794  0.2087  0.1703 -0.0283
14760W        W30569   4.862  10.105  12.587  0.0209 -0.2327 -0.1960
14761W        W30570   6.822   7.147  14.063 -0.0230 -0.1896 -0.0441
14762W        W30571  16.032  10.212  13.493  0.0810  0.0112  0.1585
14763W        W30572  13.083  18.384  12.036 -0.2033  0.2755  0.0839
14764W        W30573   4.422   8.508   4.454  0.0149 -0.5019  0.1431
14765W        W30574  18.499  18.755  11.398  0.0386 -0.0216  0.1083
14766W        W30575  14.390   4.656  11.094  0.0736 -0.2011 -0.0072
14767W        W30576   8.312   9.772   1.113 -0.1967  0.2305 -0.3235
14768W        W30577  17.549   7.136   9.537  0.2229 -0.0941 -0.0121
14769W        W30578   6.675   8.670  13.368 -0.2225 -0.2141  0.0187
14770W        W30579  15.089   9.449   2.646  0.0654  0.0120  0.1668
14771W        W30580  18.936  17.493   3.034 -0.0012  0.1994 -0.1838
14772W        W30581  18.173  14.440  12.194  0.2807  0.2545  0.0090
14773W        W30582  14.891   6.947   2.718  0.1604 -0.2664  0.4840
14774W        W30583   9.769   8.999  10.906  0.0204  0.0908  0.0494
14775W        W30584  18.829   1.727   0.213  0.0383 -0.0444 -0.1843
14776W        W30585   7.518   1.188  14.221 -0.0097 -0.1011  0.1155
14777W        W30586  14.787   8.109  11.453  0.2396 -0.1210  0.3807
14778W        W30587  11.435   2.251  15.020  0.2131 -0.0727 -0.2848
14779W        W30588  18.107  14.976  12.813  0.2183  0.2495 -0.1312
14780W        W30589   8.264   7.710  11.737  0.2923 -0.2843 -0.2470
14781W        W30590   2.732   6.763   2.117 -0.3049  0.0672 -0.2213
14782W        W30591   1.108  14.709  13.358 -0.0837 -0.5451 -0.0960
14783W        W30592   7.390   9.607  10.012  0.0368 -0.3070  0.0774
14784W        W30593   3.944  11.779   5.103  0.4096  0.4122  0.2454
14785W        W30594  15.900   3.933  11.092  0.1171  0.2690 -0.1136
14786W        W30595   3.385  11.835  12.766  0.0789  0.0396 -0.0236
14787W        W30596   3.317  16.939   2.027 -0.3465 -0.0299 -0.2937
14788W        W30597  12.302   1.212  11.185  0.1911  0.3935  0.1593
14789W        W30598   6.211   9.918  14.887 -0.0391 -0.0305 -0.0852
14790W        W30599   5.886   0.937  11.762  0.4697 -0.0139 -0.1098
14791W        W30600  15.227  10.095   9.944  0.2409  0.1820  0.1203
14792W        W30601  14.070   6.842   0.247  0.4113 -0.3272  0.0147
14793W        W30602  11.597   1.702   4.853  0.0557  0.0322  0.2288
14794W        W30603  13.965   1.790  12.694 -0.1870  0.1828  0.0234
14795W        W30604  11.427  17.214   2.001 -0.2399 -0.2615  0.1407
14796W        W30605  11.052  11.391  12.019  0.5912 -0.5004  0.1318
14797W        W30606   7.242   0.535   3.170 -0.1092 -0.4089 -0.1749
14798W        W30607  17.330  14.951   1.415 -0.1179  0.1295 -0.1572
14799W        W30608   0.823   8.372   2.127  0.0186 -0.1469 -0.4588
14800W        W30609  17.033  14.257  14.033  0.2709  0.2448 -0.3416
14801W        W30610   7.252   3.704   9.804 -0.2864 -0.1850  0.1722
14802W        W30611   9.476   0.773   5.103 -0.0103 -0.0725  0.0460
14803W        W30612   7.674   8.336  14.352  0.1565  0.3059 -0.3741
14804W        W30613  14.054  17.065   3.707  0.0070 -0.5540 -0.2864
14805W        W30614   6.452   2.118  12.227 -0.1045  0.0270 -0.2048
14806W        W30615   8.672  13.436  14.596 -0.2012  0.1238  0.0538
14807W        W30616  13.037  15.966   1.068  0.1931  0.0698  0.2034
14808W        W30617   7.369   8.859   5.417  0.0393 -0.1848  0.4127
14809W        W30618  12.806   5.745   2.359 -0.0622 -0.2355  0.1486
14810W        W30619  10.055  16.967  12.870 -0.0587  0.2287 -0.2235
14811W        W30620   7.323   5.782  10.893  0.1656  0.0597  0.1528
14812W        W30621  11.520   4.478   2.343 -0.3902 -0.0745 -0.1252
14813W        W30622   5.567  10.389  10.471 -0.3048 -0.1191  0.2237
14814W        W30623  12.823   0.478   1.758 -0.1773  0.0462 -0.1082
14815W        W30624  18.356  16.374  11.057 -0.1245  0.1076 -0.0875
14816W        W30625  18.589   5.400  11.834  0.4555  0.0324 -0.0957
14817W        W30626  10.039   7.678  10.673  0.3283 -0.2818 -0.3524
14818W        W30627   3.863   6.708  15.014 -0.0939 -0.1540 -0.2844
14819W        W30628  10.878  13.559   0.759 -0.1296 -0.0446  0.0026
14820W        W30629   0.171  15.918  13.154  0.4497 -0.2577 -0.0387
14821W        W30630   0.492   6.489   0.972 -0.0956 -0.2659  0.0236
14822W        W30631  13.727  13.201   4.519 -0.2199  0.1686  0.3345
14823W        W30632  15.954  14.169  13.421 -0.0117 -0.2314 -0.2958
14824W        W30633  15.314   6.401   4.723  0.0477 -0.2088 -0.0181
14825W        W30634  18.998   4.325   4.316 -0.0389  0.2832  0.0189
14826W        W30635  16.382  10.333  12.162  0.2578 -0.0819 -0.3527
14827W        W30636   9.300  13.303   9.383  0.1322 -0.0413  0.2002
14828W        W30637   8.966   5.041  14.238 -0.0297  0.0897  0.1630
14829W        W30638  17.561   4.829  14.586 -0.1438  0.1116  0.0339
14830W        W30639   0.696  13.993   5.421 -0.0869  0.3773  0.0453
14831W        W30640   0.539  16.546   3.320 -0.0293 -0.2985  0.1611
14832W        W30641   5.696   6.348   2.564 -0.0601 -0.0313  0.2908
14833W        W30642  16.706   5.980   5.520  0.2530  0.0585  0.1596
14834W        W30643  10.957  18.916   4.276 -0.1653  0.0049  0.1047
14835W        W30644  10.036   2.960   9.826  0.1519 -0.0237  0.3158
14836W        W30645  17.292   3.251   4.727  0.0787  0.0901 -0.0034
14837W        W30646  18.920  16.918  11.800  0.0547  0.1316 -0.3198
14838W        W30647   4.993   3.672   0.214  0.0606  0.4020  0.2088
14839W        W30648  17.519  16.032   4.706 -0.2231  0.1461  0.0128
14840W        W30649  15.045   8.278   1.306  0.1085 -0.0596  0.2913
14841W        W30650  15.271   5.743  14.024 -0.0279 -0.2559 -0.0171
14842W        W30651  11.653  17.794   3.932 -0.4602 -0.3396 -0.1942
14843W        W30652   0.904   4.279   4.497  0.1107  0.1009  0.0915
14844W        W30653   7.653  11.097  13.798 -0.0472  0.0010 -0.0634
14845W        W30654  12.798   7.908  11.097  0.6276 -0.0035 -0.1223
14846W        W30655  17.753  10.759   0.042 -0.3491 -0.1248 -0.2524
14847W        W30656   7.071   4.659   2.366  0.0132 -0.0078 -0.2488
14848W        W30657   6.339   2.267  10.588  0.1643  0.0187 -0.4209
14849W        W30658  16.711  17.622   2.510  0.0026 -0.2119 -0.0107
14850W        W30659   5.021   9.353  10.038  0.3811 -0.2726 -0.1691
14851W        W30660  14.710   6.319  12.976  0.5101 -0.1851 -0.1728
14852W        W30661   7.886  14.211  12.073 -0.2210  0.0630 -0.0117
14853W        W30662  18.205   2.090  11.095 -0.0048  0.0997 -0.0358
14854W        W30663  14.174   3.254   2.844 -0.0317 -0.0871 -0.0329
14855W        W30664  17.718  17.601  11.697 -0.0203  0.0934  0.0064
14856W        W30665   6.759   1.685   4.296  0.0667  0.2096 -0.2910
14857W        W30666   4.394  17.397   1.450  0.0911  0.0968  0.2072
14858W        W30667  16.030   2.027  13.708 -0.0245 -0.0975 -0.1010
14859W        W30668   9.985  14.303  12.796 -0.0356  0.2358  0.0190
14860W        W30669  11.118   5.290   0.675  0.0224 -0.1118  0.1945
14861W        W30670  14.758  10.861   1.178 -0.1084 -0.2388 -0.3227
14862W        W30671  14.370   6.535  14.698 -0.1564  0.2483  0.4943
14863W        W30672  18.186  13.104  13.124  0.0090 -0.4080 -0.0224
14864W        W30673   7.176   6.296   4.813  0.1400  0.2370  0.0918
14865W        W30674   4.919  11.846   3.165  0.1095  0.5015  0.0620
14866W        W30675  18.769  11.333   0.416 -0.0194 -0.2575 -0.1177
14867W        W30676  18.172   2.414   5.533 -0.0629  0.0405  0.0775
14868W        W30677  16.381   1.703   0.737 -0.1011 -0.1707  0.0237
14869W        W30678   4.082  17.429  11.270 -0.2520 -0.0738  0.2797
14870W        W30679  11.932  18.979  12.530 -0.0036 -0.0254 -0.2114
14871W        W30680   2.706  14.886  11.399  0.0757 -0.1540  0.2564
14872W        W30681   5.023   6.141   1.266 -0.0962 -0.0655 -0.1341
14873W        W30682   6.434  10.823  12.423 -0.0048  0.1198 -0.0402
14874W        W30683   9.200   7.440   4.676  0.0239 -0.0677 -0.2533
14875W        W30684  13.599  13.600  14.001 -0.0156 -0.1343  0.2259
14876W        W30685  11.603  13.074   1.663  0.0243 -0.1429 -0.2455
14877W        W30686   1.761   0.198  13.924  0.2409  0.0963  0.0341
14878W        W30687  14.782   3.040  11.119  0.2239  0.2628 -0.0125
14879W        W30688  18.751  12.057   5.890 -0.0815  0.4993 -0.0670
14880W        W30689  17.206   8.313  13.894  0.0185 -0.0619 -0.0663
14881W        W30690  13.275  13.341   4.133  0.1485 -0.4323 -0.1175
14882W        W30691   6.539   4.765  13.471  0.2165  0.0865  0.1562
14883W        W30692   6.332  11.116  13.374 -0.1904 -0.1774 -0.3583
14884W        W30693  16.857   1.150  10.497 -0.0604 -0.0755 -0.2617
14885W        W30694  12.624  17.171  11.200 -0.2933 -0.1243 -0.3445
14886W        W30695   7.566   5.149  14.792  0.1093  0.0590  0.1077
14887W        W30696  11.209   1.708   0.808  0.2318 -0.3622  0.1708
14888W        W30697   7.281  12.819   0.194  0.1625  0.3408 -0.1609
14889W        W30698  15.035   8.018  14.237 -0.0818 -0.2647  0.0833
14890W        W30699   5.895  18.163  13.349  0.3049 -0.0999  0.0910
14891W        W30700   5.193   4.118  11.401  0.3263 -0.0914  0.1071
14892W        W30701  18.400   4.537  11.158  0.2359  0.2058 -0.4173
14893W        W30702  13.067  16.556   3.163 -0.1491  0.3836 -0.1068
14894W        W30703   8.736   3.619  13.028  0.1082  0.1757 -0.1227
14895W        W30704  15.817   5.655   1.647  0.0970  0.2299 -0.0191
14896W        W30705   1.018   7.438   2.571  0.1309 -0.3178  0.1942
14897W        W30706  13.495  13.618   3.305  0.1039  0.0997 -0.2919
14898W        W30707  11.513   2.307   0.294  0.2728  0.1020 -0.2375
14899W        W30708  10.740   8.198   1.270  0.1845  0.0278  0.1601
14900W        W30709   9.058  18.707   1.909  0.2346  0.0227 -0.0246
14901W        W30710   6.933  15.488   2.633 -0.1311  0.0924  0.0315
14902W        W30711   0.987   9.536   0.476  0.0008 -0.1326  0.0787
14903W        W30712  15.682  16.542   0.481 -0.1524  0.2653 -0.1577
14904W        W30713  14.996   3.183   1.606  0.2885 -0.0776  0.2366
14905W        W30714   7.853   1.692  13.531  0.2334 -0.1811  0.1356
14906W        W30715   3.263   7.583   5.726 -0.0275  0.1925  0.1195
14907W        W30716  13.393  14.864  13.561 -0.0616 -0.0268  0.1762
14908W        W30717  13.367  14.848  11.986 -0.1651  0.0284 -0.1859
14909W        W30718  14.111   1.939   5.973 -0.1715  0.0900 -0.2685
14910W        W30719  10.624   0.341   4.125 -0.1774 -0.3341 -0.2720
14911W        W30720  10.456  13.511   2.754 -0.2342 -0.3290  0.0104
14912W        W30721  11.491   0.862  14.983 -0.3326  0.0738 -0.0737
14913W        W30722   0.524  13.838   4.265  0.1858 -0.0099 -0.4554
14914W        W30723   8.602  17.896  13.170 -0.1069 -0.1827 -0.0566
14915W        W30724  12.999  12.088  12.658 -0.0466  0.1215  0.1138
14916W        W30725  16.846   2.031   2.052  0.0661  0.2319  0.3189
14917W        W30726   5.168   4.742   4.284  0.1020 -0.0857 -0.1189
14918W        W30727   9.779  17.056  14.749  0.0464 -0.2768 -0.0793
14919W        W30728  13.705   9.284  13.050 -0.2456 -0.0336  0.5952
14920W        W30729   5.726  18.625  11.902 -0.2846 -0.2892 -0.4508
14921W        W30730  15.125  18.313   1.764  0.2766  0.2683  0.0851
14922W        W30731  11.899  10.797  12.923  0.1399  0.2322  0.0272
14923W        W30732  16.555   2.326  13.821  0.2465 -0.2298 -0.3345
14924W        W30733   5.778  11.906   9.851  0.0414  0.0472  0.0542
14925W        W30734   0.680   3.912  11.954  0.0815 -0.2146 -0.0955
14926W        W30735   3.810  13.688  10.659  0.0412  0.1575 -0.1873
14927W        W30736   5.127   2.883  14.452 -0.0187 -0.2719 -0.0578
14928W        W30737   5.535  11.017  11.031  0.0063 -0.0001  0.0564
14929W        W30738  10.760  14.814   2.739 -0.0040 -0.2872  0.0189
14930W        W30739  13.849  13.238   2.944  0.1333 -0.1086 -0.1973
14931W        W30740  12.378   4.443  11.271 -0.2910 -0.4410 -0.0792
14932W        W30741  16.990  10.734   4.778  0.1622  0.6199  0.0956
14933W        W30742  14.654  12.995   0.816 -0.2745 -0.1055  0.0043
14934W        W30743   3.424  15.766  15.062 -0.4078  0.0724  0.0406
14935W        W30744   4.091   9.368  14.205 -0.4028  0.0708 -0.4308
14936W        W30745   7.288  15.385   1.656 -0.0025  0.0825  0.3823
14937W        W30746  13.993  12.804   5.290 -0.1063 -0.1278  0.1382
14938W        W30747  11.946  13.294   2.888  0.3127  0.1001  0.2947
14939W        W30748   2.882  15.375   4.820 -0.1893 -0.0445  0.2606
14940W        W30749   7.265   5.475   3.457 -0.0666 -0.2445 -0.2269
14941W        W30750   3.672  15.832  10.285 -0.2958 -0.2938  0.4298
14942W        W30751  17.695  18.927   5.453 -0.0931  0.1285  0.2274
14943W        W30752  15.101  14.115  10.537  0.2070  0.0477  0.0996
14944W        W30753  15.367  15.237   2.441  0.1315 -0.3279  0.0601
14945W        W30754   2.506  12.773   2.697  0.1346 -0.1101 -0.1193
14946W        W30755   7.115   1.595   5.634 -0.0835 -0.1035  0.1906
14947W        W30756  17.848   7.496   5.435 -0.3030 -0.3431  0.1711
14948W        W30757   0.182   4.517  14.740 -0.0169 -0.0761 -0.1464
14949W        W30758  17.280   3.030  13.960 -0.1027  0.2852  0.0117
14950W        W30759   1.835   2.717  11.622 -0.0959  0.2573 -0.1163
14951W        W30760  12.799  11.334   3.827  0.0379  0.1362  0.0390
14952W        W30761  13.266  12.491   1.802  0.0843 -0.3445  0.0201
14953W        W30762   3.976  12.413  11.550 -0.1563  0.0838  0.2701
14954W        W30763  18.278   9.354  10.952 -0.1410 -0.3206  0.2107
14955W        W30764   1.205  18.473  12.862 -0.2007 -0.0154 -0.2803
14956W        W30765  11.479   4.875  14.271  0.0239 -0.0892 -0.0231
14957W        W30766   4.713  15.961  13.369 -0.4869 -0.2804 -0.1973
14958W        W30767  18.668  10.151   5.733  0.2235  0.1408 -0.2049
14959W        W30768   8.438  17.430   3.000 -0.0131 -0.2049  0.4070
14960W        W30769   2.453  10.692  10.881  0.1555  0.1246 -0.0422
14961W        W30770  12.096   8.559   1.790  0.1892 -0.1780  0.2879
14962W        W30771   4.536  11.806  11.289  0.0320  0.0027 -0.1419
14963W        W30772  13.424   8.510   0.587 -0.2029  0.2652  0.0721
14964W        W30773   9.688  13.691  10.620  0.1308 -0.1636  0.0357
14965W        W30774   9.889   9.847  12.660 -0.3455 -0.3852 -0.0298
14966W        W30775  16.950  15.365   0.491 -0.0289 -0.4287 -0.1508
14967W        W30776   9.186   2.805   3.154  0.1107  0.0191 -0.2028
14968W        W30777   4.451  12.431  13.841  0.0763 -0.3755 -0.0137
14969W        W30778  15.844  14.037  12.368  0.1010  0.0334  0.5895
14970W        W30779  18.506  16.713  11.847 -0.2066 -0.1801 -0.1161
14971W        W30780   3.123   4.405  12.822  0.4280 -0.0167 -0.0349
14972W        W30781  14.126   5.981   1.453  0.0997  0.0703 -0.0156
14973W        W30782  17.156  12.738  13.636 -0.0229 -0.0239  0.0282
14974W        W30783   7.311   2.446   2.695  0.1299 -0.3511  0.0149
14975W        W30784  10.523  17.623  13.211 -0.2464 -0.1237  0.0471
14976W        W30785   1.989  12.090   0.410 -0.1481 -0.0716  0.0742
14977W        W30786   9.481   2.392   3.454  0.3145  0.4837  0.0439
14978W        W30787   8.179   2.626   0.589 -0.2615 -0.1875 -0.1668
14979W        W30788  18.979   7.842   1.582  0.0163 -0.0962  0.1361
14980W        W30789   7.213  12.717   3.846  0.0464  0.2992 -0.1533
14981W        W30790  14.359  14.035   0.810 -0.2199  0.1299  0.0025
14982W        W30791   5.225  17.400  12.419 -0.1963  0.0553 -0.0408
14983W        W30792   4.375  17.251  14.375  0.1589  0.0575 -0.0167
14984W        W30793  10.407  12.172  12.038  0.1384  0.5698  0.2772
14985W        W30794   2.201  12.562   3.058 -0.0766 -0.0105 -0.1519
14986W        W30795  11.068   0.010  11.999  0.2797  0.0501  0.1737
14987W        W30796   3.487   4.769   2.746  0.3957 -0.0154 -0.2559
14988W        W30797   8.941   9.848   0.438  0.1281  0.0435 -0.3506
14989W        W30798   7.346  16.885   2.445  0.1301 -0.1136  0.0146
14990W        W30799  11.518  12.937  11.999  0.2303 -0.4949 -0.0391
14991W        W30800   0.581   4.049  14.817 -0.1200 -0.0482  0.0616
14992W        W30801  18.355   5.532   4.907 -0.1528 -0.0406 -0.3359
14993W        W30802   6.387  12.642   1.609  0.0597  0.0975  0.1237
14994W        W30803  12.320   3.571   0.598 -0.1754 -0.0996 -0.1698
14995W        W30804   8.591  12.533   4.409 -0.2078  0.0912 -0.1429
14996W        W30805   8.954   3.088  13.301 -0.1077 -0.1028 -0.0950
14997W        W30806  17.570  14.968  14.029 -0.1074  0.3259  0.0529
14998W        W30807   2.786  11.959  11.445 -0.1060  0.1556  0.1293
14999W        W30808  16.858  12.868  14.737 -0.1723  0.0959  0.1733
15000W        W30809   1.476   6.620   1.947  0.1601  0.0326  0.1262
15001W        W30810   7.211  14.298  13.845  0.2154 -0.0274  0.0456
15002W        W30811  15.964  16.562  12.339 -0.1039 -0.0891 -0.0259
15003W        W30812  14.315  11.381  14.104  0.2462 -0.2038 -0.1058
15004W        W30813   1.697   7.339  11.510 -0.4121 -0.0016 -0.2069
15005W        W30814   4.789  11.509  12.801  0.1869 -0.3082 -0.3445
15006W        W30815  11.752   3.906   0.935  0.1111 -0.0331  0.1730
15007W        W30816   6.168  16.260   0.242  0.0117  0.0567  0.0845
15008W        W30817  13.153   0.871   4.111  0.0431 -0.1153 -0.0727
15009W        W30818   0.954  12.235   0.404  0.1946 -0.2380 -0.0049
15010W        W30819  12.340   3.745   1.395 -0.1803  0.0135 -0.1541
15011W        W30820  15.622   4.769   4.109 -0.2911  0.3084 -0.0058
15012W        W30821  15.035  17.901  14.598  0.1048 -0.0137 -0.4855
15013W        W30822  14.969  10.474  15.110 -0.0414 -0.2335  0.0945
15014W        W30823  15.183   3.679  11.598  0.0651  0.5338 -0.0802
15015W        W30824  18.739   0.167   5.476 -0.1056 -0.0432 -0.1628
15016W        W30825  14.471   7.443   0.923 -0.0284  0.0059 -0.4638
15017W        W30826   9.952   7.535  13.695  0.1767 -0.0855  0.2665
15018W        W30827   9.435   0.133   1.735  0.2992 -0.1190 -0.1309
15019W        W30828   5.553   6.608   2.125  0.3584  0.0420 -0.1913
15020W        W30829   6.591   5.936  10.140 -0.0400  0.1458 -0.0736
15021W        W30830   4.191   4.377  14.453 -0.1407  0.1387 -0.2165
15022W        W30831   1.472   0.891   2.623 -0.2579 -0.5043  0.1595
15023W        W30832  12.928   8.159   3.831  0.0970  0.1275  0.1849
15024W        W30833   4.611  15.456  14.179 -0.1224 -0.0177  0.1466
15025W        W30834  14.153  14.942  10.952 -0.3282  0.0548  0.4134
15026W        W30835   9.986  13.649  11.072 -0.0241  0.1154  0.2798
15027W        W30836  17.199  11.572   5.360 -0.5015  0.1520  0.2479
15028W        W30837   8.915   4.591   0.546 -0.1650  0.2659 -0.2510
15029W        W30838  12.516   6.681  10.796  0.1355 -0.2978  0.1084
15030W        W30839   9.810  12.260   1.714 -0.2833 -0.1275 -0.1076
15031W        W30840  14.410   1.322   2.055 -0.2732 -0.1864 -0.0444
15032W        W30841  17.778   8.084   5.338 -0.0423  0.2066  0.2696
15033W        W30842  17.304  17.949   2.945  0.0100  0.0535  0.0013
15034W        W30843   0.817  15.369   3.289 -0.1858  0.1353  0.0322
15035W        W30844   1.677   5.065  14.091  0.1175  0.2776 -0.2385
15036W        W30845  18.304  17.502  11.823  0.2995 -0.0104  0.0394
15037W        W30846  17.926  10.416   5.091 -0.0867 -0.0583 -0.1029
15038W        W30847  10.754  13.269  13.099 -0.2185 -0.2187 -0.3869
15039W        W30848  17.007   0.931  13.724 -0.0344  0.0513  0.2281
15040W        W30849  11.852  11.260   3.058  0.1269  0.4520  0.2416
15041W        W30850  17.343  15.660   0.162  0.1771 -0.1312  0.1136
15042W        W30851   5.267   2.494  11.205 -0.0198 -0.0608 -0.1221
15043W        W30852   1.878   6.764  14.326  0.1684 -0.0067 -0.4012
15044W        W30853  12.021   8.966   2.658  0.0037 -0.0018 -0.1088
15045W        W30854   5.809   2.455  13.783 -0.2370  0.1808  0.1514
15046W        W30855   2.554  13.897  12.071  0.0051 -0.2686  0.0957
15047W        W30856   2.635   8.190  12.548 -0.0683 -0.2831 -0.0265
15048W        W30857  14.356   7.326  10.657  0.1425  0.2796  0.1320
15049W        W30858   3.461  10.440   4.581  0.2453 -0.0748 -0.1273
15050W        W30859   3.894   8.281  13.357  0.2916 -0.1013  0.0551
15051W        W30860  14.548   9.388   3.365 -0.0648  0.2059  0.0934
15052W        W30861  18.552  17.592  12.813  0.1520 -0.1021 -0.1852
15053W        W30862   7.425  17.872  11.826  0.1719  0.1149 -0.1196
15054W        W30863  12.311  18.613  11.846  0.4105 -0.0346 -0.2556
15055W        W30864   0.532   5.420  12.031 -0.2272 -0.1102  0.3374
15056W        W30865   3.605   9.367  11.559  0.0514  0.0571  0.1679
15057W        W30866  13.416  12.081  12.996  0.0107 -0.0034 -0.1225
15058W        W30867   8.831   6.355  10.156  0.3926 -0.1495 -0.1207
15059W        W30868  13.144   4.501  10.728 -0.1497  0.0082 -0.0580
15060W        W30869  14.210   5.392  13.860 -0.2838 -0.0562 -0.2175
15061W        W30870  12.570  15.187  11.932 -0.1905 -0.3935 -0.0825
15062W        W30871   3.105  11.474  12.090  0.0633 -0.3264  0.3505
15063W        W30872  14.020  11.680  13.157  0.0921  0.2636  0.0977
15064W        W30873   6.838   4.455  10.660 -0.2397 -0.0204 -0.0860
15065W        W30874   1.707  11.273   5.065 -0.0716 -0.0618 -0.0721
15066W        W30875  17.105  18.936   0.718 -0.1228  0.1721  0.2052
15067W        W30876  15.122   3.019   4.661 -0.2564  0.2107 -0.0737
15068W        W30877   7.565   3.693   4.195 -0.0601 -0.4811  0.1437
15069W        W30878   8.487   1.241   1.760 -0.2188 -0.0185  0.1232
15070W        W30879   8.513  16.704  12.788 -0.1183 -0.0141 -0.4312
15071W        W30880   1.765   1.260  15.013 -0.1636 -0.1403 -0.2029
15072W        W30881  13.141   1.680   4.355  0.5237  0.4356 -0.1579
15073W        W30882  11.155   0.484  11.763 -0.2592  0.1748  0.0119
15074W        W30883   9.560  12.510   4.132 -0.0436  0.2067  0.0238
15075W        W30884  15.136  10.690   4.973  0.0199  0.3732  0.1956
15076W        W30885   8.970   1.277   3.488 -0.2377  0.1684  0.1347
15077W        W30886   3.761  17.843  15.054  0.0833 -0.4986 -0.1306
15078W        W30887  12.795   5.123   3.596 -0.3197 -0.0146  0.3639
15079W        W30888   7.237  12.912   3.369  0.0001  0.2100  0.1346
15080W        W30889   0.227   0.895  11.458 -0.0144 -0.1856  0.0820
15081W        W30890   7.825   9.532  11.082 -0.0727  0.1512  0.0544
15082W        W30891   0.153   2.372   9.674 -0.0030  0.0776 -0.0751
15083W        W30892  18.851   8.283  12.402 -0.1990 -0.0062  0.1746
15084W        W30893   1.262   4.813  13.899 -0.0276 -0.0382 -0.1419
15085W        W30894   4.038   6.671   2.763 -0.1722 -0.0020  0.1372
15086W        W30895  14.306  13.699   2.508  0.0935 -0.3329 -0.0221
15087W        W30896  12.397   6.376   0.997  0.1653  0.3562  0.0498
15088W        W30897  11.762  12.709  12.816  0.2836  0.1360 -0.0967
15089W        W30898   3.300  12.385  14.314 -0.3757  0.1883  0.2297
15090W        W30899  18.314  10.303   4.790  0.0238 -0.0042  0.2075
15091W        W30900   8.310   4.033  14.329  0.1200  0.0823 -0.0923
15092W        W30901   2.335  17.800  14.692  0.0765 -0.0510 -0.1319
15093W        W30902  13.233  12.945  12.206 -0.0775  0.0917 -0.1295
15094W        W30903   1.929   9.695   4.137 -0.2030 -0.1412  0.2486
15095W        W30904  10.962  17.979  12.090 -0.0535  0.0633 -0.1365
15096W        W30905   1.441   5.105   3.369  0.1761  0.0019  0.0905
15097W        W30906  10.272   3.417   3.635 -0.1631 -0.2688  0.0750
15098W        W30907   1.095  13.744  13.470 -0.0234  0.2599  0.6351
15099W        W30908  11.028   4.105  11.915  0.0674  0.2045 -0.1017
15100W        W30909  14.505  15.543   0.609  0.1896 -0.0359 -0.3104
15101W        W30910   2.674   0.845   3.543  0.1179 -0.2926 -0.3126
15102W        W30911   0.386   4.668  13.127  0.0842  0.1316 -0.3374
15103W        W30912  14.575  12.345  11.549 -0.1215  0.0113 -0.3336
15104W        W30913  11.756  17.382  10.801  0.3239  0.3683 -0.1882
15105W        W30914  12.880   0.188  15.169  0.1726  0.1708 -0.0291
15106W        W30915   7.594   1.654   1.646 -0.1909 -0.0555 -0.0082
15107W        W30916   1.230  12.232   2.083 -0.1888 -0.0982  0.3501
15108W        W30917   3.025   2.499  11.421  0.2597 -0.1630 -0.1339
15109W        W30918  15.654   1.516   3.361 -0.1305 -0.1322  0.1402
15110W        W30919   8.389   8.718  10.391  0.0740  0.0786  0.2426
15111W        W30920  16.964  17.501   2.946 -0.0155  0.2655  0.1640
15112W        W30921  12.710   9.538   2.204  0.1635 -0.1296  0.0107
15113W        W30922  12.503  13.228   0.141  0.2292 -0.1214 -0.1814
15114W        W30923  14.945   8.018  10.978 -0.1435 -0.0530 -0.3444
15115W        W30924   1.082  11.064   0.891 -0.2312  0.3127  0.1404
15116W        W30925   1.176  16.333  14.064  0.1558  0.1239 -0.1103
15117W        W30926   1.466  18.227  13.962 -0.0728  0.0188  0.0165
15118W        W30927   1.888   6.478   2.707 -0.0818  0.1328  0.2305
15119W        W30928   0.047  11.441  14.973  0.1681 -0.0349  0.2116
15120W        W30929  14.350  13.884  13.268 -0.0340 -0.1189 -0.1390
15121W        W30930   5.569   8.419   2.576 -0.2833  0.2274  0.0898
15122W        W30931   5.563  15.257   0.653 -0.2293  0.1389  0.1910
15123W        W30932   0.280   9.798   5.161  0.0551 -0.0054 -0.0806
15124W        W30933  10.346   1.878   2.308 -0.2713 -0.2455 -0.1560
15125W        W30934  13.331   1.748   3.390 -0.1612 -0.1675 -0.3554
15126W        W30935   3.719   0.027  10.584  0.1366  0.0608  0.1204
15127W        W30936   4.875   6.178   2.774 -0.1127  0.2073  0.0443
15128W        W30937   0.194   1.272   5.045 -0.2010  0.1752 -0.0838
15129W        W30938   0.238   8.698   1.394 -0.3461 -0.1829 -0.2558
15130W        W30939   5.431   2.559   1.467 -0.0991 -0.1942 -0.0804
15131W        W30940  16.566   5.496   0.700  0.2630  0.0132  0.3286
15132W        W30941   3.620  18.718   1.420  0.0606 -0.0718  0.3797
15133W        W30942  11.269   3.056   1.212  0.0601  0.0920  0.1641
15134W        W30943  18.491  10.662  12.126  0.4291  0.0732 -0.1677
15135W        W30944   5.984  11.251  11.798 -0.1789  0.0928 -0.1121
15136W        W30945   6.045  16.794  11.371 -0.0860 -0.0414 -0.0114
15137W        W30946  18.259   1.411   4.391 -0.2168  0.1807 -0.0575
15138W        W30947   5.264  13.711  11.900  0.2626  0.2418  0.2741
15139W        W30948  18.318  18.308   0.888  0.0056  0.0043 -0.1340
15140W        W30949  13.552  18.432  13.237  0.0057  0.1467  0.2178
15141W        W30950  18.275   4.784   1.227  0.1298  0.1190 -0.0751
15142W        W30951  13.169  12.374   0.976  0.0950 -0.1390  0.0594
15143W        W30952   6.844  10.048   0.052  0.0374 -0.2042 -0.0274
15144W        W30953   9.315  12.931  13.485  0.1599  0.0018 -0.1880
15145W        W30954  11.408   9.071   3.859 -0.1797  0.1400  0.0000
15146W        W30955   0.254   8.752   0.494 -0.0346  0.1995 -0.0987
15147W        W30956  18.560  15.197   2.081  0.0522  0.0318  0.3531
15148W        W30957   6.413  15.369  11.851  0.0736 -0.0551  0.1130
15149W        W30958  14.721   2.424  11.841  0.4020  0.0170  0.2349
15150W        W30959  11.797   6.725   1.384 -0.2733  0.0649  0.2494
15151W        W30960  18.188   6.263   4.135 -0.0800 -0.1399  0.0436
15152W        W30961   0.720   3.256   1.486 -0.0361 -0.2629 -0.0573
15153W        W30962  15.693   0.919   3.501 -0.1179 -0.0310  0.2054
15154W        W30963  18.369  18.619   4.967 -0.0369  0.0515  0.0405
15155W        W30964   8.144  13.601   4.335  0.4015 -0.1582 -0.1470
15156W        W30965  14.391  12.111  10.721  0.0708  0.1152 -0.4650
15157W        W30966  12.716  17.993  14.330  0.0959  0.1330  0.1667
15158W        W30967  15.094   0.340  11.627  0.1727  0.0536 -0.2166
15159W        W30968  18.901  17.909  13.045  0.4024 -0.2553  0.0579
15160W        W30969  16.604   9.048   4.321 -0.3089  0.1448  0.0393
15161W        W30970   3.739   9.576  12.477 -0.0046  0.1355 -0.0395
15162W        W30971   0.942  13.997   2.342 -0.1142 -0.0271 -0.0769
15163W        W30972   6.537   7.464   2.128 -0.1016  0.2397  0.2853
15164W        W30973  18.519   9.242   0.370 -0.1638  0.0377  0.3072
15165W        W30974   8.607  12.978  14.248 -0.1889  0.0725  0.0229
15166W        W30975  12.258   3.007  11.626  0.0787 -0.0016 -0.1754
15167W        W30976  14.753  13.498   2.455 -0.2465 -0.1749 -0.2575
15168W        W30977   1.002   8.362  11.504  0.1620 -0.2001 -0.1308
15169W        W30978   5.475  16.639   1.476 -0.2068 -0.3494 -0.0146
15170W        W30979  13.986   4.094  12.918  0.3674 -0.1316  0.0103
15171W        W30980  15.288  14.209  12.216 -0.3182 -0.0769  0.3835
15172W        W30981   9.603  13.923  12.455 -0.3161  0.3574 -0.0949
15173W        W30982   7.962  14.034   4.020  0.1684  0.3387  0.0709
15174W        W30983   4.580   3.225   4.654  0.2505  0.1678  0.1620
15175W        W30984  12.253  16.081  15.020 -0.1387 -0.1037 -0.0179
15176W        W30985  12.077   5.448  12.101 -0.1043  0.1299  0.2182
15177W        W30986  18.332   1.846  14.221  0.2653 -0.2507 -0.0966
15178W        W30987   7.562  10.546  13.694  0.1931  0.3620 -0.1263
15179W        W30988   3.080   5.481  11.647  0.0634 -0.0291 -0.0353
15180W        W30989  11.324   5.663   2.382  0.0067 -0.1162 -0.0287
15181W        W30990  16.892   1.213   2.204  0.1982  0.1479 -0.1481
15182W        W30991   4.654   9.058  14.282 -0.0030  0.1881  0.0258
15183W        W30992   1.933  14.406  14.464 -0.1909  0.2793  0.1726
15184W        W30993   6.721  10.101  14.869 -0.3781 -0.1907  0.3004
15185W        W30994  11.977   5.787   0.134  0.3109  0.1394  0.3638
15186W        W30995   2.512   1.260  11.685  0.1232  0.0217 -0.1490
15187W        W30996   8.431  13.583  11.649 -0.3670  0.1121  0.0511
15188W        W30997   9.833  15.276   4.851 -0.0292  0.1258  0.2498
15189W        W30998   4.129   3.647   3.505 -0.0415 -0.0144  0.0283
15190W        W30999   9.605   2.908   1.396  0.1948  0.0931  0.0222
15191W        W31000  13.904   6.623   2.732 -0.2394 -0.0401 -0.1553
15192W        W31001  11.884   6.701  12.373  0.0383  0.1604 -0.0201
15193W        W31002  10.239  12.536   3.885 -0.3073 -0.2542 -0.0974
15194W        W31003  12.572  11.116   2.461  0.0466 -0.3378  0.0194
15195W        W31004  11.773   7.277   2.604  0.0362  0.1451 -0.0842
15196W        W31005  15.579   2.860  12.632 -0.0784 -0.2390 -0.0853
15197W        W31006  18.418   6.285  10.848  0.3595  0.0146  0.2418
15198W        W31007   5.215   0.012  14.815  0.1585  0.1101 -0.1348
15199W        W31008   1.088  15.422  14.643 -0.1421  0.0453  0.1046
15200W        W31009   8.488   1.834  12.896 -0.0471 -0.1212 -0.1450
15201W        W31010   9.848   8.818   2.892 -0.0529  0.0120  0.0540
15202W        W31011  11.592   8.772   3.411  0.0012 -0.0441 -0.0771
15203W        W31012  17.173  11.567   3.399 -0.0700 -0.0951 -0.1228
15204W        W31013   3.545   6.292  14.951 -0.2165 -0.3458  0.2643
15205W        W31014   4.489   4.711   3.040 -0.2646  0.0403 -0.2246
15206W        W31015   5.357   7.622  10.576 -0.1107 -0.0672 -0.2646
15207W        W31016  15.074  14.312   3.886  0.0742  0.0652  0.1741
15208W        W31017  16.395  14.880   0.396 -0.0913  0.1405  0.0224
15209W        W31018   6.300  12.041  14.857  0.0583  0.0674  0.0894
15210W        W31019  11.238  12.746  10.151  0.1593 -0.1228  0.0819
15211W        W31020  14.474   9.522   2.874  0.4155 -0.1423 -0.2633
15212W        W31021  11.128  15.196   2.680  0.0802 -0.1479  0.1846
15213W        W31022  15.660   6.084   0.719 -0.3174 -0.0240  0.0384
15214W        W31023   0.240  18.107  11.779  0.2230  0.1186  0.0854
15215W        W31024  12.723   7.650   0.497 -0.1912 -0.1288  0.2001
15216W        W31025   1.305  12.487   1.144 -0.2094  0.2265 -0.0722
15217W        W31026  17.424  13.765   0.850 -0.1430  0.1475  0.0264
15218W        W31027  11.395   7.919  14.798  0.0482  0.2915  0.2712
15219W        W31028   5.963   1.706  13.453 -0.1321 -0.1890  0.1786
15220W        W31029   8.156  15.622  13.243  0.1360  0.0268 -0.2697
15221W        W31030   0.885   0.377   2.108 -0.2991 -0.1058  0.0540
15222W        W31031  14.725   6.776  12.590  0.1673  0.1429  0.1454
15223W        W31032   3.803  13.503   4.622 -0.0152  0.0937 -0.1275
15224W        W31033   1.440   5.780  10.546 -0.0570  0.0624 -0.0801
15225W        W31034   9.283   9.699  10.249 -0.0786  0.0567  0.1667
15226W        W31035  18.124  16.981  12.027  0.0283 -0.1534 -0.1058
15227W        W31036  13.960  18.208  12.510  0.0666 -0.1413  0.1383
15228W        W31037  18.058  15.211   4.520 -0.1668  0.3758 -0.3262
15229W        W31038   4.157  18.989   1.468 -0.1390 -0.0698  0.1122
15230W        W31039   1.228  17.889   0.437 -0.4061  0.4091 -0.0180
15231W        W31040   6.369  12.786  13.734  0.1224  0.3096 -0.1143
15232W        W31041   1.823   6.456   3.329  0.0166  0.0653 -0.2388
15233W        W31042   1.110   6.180  11.224  0.0499  0.0400 -0.0176
15234W        W31043   4.117   0.393   2.086 -0.1431 -0.1226 -0.2829
15235W        W31044  12.531  18.573  12.872 -0.0480 -0.0573 -0.0546
15236W        W31045   9.400  16.905  13.304 -0.0155 -0.1574  0.0204
15237W        W31046   5.066   6.453  13.284 -0.2053  0.1226  0.0565
15238W        W31047   6.132  12.134  12.211  0.1124  0.0010  0.1147
15239W        W31048   2.925   0.483   3.265 -0.0319 -0.0506  0.0436
15240W        W31049  12.759   7.430   3.617  0.1904  0.3177  0.1677
15241W        W31050   4.686  11.998   4.031 -0.0397  0.1955  0.2096
15242W        W31051   4.585   2.371  12.348 -0.0166  0.0464 -0.1214
15243W        W31052  10.198   2.355  11.097  0.2427 -0.0245 -0.0185
15244W        W31053   6.751   4.044   4.272 -0.0723 -0.2103 -0.1370
15245W        W31054   1.551  12.260  14.833  0.0249  0.0187  0.0915
15246W        W31055  18.367  11.806  13.390 -0.0205 -0.2286 -0.0543
15247W        W31056   0.631  12.876  14.585  0.0035  0.1458 -0.0070
15248W        W31057  15.767   4.583  14.913 -0.0927  0.1057  0.1231
15249W        W31058   5.177   5.399  14.033  0.1868  0.0992 -0.1384
15250W        W31059  13.837   3.559   4.984  0.0109 -0.1002 -0.2427
15251W        W31060   7.009   7.479  14.387 -0.0574  0.0880  0.0665
15252W        W31061   3.287  17.154  14.647  0.2032  0.1318  0.0010
15253W        W31062  13.914   1.976  11.300 -0.1145  0.0534  0.1448
15254W        W31063  17.892   3.057   2.045 -0.1450  0.1634  0.0429
15255W        W31064   3.596   7.079   0.969  0.0011  0.0623  0.2892
15256W        W31065  16.127   2.185   3.922 -0.0882 -0.1920 -0.0866
15257W        W31066   5.986   9.261   1.242  0.3521  0.0820 -0.0056
15258W        W31067  13.141  18.498   1.619 -0.3833 -0.3520  0.1587
15259W        W31068   4.751   6.825  11.680 -0.0350  0.1117 -0.0248
15260W        W31069   2.571   7.956  14.338 -0.1773 -0.0105 -0.0341
15261W        W31070   9.398  17.770   1.678 -0.2657 -0.2990 -0.0879
15262W        W31071   9.933   1.920  13.514 -0.1098  0.1885  0.0735
15263W        W31072   9.739  13.453  14.623  0.0911  0.0820  0.1781
15264W        W31073  17.327  11.084   1.078  0.0340 -0.1857 -0.0417
15265W        W31074   2.844  12.526  13.939 -0.0414 -0.1250  0.2697
15266W        W31075   1.709   3.217  11.533  0.2476 -0.0875  0.0212
15267W        W31076   8.409  16.884  11.329 -0.0814 -0.1487  0.0513
15268W        W31077  18.069  17.579   1.123  0.3404  0.1567 -0.1378
15269W        W31078   7.390   7.937   3.748  0.4273 -0.3367 -0.1993
15270W        W31079  14.586   9.686  10.930 -0.1818  0.1069  0.0882
15271W        W31080  11.973  17.401   1.976  0.0018  0.2360  0.1351
15272W        W31081  16.248   1.034   2.810 -0.4235  0.1752 -0.4834
15273W        W31082  14.537   8.593   5.864  0.0835  0.2024 -0.0350
15274W        W31083   1.781  11.923   2.797  0.0885  0.0095  0.0481
15275W        W31084  17.485   9.648  11.461 -0.3654 -0.0966  0.0731
15276W        W31085   3.167  14.451   3.433  0.2372  0.0817 -0.0275
15277W        W31086   5.169   1.771  13.656 -0.2191 -0.1336 -0.1247
15278W        W31087  13.564   9.364   0.976 -0.2900  0.2382 -0.0080
15279W        W31088  18.938  16.696   3.730  0.0640  0.0517 -0.3092
15280W        W31089   9.539   9.174   2.597  0.2372 -0.0937  0.0522
15281W        W31090   9.994  18.127   2.371  0.2745 -0.1823 -0.1842
15282W        W31091   5.121   2.964  11.034 -0.0534  0.1966 -0.2158
15283W        W31092  13.469   2.818   2.375 -0.0287 -0.0759 -0.3106
15284W        W31093   2.711  10.549   4.217 -0.1137  0.0672  0.3342
15285W        W31094   2.356   6.171  12.110 -0.5053  0.1712 -0.0372
15286W        W31095   5.397  13.545   5.569  0.2797  0.0775 -0.0679
15287W        W31096   1.753   2.877   2.013  0.1048  0.2021 -0.0897
15288W        W31097   4.066  16.692  13.865 -0.4573  0.0251 -0.1126
15289W        W31098   2.572   4.319  10.549  0.2904 -0.2952 -0.1208
15290W        W31099   5.790  17.348  14.016  0.1355 -0.1594 -0.0508
15291W        W31100   9.905  15.858   2.947 -0.3678  0.2189 -0.3642
15292W        W31101  10.414  11.893   0.885 -0.0339 -0.0778 -0.0633
15293W        W31102   4.695  18.169   2.829  0.1334 -0.1849 -0.2056
15294W        W31103   8.748  14.773  10.521  0.1559 -0.1109  0.2428
15295W        W31104  14.540   9.204   1.221  0.1770  0.2370  0.0660
15296W        W31105   6.966  18.885  15.251 -0.0062 -0.2369 -0.0276
15297W        W31106   9.700  18.436  13.582 -0.0969  0.1702 -0.1098
15298W        W31107   7.708  13.721   3.062 -0.0965  0.0871  0.1533
15299W        W31108   4.532   8.321   2.395 -0.0507  0.0797  0.0100
15300W        W31109  11.624  10.724   0.187  0.0694  0.1935  0.1559
15301W        W31110  18.697   7.503  14.492  0.0837  0.0989 -0.1824
15302W        W31111   0.841  16.536  14.308 -0.2625 -0.1262  0.2784
15303W        W31112  15.391  15.438  12.259  0.1597 -0.0811  0.0533
15304W        W31113   0.090   3.093  14.275  0.1684  0.0074  0.2842
15305W        W31114   0.442  12.593   2.735 -0.0441 -0.1069  0.0144
15306W        W31115  14.083  18.184  14.019 -0.0753 -0.1445  0.0267
15307W        W31116  18.572  16.033  10.668  0.0156 -0.1378 -0.0704
15308W        W31117   8.054  18.635   0.836 -0.3061 -0.0378  0.0559
15309W        W31118  17.500   8.406   4.406 -0.0843 -0.4028 -0.3311
15310W        W31119  17.297   9.151  12.600  0.1136 -0.0299 -0.5126
15311W        W31120  11.657   6.142   4.484 -0.0642  0.1224 -0.2148
15312W        W31121   4.873  12.648   2.694 -0.1433  0.1403  0.1265
15313W        W31122   0.100   6.660  12.838  0.3252  0.0587  0.1335
15314W        W31123  15.607  19.009   0.683  0.4324  0.0595  0.3040
15315W        W31124  15.322   7.313  13.237  0.2250 -0.1096 -0.1244
15316W        W31125  11.724  18.916   3.466  0.2128  0.0264 -0.0847
15317W        W31126   6.687  15.291  13.496  0.0418  0.0682  0.2252
15318W        W31127   9.866   8.117   1.069  0.1091  0.5031 -0.1492
15319W        W31128   4.676  17.066   4.853  0.0242  0.1273  0.1109
15320W        W31129   8.148  18.404   4.753 -0.1660 -0.0922  0.0170
15321W        W31130  10.749  18.530  10.566  0.0709 -0.0296  0.0553
15322W        W31131  14.813  13.555  11.142 -0.0859 -0.1423  0.1202
15323W        W31132   0.224   1.784   1.799 -0.0599  0.3492  0.2134
15324W        W31133   7.167   7.413  12.660  0.0755 -0.2820  0.2890
15325W        W31134   9.744  14.978   9.666  0.1403 -0.1584  0.3390
15326W        W31135  18.017   7.112   1.604  0.1438  0.2645 -0.3395
15327W        W31136   7.461  17.998   0.461 -0.0951  0.0837 -0.1496
15328W        W31137  12.770  18.769   2.050  0.1008  0.0220 -0.3589
15329W        W31138   8.420  13.921  10.263  0.3783 -0.0928 -0.1278
15330W        W31139  10.696  10.154  14.490 -0.0316 -0.3660 -0.0446
15331W        W31140  13.416   4.510   1.667  0.2376 -0.3298  0.1200
15332W        W31141   8.817  12.360  14.708  0.0928  0.1373  0.0704
15333W        W31142   2.081  16.053  12.652  0.0155 -0.1239 -0.0131
15334W        W31143   3.388  12.798   1.499 -0.0669 -0.1908  0.0641
15335W        W31144   7.361  17.141   0.416  0.0515 -0.0754 -0.0193
15336W        W31145  10.089   9.238   0.285  0.1000  0.0067 -0.1565
15337W        W31146  10.110  14.208  15.235 -0.1178 -0.1002 -0.0649
15338W        W31147  16.723  12.418   5.031 -0.2321  0.0063  0.1768
15339W        W31148   9.396  12.932  10.151  0.0296  0.0817  0.1353
15340W        W31149   2.938   9.666   1.353 -0.1977  0.2728 -0.0784
15341W        W31150   1.512   5.773   2.081  0.1685  0.1943 -0.2967
15342W        W31151  15.971  16.605  13.795 -0.2106  0.0439 -0.0966
15343W        W31152   8.291  11.700   3.698 -0.1572 -0.0558  0.0410
15344W        W31153  16.237   9.407   1.485 -0.0531  0.1226  0.0340
15345W        W31154   7.598   6.151  10.593 -0.2405  0.0543 -0.0145
15346W        W31155  11.888   9.003   5.452  0.0923 -0.1914  0.1988
15347W        W31156  10.478  10.346   4.036  0.1714 -0.2486 -0.3777
15348W        W31157   0.076   7.777  14.448 -0.1384  0.1992 -0.0453
15349W        W31158  10.869  18.010   4.010 -0.0275  0.0711 -0.1387
15350W        W31159  16.160   0.623  11.922 -0.2079  0.0933 -0.1300
15351W        W31160   9.808  14.942   4.430 -0.0181 -0.2277  0.0599
15352W        W31161   1.901   1.384   2.630  0.2545 -0.1582 -0.0390
15353W        W31162  14.864   1.276  10.396  0.1146 -0.0090  0.2719
15354W        W31163   8.811   9.640   4.026  0.0413 -0.0839  0.1924
15355W        W31164   0.013   5.366  12.918 -0.0044  0.3701  0.0992
15356W        W31165   1.331   4.711  11.943 -0.1845  0.1556  0.0340
15357W        W31166   4.650   5.308  12.349  0.3271  0.1652 -0.2172
15358W        W31167  12.145  12.257   4.545 -0.0119 -0.0059 -0.0522
15359W        W31168   4.158   6.388   9.556 -0.2059  0.0938  0.0341
15360W        W31169   8.115   2.397  11.146 -0.2878 -0.1400 -0.0019
15361W        W31170   0.783   2.933   1.904 -0.0515 -0.0973 -0.1901
15362W        W31171   5.719   2.968   0.753 -0.3546  0.4167  0.0401
15363W        W31172   4.718  14.399  11.500  0.0174  0.2584 -0.1313
15364W        W31173   4.765  12.066  13.830  0.0127  0.0575 -0.1080
15365W        W31174  17.355   0.541  12.460 -0.2218  0.4690 -0.0806
15366W        W31175   0.094   5.169   3.705  0.3107 -0.1344 -0.3168
15367W        W31176   3.748   6.896  10.593 -0.0355 -0.0277  0.0498
15368W        W31177  15.424  12.734   4.678 -0.1939  0.1581  0.1620
15369W        W31178  14.051  15.780   1.980  0.1625 -0.3173  0.0163
15370W        W31179   8.599  16.783   2.865  0.0580  0.1595  0.1564
15371W        W31180  18.692  10.311   5.156  0.0519 -0.1110 -0.2501
15372W        W31181  13.140   9.036  13.541  0.2966 -0.5307  0.1350
15373W        W31182   1.500  12.889   9.640  0.0644 -0.0677 -0.2513
15374W        W31183   0.061  11.108  14.561 -0.0180 -0.2357  0.0058
15375W        W31184   1.773   0.793   3.889 -0.2256 -0.1159 -0.1111
15376W        W31185   9.545   4.372   2.547  0.3180 -0.2660  0.0330
15377W        W31186  14.420  18.872  13.362  0.0785 -0.5031 -0.2000
15378W        W31187   9.741  16.563   3.415  0.1779 -0.1489 -0.2439
15379W        W31188  15.310  17.674  14.284 -0.2005 -0.1352  0.0440
15380W        W31189   3.761   9.658  13.051 -0.0377  0.0582  0.0513
15381W        W31190  17.303   6.139  12.808 -0.1312  0.1703  0.1426
15382W        W31191   8.709   2.328  12.822  0.0823  0.1860  0.4311
15383W        W31192  14.387   6.598  10.620 -0.1688 -0.2622 -0.0987
15384W        W31193  14.874  10.564  12.183 -0.0873  0.0544  0.2632
15385W        W31194  17.895  13.433   3.847 -0.3092 -0.3424  0.0944
15386W        W31195  14.907  15.875  13.703 -0.0331  0.0405  0.3189
15387W        W31196   1.562  14.232  13.964 -0.3369 -0.2033 -0.0153
15388W        W31197  15.002   8.652   2.751 -0.2122 -0.0590 -0.0131
15389W        W31198   1.960  16.770   0.959  0.1751 -0.3739  0.2780
15390W        W31199   6.114   7.909   4.848  0.2222 -0.1054 -0.3503
15391W        W31200  12.551   4.721  13.694 -0.1942 -0.0788 -0.1191
15392W        W31201   3.224  15.551  12.344  0.1598 -0.0780  0.1217
15393W        W31202  17.994   4.910  11.529 -0.0278 -0.1815 -0.4737
15394W        W31203  16.543   0.133   0.676  0.0034 -0.0244 -0.1863
15395W        W31204   3.149   7.358   1.678  0.0471  0.0078 -0.0981
15396W        W31205  18.309   4.879   3.128 -0.1932  0.0154  0.0445
15397W        W31206  15.983  18.638   2.298 -0.1071 -0.0496  0.0151
15398W        W31207   4.077   6.637  14.205  0.1268 -0.1826  0.1785
15399W        W31208   0.796  16.316  10.377  0.3521  0.0676  0.1546
15400W        W31209  18.162  18.091   4.617  0.3879  0.0369 -0.1283
15401W        W31210  12.594   1.606  12.134 -0.0096  0.2392  0.1762
15402W        W31211   3.543   6.944   4.702  0.0972  0.3199 -0.0536
15403W        W31212  11.491  11.175   1.822  0.1625 -0.1822 -0.2207
15404W        W31213  18.091  15.125  14.202 -0.2521  0.0384  0.1904
15405W        W31214   2.728   1.638  11.483 -0.0607 -0.2343  0.0300
15406W        W31215  12.225   2.125   1.005  0.0871  0.0936  0.0728
15407W        W31216  16.050  18.180   5.363 -0.1233 -0.1138 -0.0888
15408W        W31217   7.502   8.537   1.070  0.2183  0.1579  0.0882
15409W        W31218   3.762   3.808   3.159 -0.1213 -0.2193 -0.0060
15410W        W31219  13.830   4.944  10.201 -0.0438 -0.1380  0.2842
15411W        W31220   9.035  15.510  13.148 -0.1354 -0.2534  0.0357
15412W        W31221  10.718   7.372  14.202 -0.0511  0.0888 -0.0224
15413W        W31222   5.752  17.672   4.041  0.2322 -0.0933 -0.1364
15414W        W31223   9.899   1.604   3.205 -0.0641 -0.0296 -0.1752
15415W        W31224  15.742   9.185  12.814  0.1409  0.0773  0.0121
15416W        W31225   8.222   0.366   0.375  0.2777 -0.1923  0.0231
15417W        W31226   0.992  17.666  14.100 -0.2558 -0.0851 -0.2324
15418W        W31227   2.942   5.709  15.161  0.2149  0.0705 -0.0014
15419W        W31228  18.218   4.485   3.471  0.1468 -0.1883  0.4019
15420W        W31229   0.711   2.743  13.417 -0.0341  0.0517 -0.0435
15421W        W31230   2.151   7.783  13.435  0.0619 -0.1725 -0.1101
15422W        W31231  10.854   7.456  13.539  0.0375 -0.1563 -0.0679
15423W        W31232   1.628  11.447  12.587  0.2184  0.2761  0.0093
15424W        W31233  10.516  13.982  10.345  0.0896 -0.3276  0.1610
15425W        W31234  14.161   2.899   3.174  0.1129  0.1319 -0.0041
15426W        W31235  12.609   2.839  13.148 -0.0085  0.0412 -0.1650
15427W        W31236   3.257  11.716   4.413  0.1658  0.2672  0.1928
15428W        W31237  18.371  13.398   2.971 -0.0064  0.1123  0.1554
15429W        W31238   8.051   7.157  12.718 -0.0649 -0.3034  0.0732
15430W        W31239   0.606  14.793  13.334  0.3496  0.2735  0.1918
15431W        W31240  18.903   5.835   4.815 -0.2975  0.0655  0.2374
15432W        W31241   3.055   2.436  15.171 -0.0098  0.0897  0.1248
15433W        W31242  18.023  13.584  10.447  0.0230  0.3221  0.2036
15434W        W31243  18.588   0.410  14.726  0.2868  0.1002 -0.0956
15435W        W31244   4.160  17.352   4.945 -0.1578  0.1020 -0.2005
15436W        W31245  16.274   5.548  11.418  0.0094 -0.0447 -0.0175
15437W        W31246   7.604   0.646  10.641  0.1039  0.0068  0.3171
15438W        W31247   7.729   2.571   3.434  0.1066  0.0942 -0.0756
15439W        W31248  16.172  15.984  11.505  0.3324 -0.1660 -0.1877
15440W        W31249   1.137  13.564  11.526  0.0501 -0.1011 -0.1229
15441W        W31250   4.763   8.882   4.191  0.0192  0.0341  0.0972
15442W        W31251  12.055  15.745  14.443 -0.3457 -0.1526 -0.3702
15443W        W31252  15.726   7.559  13.179  0.1464  0.1808 -0.1380
15444W        W31253  15.723   6.443  14.031  0.3313  0.2325 -0.0786
15445W        W31254   0.339  17.288  11.091 -0.1330  0.0281  0.0425
15446W        W31255  17.238   3.528   3.366  0.0737  0.0037  0.0789
15447W        W31256  12.115  18.373  13.779 -0.0050 -0.0395  0.2619
15448W        W31257   3.592   0.922   3.305 -0.2431 -0.0869  0.3212
15449W        W31258  16.908   1.260   3.699  0.0096  0.0469  0.0193
15450W        W31259   7.228  13.293  10.270  0.0897 -0.1453 -0.2390
15451W        W31260   8.340   7.734   3.609 -0.0322  0.0732 -0.0740
15452W        W31261   7.648  10.117   2.732  0.0138  0.1875 -0.0617
15453W        W31262  11.466  17.053   2.920 -0.0828 -0.0596 -0.1413
15454W        W31263   4.030  18.237  14.926 -0.0531  0.2645 -0.4619
15455W        W31264   6.781  12.318   3.355  0.1250 -0.0629  0.0276
15456W        W31265  17.900  18.300   0.452  0.0538 -0.0786  0.0237
15457W        W31266  12.227   3.414   5.358 -0.3578  0.2240 -0.2368
15458W        W31267   8.888  12.717   0.464 -0.1046 -0.1504  0.0512
15459W        W31268   1.542   7.373   1.785 -0.1073  0.1553 -0.1635
15460W        W31269  15.514  14.388  14.782 -0.1172  0.0925  0.0664
15461W        W31270  13.247   3.834  12.276  0.0652 -0.1608  0.2574
15462W        W31271   3.374   4.344  10.868 -0.2720 -0.0536  0.1468
15463W        W31272   3.849   8.672  14.730 -0.3433  0.1384  0.1195
15464W        W31273  16.004   2.435   2.140  0.1591  0.1975 -0.2428
15465W        W31274   4.261   4.246  10.988  0.1160 -0.3448 -0.0881
15466W        W31275   3.529  11.589  11.853 -0.0692  0.1836  0.1044
15467W        W31276   1.663   7.670  10.317 -0.1087  0.5616  0.0639
15468W        W31277  18.309  14.944   4.032 -0.1512 -0.0575  0.0851
15469W        W31278   6.469   5.678  10.549 -0.2103 -0.1502  0.0524
15470W        W31279  17.479  13.389   3.056 -0.0096 -0.1585 -0.0846
15471W        W31280   7.351   6.482  13.947  0.1607  0.0756 -0.3333
15472W        W31281  18.327   5.995  12.807 -0.0154 -0.2776 -0.0185
15473W        W31282  13.438   5.599   0.832  0.2046  0.0454 -0.1778
15474W        W31283   7.378  18.074   3.087 -0.3144  0.2312 -0.0874
15475W        W31284   6.457  11.465   3.852 -0.5437  0.0103  0.1361
15476W        W31285  17.634   1.612   3.154  0.0333 -0.0060  0.1407
15477W        W31286  13.352  13.643   9.585  0.1269 -0.0409  0.0899
15478W        W31287   5.572  17.266   3.846  0.0769  0.1183  0.1133
15479W        W31288  11.687  16.350   3.662  0.0095  0.0426  0.3250
15480W        W31289  18.810   9.414   3.340 -0.1142  0.0466 -0.3990
15481W        W31290  13.108  12.830  10.973  0.1662 -0.0279 -0.0024
15482W        W31291  15.754   0.180   3.033  0.0376 -0.1930  0.0064
15483W        W31292  15.629  15.856  13.217 -0.3417 -0.0526  0.0601
15484W        W31293   2.666  16.516   0.792  0.0506 -0.0039  0.0891
15485W        W31294  13.220   3.760  13.856 -0.1304  0.1699  0.0970
15486W        W31295   2.233   2.372   4.885  0.0968  0.1640  0.0352
15487W        W31296   1.982   0.318   3.449  0.0869  0.2178  0.0264
15488W        W31297  12.982   5.042  13.231  0.4522  0.1288 -0.3271
15489W        W31298   9.102   9.249  14.719  0.0019 -0.2152 -0.0018
15490W        W31299  12.444  16.430   3.522 -0.3466 -0.2448  0.2772
15491W        W31300   8.138   2.457  11.932  0.0891  0.0350 -0.0349
15492W        W31301  12.081  15.482  10.686 -0.1319 -0.1128 -0.1160
15493W        W31302   9.080  14.711  11.576  0.1160  0.1105 -0.0142
15494W        W31303   1.648  13.836   2.844 -0.2983 -0.0466 -0.0121
15495W        W31304  14.397   8.871   4.140 -0.1745 -0.1701  0.2143
15496W        W31305   6.403  16.963  12.254 -0.1310  0.0457  0.0882
15497W        W31306   6.499  13.188  12.456 -0.3633  0.1950 -0.0926
15498W        W31307  12.956   1.792  10.571 -0.0849  0.0174  0.0370
15499W        W31308  17.511   9.615  14.283 -0.0936  0.1131 -0.0546
15500W        W31309  13.367   9.063   1.963 -0.0606 -0.3315  0.0223
15501W        W31310  14.115   3.904   1.331 -0.0851  0.3042  0.2016
15502W        W31311  18.922   8.208   2.544 -0.1053  0.1519 -0.1827
15503W        W31312   6.311  13.652  13.929  0.0300 -0.2869  0.1903
15504W        W31313   0.209   8.113   5.914 -0.4980 -0.3874 -0.0173
15505W        W31314   5.670   6.227  10.787  0.3355  0.2033 -0.1382
15506W        W31315  11.311  19.030  14.759  0.1148  0.0835 -0.1383
15507W        W31316  14.486  12.745   1.260  0.1970  0.2586 -0.1129
15508W        W31317   1.624  11.456   0.108  0.2007  0.0452  0.3408
15509W        W31318   9.309  12.155  14.723  0.3528  0.0628 -0.1413
15510W        W31319  14.204  12.398   0.333  0.0481 -0.0394  0.3995
15511W        W31320   9.668  12.481  15.031  0.1449  0.1640 -0.1780
15512W        W31321   5.720   8.955   4.425 -0.0244 -0.0291  0.3419
15513W        W31322  14.611  13.909  11.444 -0.1769 -0.0688 -0.1492
15514W        W31323  18.549  12.273  10.589  0.3158 -0.2454 -0.0210
15515W        W31324  18.018  12.910   9.869 -0.1902 -0.1405 -0.1052
15516W        W31325   4.622  11.344  11.062 -0.0303  0.0604 -0.2795
15517W        W31326   3.577   8.028   0.843 -0.0268  0.0678 -0.0017
15518W        W31327   9.051   3.443  14.722  0.0489  0.2501 -0.1326
15519W        W31328   0.019   7.619  13.142  0.0687 -0.2079 -0.0012
15520W        W31329   7.247   5.858  11.396  0.3960  0.1584  0.1001
15521W        W31330   3.333  15.841  11.174 -0.2053  0.0366  0.0656
15522W        W31331   5.943  17.281   4.789  0.0132 -0.0037  0.2117
15523W        W31332   7.474  18.152  14.044 -0.2292 -0.0457 -0.2923
15524W        W31333   2.374   3.180   0.746  0.2027  0.1697 -0.2329
15525W        W31334   8.824  14.107  15.042 -0.0653 -0.1228 -0.0106
15526W        W31335  14.877   3.200   1.075 -0.0584 -0.1419  0.1723
15527W        W31336  11.577  14.110  14.399  0.1607 -0.1724  0.0625
15528W        W31337   7.370   7.164   0.933  0.1095 -0.1033 -0.0686
15529W        W31338   5.887   9.382  13.281  0.0453  0.0350 -0.1722
15530W        W31339  13.075  15.701  13.073 -0.0276  0.2494  0.3759
15531W        W31340  12.539  14.130   0.629  0.3608 -0.1123  0.2051
15532W        W31341  11.097   4.704   2.728  0.1710 -0.0016 -0.2858
15533W        W31342   9.735   6.360  12.687  0.1881 -0.2403 -0.0845
15534W        W31343  16.248  13.366  13.135 -0.1109  0.1251 -0.0998
15535W        W31344   1.064   7.028  13.302  0.0486  0.1028 -0.0935
15536W        W31345  11.650   9.000   0.309  0.1220 -0.0657  0.3307
15537W        W31346  13.330  18.098   2.706  0.1661 -0.2966  0.1162
15538W        W31347  18.982   1.015  10.102 -0.2063 -0.1064  0.0051
15539W        W31348  13.890   6.093  13.953  0.0232  0.0136  0.0981
15540W        W31349   2.016   5.207  14.963 -0.0196  0.4783  0.1512
15541W        W31350  10.857   8.168  14.178 -0.0510  0.2313  0.0419
15542W        W31351   0.847  15.700  12.059  0.2130 -0.2722 -0.1179
15543W        W31352   4.955   3.679   1.588 -0.1690  0.2433 -0.2213
15544W        W31353  13.556  17.191  15.172  0.2035  0.0361 -0.0938
15545W        W31354   5.812   0.088  10.053  0.4670 -0.1411  0.3472
15546W        W31355  10.522   7.955   2.731 -0.1471  0.2118  0.1425
15547W        W31356   9.390   3.626  12.945  0.0988  0.0549  0.2823
15548W        W31357  13.983   2.279  14.978 -0.1878 -0.0455  0.3524
15549W        W31358   3.448   9.577  10.826  0.0580  0.0719  0.3900
15550W        W31359  18.551  11.878   1.084  0.3122  0.2501  0.0086
15551W        W31360  18.148  13.570  10.929 -0.1115 -0.0306 -0.1168
15552W        W31361  15.345  10.294   5.907 -0.1160  0.4013  0.3194
15553W        W31362   9.704  12.872  12.262 -0.1026 -0.2687 -0.1704
15554W        W31363   6.473   2.075   2.886  0.2563  0.3006  0.3886
15555W        W31364   8.585  18.057   3.051 -0.0541 -0.2241  0.0559
15556W        W31365   7.172   1.032  11.927  0.1691 -0.0269  0.0049
15557W        W31366   7.430   7.352  11.231  0.1077 -0.2969 -0.2835
15558W        W31367   0.222  12.087   0.079 -0.0152  0.1131 -0.0299
15559W        W31368  11.281   4.147   5.027 -0.2542 -0.1973 -0.0969
15560W        W31369   6.335  13.694  11.235 -0.1862 -0.0135 -0.0990
15561W        W31370  18.793   9.550   2.827  0.1883 -0.0236  0.1626
15562W        W31371   9.415   8.874  10.507  0.2866 -0.0645  0.0701
15563W        W31372   5.107  12.226   2.224  0.0491 -0.3367  0.1181
15564W        W31373  10.165   3.900   2.080  0.0048  0.0492  0.2033
15565W        W31374   1.448  18.161   1.892 -0.5007 -0.1044 -0.1428
15566W        W31375  11.406  14.867  12.334  0.1380  0.1503 -0.2263
15567W        W31376  13.208   9.481   3.067 -0.3598  0.0392  0.2965
15568W        W31377  17.351  16.326  12.654  0.2113  0.2395  0.1062
15569W        W31378   9.593   7.278   0.254 -0.0272  0.1548 -0.1872
15570W        W31379  15.368   5.627   2.530  0.2395 -0.0949  0.0946
15571W        W31380  13.453   7.621  13.279  0.3683  0.0581  0.1685
15572W        W31381   2.412  10.183  11.082 -0.1444  0.0235  0.0437
15573W        W31382   1.731  11.833   3.351 -0.1170 -0.0122  0.2896
15574W        W31383  17.888  10.613   4.647  0.1962  0.1226  0.1178
15575W        W31384  17.364  13.530  11.587 -0.1464 -0.1796 -0.5567
15576W        W31385  13.579  17.194   3.725  0.2522  0.0308  0.2357
15577W        W31386   4.940   3.954  12.027 -0.1813  0.2127 -0.1980
15578W        W31387  12.343  13.588   2.796  0.0099 -0.1437  0.1531
15579W        W31388  15.269   8.908  13.819  0.0507  0.1833 -0.1501
15580W        W31389  14.372  10.770   4.815  0.0686 -0.3080 -0.0336
15581W        W31390   4.499   2.236   5.481 -0.1550  0.1560  0.0202
15582W        W31391   8.178  14.616  14.913 -0.0686  0.0622  0.0220
15583W        W31392  12.720   5.717  11.344 -0.1341 -0.0445 -0.1899
15584W        W31393   7.659  18.812   3.385  0.0265 -0.0209  0.2375
15585W        W31394   0.245  14.549  14.719  0.0158 -0.0544 -0.3162
15586W        W31395   0.587   8.532  14.708 -0.0891 -0.1414 -0.2892
15587W        W31396   9.306   2.816  11.202  0.2407  0.1408 -0.3229
15588W        W31397   8.035   5.434  13.048 -0.3027 -0.1284 -0.2436
15589W        W31398   3.152  12.510  13.341 -0.1592 -0.3912 -0.2098
15590W        W31399  15.816  14.400   2.501 -0.0152 -0.0314 -0.0816
15591W        W31400   7.007   2.090   0.357  0.3488 -0.0870  0.0362
15592W        W31401   6.474  13.920   2.400 -0.3589 -0.1359  0.0097
15593W        W31402   4.251   0.117  11.082 -0.0820  0.0233  0.0827
15594W        W31403  18.207   6.230   3.177  0.0414  0.0407  0.0856
15595W        W31404  11.989   7.584   4.577 -0.3578 -0.2629 -0.0081
15596W        W31405  18.664   2.589  14.808 -0.2046  0.1186 -0.0779
15597W        W31406   0.372  14.326   5.612 -0.1675 -0.1343  0.2315
15598W        W31407  15.827  15.066   0.521 -0.0758 -0.4279 -0.0651
15599W        W31408  18.325  15.423  13.166  0.1889 -0.2568  0.0444
15600W        W31409  10.943  13.134   2.296 -0.3063 -0.4291 -0.0128
15601W        W31410  12.798   2.055   1.669  0.2016 -0.3103 -0.1606
15602W        W31411   9.174  15.560  14.851  0.0941  0.0736  0.2106
15603W        W31412   8.179  14.976  13.537  0.3098  0.1187  0.1773
15604W        W31413   0.519   6.534  14.537 -0.0725 -0.2754  0.0081
15605W        W31414  11.664   4.303  14.877  0.0258  0.3704 -0.4598
15606W        W31415  14.346   4.913  12.845 -0.3231 -0.1383 -0.0237
15607W        W31416  18.030  14.327   4.380 -0.1180  0.3510 -0.2432
15608W        W31417   2.589  15.796   2.253 -0.2350 -0.0753 -0.0582
15609W        W31418   7.933   3.488   3.346 -0.0508  0.1791 -0.1005
15610W        W31419  13.468   1.758   1.929 -0.0294  0.1276 -0.1284
15611W        W31420  17.516   3.968   2.879 -0.2140  0.0851  0.1127
15612W        W31421   6.951   1.080   9.467 -0.0419  0.0777 -0.0916
15613W        W31422   1.448  15.687  14.963 -0.1446  0.0022  0.2221
15614W        W31423  13.089  14.192   0.958  0.2468 -0.1941  0.1103
15615W        W31424   4.824  15.373   5.098  0.1786  0.0581 -0.1960
15616W        W31425  11.547  14.303   1.843  0.2402  0.5370 -0.0398
15617W        W31426   3.538  17.438   2.270 -0.0918 -0.0497 -0.2174
15618W        W31427  17.423  15.587   4.112  0.2690  0.1127  0.0335
15619W        W31428   8.350   3.915   0.788 -0.0833 -0.0993 -0.0185
15620W        W31429   4.100   7.771  11.490 -0.2786 -0.0379  0.0178
15621W        W31430  13.557   2.927  12.577 -0.0294  0.1054 -0.0260
15622W        W31431   6.826  14.199   3.511 -0.2562  0.1698  0.1140
15623W        W31432   5.899  14.453   0.425 -0.0211  0.2586  0.0589
15624W        W31433   8.456   9.018   5.392  0.3070 -0.2487  0.0820
15625W        W31434   1.466   6.678  12.401  0.3142 -0.0817 -0.2031
15626W        W31435   5.507   2.735  12.259  0.0611  0.0459  0.0132
15627W        W31436  17.276   3.505   5.147  0.1061 -0.1414  0.0758
15628W        W31437   5.909   6.939  11.866 -0.2462 -0.0446 -0.1583
15629W        W31438  12.436   1.045   5.303 -0.4509  0.2932  0.2046
15630W        W31439  11.696   6.303   1.098  0.4198  0.0376 -0.0896
15631W        W31440  16.667   6.869  12.573 -0.0045 -0.1168  0.0418
15632W        W31441  10.940   5.636  11.327  0.1656  0.0676 -0.1778
15633W        W31442   9.349  17.316   3.212  0.2062  0.1628  0.0738
15634W        W31443  10.914  18.117  10.912 -0.2590  0.2886  0.2407
15635W        W31444  14.888   8.369   5.487 -0.2673  0.4365  0.1428
15636W        W31445   1.689   4.797   1.061  0.3202  0.2120 -0.5039
15637W        W31446   7.096   9.095   0.515  0.2386 -0.1666  0.3328
15638W        W31447   1.040  14.164  11.723 -0.0977 -0.4383  0.0945
15639W        W31448   6.175   3.254   3.232 -0.1431  0.2365 -0.4408
15640W        W31449  14.420   0.486  14.183  0.1143  0.3073  0.1386
15641W        W31450   9.963  15.775   0.166 -0.0262  0.1511 -0.2436
15642W        W31451   5.722  17.075  14.781 -0.1082  0.2031  0.1075
15643W        W31452  17.703   0.183  12.237  0.0988 -0.2752 -0.0606
15644W        W31453  12.833  14.700  11.820  0.1751  0.1121 -0.2083
15645W        W31454  18.721   9.471   4.689 -0.0772  0.1899 -0.0865
15646W        W31455   4.324  12.858  14.355  0.3239  0.2303 -0.1247
15647W        W31456  11.092   6.568   4.990  0.3114  0.1481 -0.0783
15648W        W31457   7.637   9.070  14.811  0.3655 -0.1024  0.3460
15649W        W31458  16.859   1.128   1.552 -0.0951 -0.0738 -0.1837
15650W        W31459  11.043   1.259   5.914 -0.0274 -0.0928  0.0756
15651W        W31460   2.108   6.265   2.300 -0.0331 -0.0949 -0.0059
15652W        W31461   7.196  11.910  10.149 -0.0805  0.1453 -0.0688
15653W        W31462   7.079   8.213   3.162  0.1467  0.0207  0.2974
15654W        W31463   3.733  10.613  11.841  0.0461 -0.0996 -0.3352
15655W        W31464  16.624   5.267  12.914 -0.2976 -0.2514 -0.1443
15656W        W31465  15.491  15.817   3.457  0.0283  0.1301  0.1101
15657W        W31466  13.174   2.403  13.360  0.0532  0.4455 -0.1080
15658W        W31467   8.095   1.255  12.410 -0.1553  0.1662 -0.3455
15659W        W31468   0.916  10.935   2.475  0.2031  0.2615  0.0332
15660W        W31469  15.058   7.636  14.949 -0.2377 -0.1140  0.2005
15661W        W31470  16.136   6.037   0.446  0.3999  0.1146 -0.3534
15662W        W31471   4.459   8.574   3.496  0.3587  0.0348 -0.2646
15663W        W31472   6.769  12.260   9.475 -0.1408 -0.1403 -0.2093
15664W        W31473   8.383  18.610  12.077 -0.2559  0.0285  0.0718
15665W        W31474  12.368  12.299  14.309  0.2230  0.0990  0.2002
15666W        W31475   4.013   0.824   1.398  0.0875 -0.1798 -0.1304
15667W        W31476   4.555   6.568   2.900  0.2916  0.1181 -0.3267
15668W        W31477   5.980  14.365   0.985  0.3857  0.2686 -0.0836
15669W        W31478   5.759   8.499   1.503 -0.2624  0.1296 -0.1988
15670W        W31479   7.427  18.914  10.334 -0.1395  0.3907 -0.1362
15671W        W31480   6.287   0.334  10.872  0.2367  0.1517  0.1795
15672W        W31481   8.481  12.524   9.893 -0.0839  0.1289 -0.1788
15673W        W31482   3.373  10.380   2.014  0.5014 -0.3077  0.1623
15674W        W31483   4.479  15.977   0.653  0.2537  0.2650  0.1040
15675W        W31484  11.962  11.637   0.647  0.4499  0.1032  0.3416
15676W        W31485   0.504   6.056   3.902 -0.4429  0.0555  0.0340
15677W        W31486  14.793   0.504   5.317  0.1741 -0.1197 -0.0397
15678W        W31487   5.259   6.044   0.447 -0.1522 -0.3055  0.3648
15679W        W31488  17.469   6.775   3.855 -0.0723 -0.3243 -0.0456
15680W        W31489  18.338  16.782  12.427  0.2213 -0.3886  0.0076
15681W        W31490  10.546   4.009  11.135  0.2413  0.5242  0.1502
15682W        W31491   8.017  11.110   0.617 -0.0848 -0.0629 -0.0391
15683W        W31492  13.878  15.554   4.835  0.0786 -0.0394  0.1805
15684W        W31493   1.796   1.140   0.656  0.1141 -0.3921  0.3543
15685W        W31494   0.213   8.267   1.676 -0.4410  0.1902 -0.3399
15686W        W31495  11.305   1.911  12.872  0.1513  0.1901  0.0173
15687W        W31496   3.513   2.467   1.488 -0.1485  0.1376 -0.2305
15688W        W31497  13.973   0.003   1.581 -0.1325 -0.3330 -0.3311
15689W        W31498   7.266   0.142  12.001 -0.0402 -0.2091  0.1182
15690W        W31499   3.303   5.937  11.750  0.0841  0.0223 -0.1481
15691W        W31500  18.743   8.455  10.188  0.2608 -0.0953 -0.1057
15692W        W31501   4.285   7.872   0.854  0.2865  0.1672 -0.1149
15693W        W31502  13.496   8.195  11.208 -0.2926  0.2836 -0.3003
15694W        W31503   1.799  13.458   3.206 -0.0222 -0.1946 -0.1447
15695W        W31504  13.087   8.716  14.003 -0.1740 -0.1310  0.0079
15696W        W31505  10.822   1.904   4.075  0.1889 -0.0907 -0.1740
15697W        W31506  16.465  12.698   2.943 -0.1615  0.1655 -0.0984
15698W        W31507  15.281   0.447  14.235 -0.1439 -0.3701  0.0125
15699W        W31508   3.990  15.087   1.509 -0.0265  0.3818  0.1494
15700W        W31509  10.471   8.434   4.684  0.0980 -0.0035 -0.1083
15701W        W31510  16.968   3.141  12.525 -0.2423 -0.0473 -0.1599
15702W        W31511  17.774   0.769   1.797 -0.1898  0.0317 -0.0451
15703W        W31512   8.619   6.697   1.927 -0.0868  0.2866 -0.0083
15704W        W31513   7.203  18.595  10.623  0.0461  0.3444  0.0510
15705W        W31514   7.384  18.870   5.228  0.2055  0.5631 -0.0631
15706W        W31515  16.510   0.247  11.801 -0.1161 -0.0091  0.4270
15707W        W31516  16.692  15.705   6.389 -0.0436  0.0298  0.2340
15708W        W31517   3.640   5.988   2.979  0.0367  0.1203  0.2860
15709W        W31518   7.866   2.137   4.791 -0.3609 -0.0852 -0.4179
15710W        W31519   5.724   0.498   3.604 -0.1611 -0.2161 -0.1253
15711W        W31520  13.059   1.979   0.302  0.1789  0.0548 -0.1330
15712W        W31521  17.863  13.811  14.432  0.0403  0.1742 -0.0128
15713W        W31522   8.055   6.179   3.721 -0.3487 -0.1219 -0.0671
15714W        W31523   3.583   4.348  11.874  0.4088  0.0557  0.3183
15715W        W31524   2.525   4.570  11.104 -0.0835  0.2163 -0.0456
15716W        W31525   8.235  13.883  12.223  0.0114  0.0275  0.2321
15717W        W31526  10.230  18.728  12.434 -0.1634 -0.0654 -0.4230
15718W        W31527  15.843   5.292  10.693 -0.1461 -0.1351 -0.0687
15719W        W31528   6.174   4.829   0.319 -0.0135 -0.1413 -0.2016
15720W        W31529  12.181  18.997   6.176 -0.0496  0.2045  0.2723
15721W        W31530  14.693  15.151  10.313 -0.0964 -0.0842 -0.2095
15722W        W31531   2.717   1.910  13.375 -0.2165  0.2131 -0.0397
15723W        W31532  10.784   1.588  14.069 -0.0856  0.0483 -0.0972
15724W        W31533  15.280  18.683   0.881  0.1053  0.2875  0.1202
15725W        W31534   2.582  12.457   1.139 -0.2050  0.0241  0.2084
15726W        W31535   7.949   5.099   0.363  0.3868 -0.0419  0.1692
15727W        W31536  16.483   3.772   0.442  0.1369 -0.3424  0.1013
15728W        W31537  12.202   3.989  11.325 -0.0176 -0.0289 -0.2772
15729W        W31538   6.739  14.828   4.127 -0.4290  0.0582  0.1117
15730W        W31539  10.722  10.802  10.955  0.2162 -0.2101  0.0847
15731W        W31540   1.420  12.379  11.260 -0.1942 -0.0710  0.1366
15732W        W31541  18.595  11.358  15.213 -0.0515 -0.1793  0.1630
15733W        W31542   2.554   6.465  13.537  0.0925 -0.0018 -0.0760
15734W        W31543  12.135   2.960   5.520 -0.3733 -0.3447  0.0967
15735W        W31544   8.837  14.460   0.268 -0.3289 -0.3922  0.1894
15736W        W31545  17.766   1.341  13.514  0.0540  0.1436 -0.0517
15737W        W31546   7.679   4.619  14.798 -0.3208 -0.0718  0.0230
15738W        W31547  13.634   9.742   2.454  0.1071  0.4522 -0.1640
15739W        W31548   0.012   5.835  14.822  0.1632  0.1709 -0.0336
15740W        W31549  11.360   4.166   4.458  0.0752  0.1432  0.1085
15741W        W31550   8.563  18.805  10.970 -0.0891  0.0849 -0.1102
15742W        W31551   7.577   0.772   0.908 -0.2339 -0.2442 -0.0321
15743W        W31552   4.476   2.614   4.455 -0.0589  0.1095  0.1317
15744W        W31553  18.222  10.328  14.346  0.2054  0.1828 -0.1064
15745W        W31554  10.529   9.611   2.683  0.2324  0.1191 -0.0700
15746W        W31555   0.690  14.513  15.188 -0.1510  0.2429 -0.0736
15747W        W31556   9.725  12.741  13.294  0.0878  0.0643 -0.3830
15748W        W31557   4.193  14.241   1.933  0.0726  0.0035  0.1500
15749W        W31558  16.514   7.602   0.315  0.0857  0.3723  0.2564
15750W        W31559   2.341   7.146  11.511 -0.0668 -0.0271  0.0326
15751W        W31560   8.926  10.691   2.154 -0.2739 -0.3185  0.3274
15752W        W31561  17.009  11.667   4.889  0.0752 -0.2056 -0.1466
15753W        W31562  10.197  10.249  12.574  0.2611 -0.1925 -0.0598
15754W        W31563   5.853  12.780  12.844 -0.0503  0.2891 -0.1176
15755W        W31564   0.979  16.572  11.464 -0.2725 -0.1737  0.2059
15756W        W31565  18.217   3.038   1.167  0.0508  0.0482 -0.0102
15757W        W31566  11.493  13.454  12.650  0.6139 -0.2575  0.1659
15758W        W31567   1.095  15.928   4.360 -0.3302 -0.1247  0.1576
15759W        W31568  17.576  17.452   1.911 -0.0835  0.0394 -0.3320
15760W        W31569   6.710   7.253  12.142 -0.0211  0.2305 -0.0649
15761W        W31570   0.033  17.575   5.424  0.2613 -0.1626 -0.1469
15762W        W31571  11.963  17.781   3.221 -0.2197 -0.0344 -0.0676
15763W        W31572   6.582   3.735  13.403  0.1745  0.3743  0.0799
15764W        W31573  13.682   0.610   4.167  0.0241 -0.1200 -0.2307
15765W        W31574  15.102  17.420   4.555  0.1243 -0.2216  0.0491
15766W        W31575  16.899   0.274  14.685  0.0195  0.0368 -0.1150
15767W        W31576   7.230  12.533  12.753 -0.0599  0.3363  0.0162
15768W        W31577   2.880  13.471   4.101  0.1070  0.0718 -0.0875
15769W        W31578  11.552   0.283  12.582  0.1608 -0.1973 -0.1028
15770W        W31579  11.171  17.764  11.472 -0.3119  0.2164 -0.2049
15771W        W31580  16.629  16.660   0.034 -0.0736  0.0523  0.0698
15772W        W31581   3.610   6.619  13.976 -0.1861 -0.1094  0.4047
15773W        W31582  17.825  10.865   2.959  0.2377  0.2090 -0.0032
15774W        W31583  11.098   8.387   4.422  0.0335 -0.2508  0.0151
15775W        W31584   4.825  18.064   0.508  0.0605  0.0370 -0.3393
15776W        W31585  12.956  17.393  12.114  0.0694  0.0107 -0.0416
15777W        W31586   0.623  16.852  11.200  0.2812 -0.0294 -0.1345
15778W        W31587  14.109   4.968   2.364  0.2125 -0.1055  0.0989
15779W        W31588   7.889  16.502  14.907 -0.0139  0.0372  0.1990
15780W        W31589   3.514   4.521  12.524 -0.2374 -0.0704 -0.0645
15781W        W31590  13.977   4.914  14.622 -0.2988  0.0253 -0.2311
15782W        W31591  11.798  15.601   3.281  0.0414  0.1110  0.1580
15783W        W31592   8.889   3.464   4.731 -0.1029 -0.3331 -0.0675
15784W        W31593  16.573   7.309  13.263  0.0070  0.1457 -0.3886
15785W        W31594   0.766   5.069  15.087 -0.0905 -0.1996  0.1698
15786W        W31595   4.313   4.767   0.261 -0.0561 -0.1252  0.3424
15787W        W31596   1.356   9.364  10.789  0.0154  0.2102  0.1648
15788W        W31597   7.007   9.889  10.940  0.0234  0.2342 -0.0899
15789W        W31598   6.944   3.556   0.510 -0.0456 -0.5566 -0.0415
15790W        W31599   7.975   4.137   9.904 -0.1378 -0.2363  0.0604
15791W        W31600   3.409   1.213   9.969  0.0496 -0.2100 -0.1050
15792W        W31601   5.702   0.462   4.871 -0.1254  0.1265  0.0409
15793W        W31602   0.657   2.639  14.669  0.0177  0.1223  0.0595
15794W        W31603  13.681  15.522  11.990  0.0601 -0.2412  0.0404
15795W        W31604   9.703   4.626  13.243  0.0718  0.0291  0.3044
15796W        W31605   7.520   9.961   2.252 -0.0864 -0.0982  0.0175
15797W        W31606  16.277   2.805   5.812 -0.1359  0.1169 -0.1588
15798W        W31607   4.615   0.406   1.169  0.0273  0.1477 -0.0186
15799W        W31608  15.291  15.767   2.478 -0.0085  0.1821  0.6472
15800W        W31609  16.446   9.186   0.650 -0.0985 -0.1362  0.0757
15801W        W31610   9.951   6.678  11.351 -0.1298  0.1466 -0.0893
15802W        W31611   5.992  10.398   0.010  0.2544 -0.0866  0.0171
15803W        W31612   5.763  16.399  13.952 -0.0954 -0.1466  0.0589
15804W        W31613  12.691   2.349   6.005 -0.0854  0.0472 -0.3132
15805W        W31614   9.248  14.317   1.939 -0.0960 -0.1428 -0.0408
15806W        W31615   8.278  13.779   1.559 -0.0902  0.1214 -0.2959
15807W        W31616   3.635   8.679  13.306  0.3327 -0.4147 -0.1662
15808W        W31617  13.763   0.548  12.936 -0.1434  0.1022 -0.0179
15809W        W31618  10.330   8.317   0.867 -0.0514  0.0917  0.2139
15810W        W31619   8.421   6.529  13.839 -0.0195 -0.4542 -0.3395
15811W        W31620   0.110   5.322  15.038 -0.1831 -0.1515 -0.0104
15812W        W31621  18.779  15.712  14.267 -0.1909 -0.1422  0.2768
15813W        W31622   4.467  10.689  13.888  0.0657  0.1761 -0.2418
15814W        W31623  15.803  15.251  14.036 -0.1835  0.0898 -0.2820
15815W        W31624  10.479   1.788  10.789 -0.2872  0.0408  0.1412
15816W        W31625   0.078   8.669  12.670  0.1673  0.0384 -0.0050
15817W        W31626  18.108   4.757  14.155  0.2198  0.1955 -0.1416
15818W        W31627   3.002   0.461   4.416  0.1439 -0.0033  0.0897
15819W        W31628   9.749   3.109   4.848  0.0538 -0.0291 -0.0747
15820W        W31629  10.130  15.028   3.966  0.0715 -0.2847 -0.3021
15821W        W31630   4.784   1.230  14.263  0.1281 -0.0381  0.2673
15822W        W31631   9.663  10.980  14.245 -0.0780  0.1416  0.5080
15823W        W31632  12.150   5.867   9.767 -0.2412  0.4260  0.1305
15824W        W31633   2.910   5.468   4.725  0.0156  0.1992  0.3058
15825W        W31634   0.750   1.375   0.722  0.2555 -0.3257 -0.0325
15826W        W31635  11.466   0.369   4.748  0.1863 -0.1272 -0.4709
15827W        W31636  14.032   8.823  13.229 -0.3364 -0.1108 -0.0699
15828W        W31637   3.739   1.545   5.255 -0.2243 -0.0518  0.0982
15829W        W31638   4.486  12.737   4.224 -0.2928 -0.3150 -0.1331
15830W        W31639  10.241  16.109  15.072 -0.0118 -0.0416  0.1816
15831W        W31640  12.345  17.323   4.598  0.0397  0.2071 -0.2241
15832W        W31641   0.360  15.255   2.222  0.0372  0.1262  0.1061
15833W        W31642   8.877  13.401  13.766  0.0840 -0.4058 -0.2311
15834W        W31643  12.476   8.204   3.008 -0.1185 -0.1977  0.3406
15835W        W31644   5.965   0.950  10.344 -0.0022 -0.1078  0.1306
15836W        W31645   1.714  10.895   2.711 -0.0120  0.1015 -0.1187
15837W        W31646  13.695  16.507   0.542 -0.0029  0.1837 -0.1896
15838W        W31647   1.113  11.166   2.867  0.0583 -0.0584 -0.0102
15839W        W31648   5.556   5.566   1.190  0.1500 -0.1630  0.1628
15840W        W31649  18.129  10.288   3.044 -0.1014 -0.0194 -0.0331
15841W        W31650   5.202   0.115  12.699 -0.2746 -0.1254  0.3579
15842W        W31651  10.597   2.581  11.938  0.1476  0.0951  0.1142
15843W        W31652   4.325   7.975  10.445  0.0130  0.1327  0.2617
15844W        W31653   4.613  10.816  10.923 -0.0895  0.0312  0.2199
15845W        W31654   0.216  17.555   4.238 -0.0052 -0.0389  0.0600
15846W        W31655  14.342  13.853  11.927 -0.0947 -0.1662  0.4551
15847W        W31656   6.486  11.767   0.051  0.3010 -0.2052 -0.2427
15848W        W31657   2.134   2.170  11.034 -0.2847 -0.2914  0.2767
15849W        W31658   7.697   4.755  12.765  0.0239 -0.2103  0.0283
15850W        W31659  14.711   3.819  11.967  0.2152  0.2349  0.3033
15851W        W31660  17.395   3.897  13.598 -0.0363 -0.0717  0.0381
15852W        W31661  14.018   6.505  11.865 -0.1916 -0.0172 -0.3277
15853W        W31662  16.507   1.495  14.874 -0.2184  0.3306 -0.3192
15854W        W31663   2.845   5.621   9.495  0.0713  0.0433 -0.2009
15855W        W31664  16.414  17.230   2.497  0.0430  0.1458  0.0115
15856W        W31665  12.293   0.954   1.120  0.2028 -0.1081  0.1454
15857W        W31666   6.721  16.145  13.595 -0.2423  0.1528 -0.1837
15858W        W31667   6.368  15.324  14.213 -0.2150 -0.1806  0.1011
15859W        W31668  17.464  12.184  13.625 -0.1024 -0.2557  0.1399
15860W        W31669   9.008  13.623  11.198  0.1591 -0.1259 -0.3591
15861W        W31670   6.641   3.085   1.918 -0.4054  0.2615 -0.3854
15862W        W31671  13.230  12.423   4.386 -0.0489  0.2434 -0.0528
15863W        W31672   9.437   6.527  14.993 -0.2852  0.3397 -0.2377
15864W        W31673  12.107   2.661  13.286  0.2093 -0.0084  0.2948
15865W        W31674  16.168  11.972  13.164  0.1309 -0.0719  0.5672
15866W        W31675   4.941  17.531  13.365 -0.1255  0.3903 -0.0556
15867W        W31676   1.620   6.815   1.324  0.3309  0.0166 -0.2003
15868W        W31677  14.228   9.375  11.944  0.2089 -0.0475  0.3144
15869W        W31678   5.621  15.654  13.495 -0.0600 -0.0481 -0.0133
15870W        W31679  11.988   8.446   2.500 -0.0896 -0.5451  0.1045
15871W        W31680  11.596   1.917   2.250 -0.1913  0.1483  0.2424
15872W        W31681   7.186  14.215  10.384 -0.3171 -0.0816  0.1437
15873W        W31682  14.289   5.993   3.243  0.0460  0.0587 -0.1667
15874W        W31683  10.027  16.709   9.950 -0.1425 -0.2483 -0.1242
15875W        W31684  14.819  10.203  13.697  0.1365  0.1452  0.2139
15876W        W31685  10.408   6.375   0.943 -0.0446 -0.0144  0.0462
15877W        W31686   2.999   0.185   3.723 -0.0154  0.4851  0.2087
15878W        W31687   3.747  10.336   3.103  0.0889  0.1589 -0.0627
15879W        W31688   6.419  13.257   5.408  0.2687  0.0795 -0.0131
15880W        W31689   9.221  18.259   1.752  0.0617  0.1278  0.0178
15881W        W31690  15.425   1.761   1.033  0.2188 -0.1526  0.0311
15882W        W31691   1.526   5.839  12.584  0.1822  0.1392 -0.0893
15883W        W31692  17.998   8.820   0.053  0.3221 -0.0908 -0.2294
15884W        W31693   3.058  10.906   0.082 -0.0084 -0.1764 -0.0056
15885W        W31694   4.557   6.431  11.449  0.1560 -0.1086 -0.0337
15886W        W31695   7.663   8.931   1.484  0.1682 -0.1084 -0.0212
15887W        W31696  12.595   6.103  13.998 -0.2350 -0.1337  0.1952
15888W        W31697   4.315  15.916   1.742 -0.2242  0.0417 -0.0244
15889W        W31698  18.321  17.983  15.154  0.4278  0.0926  0.3681
15890W        W31699   3.754   9.383  13.788 -0.0364 -0.2813  0.2288
15891W        W31700  14.244   5.768   5.425 -0.1156 -0.0202  0.2186
15892W        W31701   4.006   6.954  14.670 -0.2541 -0.2572  0.0415
15893W        W31702   9.457   5.426   0.585  0.2233 -0.1123 -0.2026
15894W        W31703   7.576  13.157   5.425 -0.2056 -0.4176  0.2227
15895W        W31704  10.916  11.515   3.086 -0.2295  0.0492  0.0081
15896W        W31705   9.665  14.847   1.970 -0.2702  0.0578 -0.0360
15897W        W31706  15.060   2.378   2.193 -0.0961 -0.2973  0.3268
15898W        W31707  11.545  13.164  11.481  0.0414  0.1684 -0.0887
15899W        W31708   8.699   5.616   3.473  0.0333 -0.1356  0.0847
15900W        W31709   9.970  13.499   2.292  0.0490 -0.0492 -0.1274
15901W        W31710   6.462  18.223   3.993  0.1794  0.0665 -0.1643
15902W        W31711  18.280   7.175  10.420  0.1187  0.0084  0.0031
15903W        W31712  10.577  16.966   4.747 -0.2434  0.2989  0.4120
15904W        W31713   3.621   4.192   9.393  0.0602  0.0575  0.1081
15905W        W31714   5.791   4.236   0.330 -0.1697 -0.0514  0.0868
15906W        W31715  10.877  13.042   0.672  0.0457  0.4157 -0.4913
15907W        W31716  15.527   6.480   2.358  0.2322 -0.0238 -0.0685
15908W        W31717  11.105  15.050  11.019  0.0137  0.1675  0.0339
15909W        W31718  17.461  16.350  13.743  0.0152 -0.2097 -0.0257
15910W        W31719  13.989   9.550   3.522 -0.0911 -0.1657 -0.0790
15911W        W31720   5.102  14.131  13.300 -0.0252  0.0486 -0.0555
15912W        W31721  14.994  15.198   1.044 -0.1316 -0.3998 -0.1738
15913W        W31722   8.408   3.242  14.758  0.0041  0.2457  0.0054
15914W        W31723   8.175   0.914  12.746 -0.0298  0.0533 -0.0340
15915W        W31724  12.450   1.498   0.269 -0.0562 -0.1431  0.1613
15916W        W31725  14.888   6.423  12.166 -0.2267  0.1593  0.1116
15917W        W31726  14.881   5.999   6.140  0.0756 -0.0848  0.4022
15918W        W31727  13.684   2.245  10.901 -0.2222  0.1359  0.0396
15919W        W31728   6.957   5.343  10.642  0.0980  0.2801 -0.0436
15920W        W31729  11.244  14.259  14.000 -0.2932  0.2436  0.1607
15921W        W31730  16.373   7.602   1.885  0.0615 -0.0924 -0.2745
15922W        W31731   5.116  13.085  14.176  0.0688  0.0862  0.3109
15923W        W31732  12.882   3.474  11.619 -0.3083 -0.0599 -0.2290
15924W        W31733   3.763   8.977  14.133 -0.1400  0.0193 -0.2053
15925W        W31734  13.044  18.058   1.373  0.0860 -0.1189 -0.1721
15926W        W31735  15.693  12.022   2.926  0.2314 -0.3986 -0.2557
15927W        W31736  13.005   1.468   0.398 -0.1528  0.1684 -0.1022
15928W        W31737  18.397  10.483   0.228  0.1592  0.2920  0.0504
15929W        W31738   9.482  10.710   3.916  0.2204  0.1222  0.0673
15930W        W31739   1.518  15.079   5.098  0.3024  0.4287  0.1602
15931W        W31740   0.390   7.585  14.133 -0.0881 -0.5640 -0.2827
15932W        W31741  11.318   9.180   0.918  0.3445 -0.1382 -0.1508
15933W        W31742  17.585  18.487   1.433  0.2313 -0.1647  0.2150
15934W        W31743   1.052  13.112  11.886 -0.1432 -0.2398  0.2368
15935W        W31744   0.917  11.937  13.302 -0.1039  0.2500  0.0320
15936W        W31745  18.260   7.827   0.025  0.3631 -0.0735 -0.1495
15937W        W31746  18.996  13.432  11.365  0.0908 -0.0281  0.0091
15938W        W31747   4.995  11.115  12.556  0.1422 -0.0513  0.0454
15939W        W31748  13.351   8.256  11.932 -0.1527 -0.0859  0.0772
15940W        W31749   6.941  15.986  12.962 -0.1412  0.1733 -0.0782
15941W        W31750  12.423   8.606   2.237  0.3581  0.2605  0.2834
15942W        W31751  13.701  13.200   3.403 -0.1370  0.0111  0.1506
15943W        W31752   2.050  13.425  10.599  0.0274 -0.0878  0.0390
15944W        W31753  10.573  18.221  14.676 -0.2138 -0.0241 -0.2633
15945W        W31754   8.110  18.325  10.697 -0.0928 -0.3659 -0.2585
15946W        W31755   1.266   7.586   9.409 -0.1145  0.2235 -0.3375
15947W        W31756  17.841  11.795   2.374 -0.1303 -0.1616  0.0119
15948W        W31757   9.597  17.431  12.235 -0.2335  0.1898 -0.0981
15949W        W31758   2.411   0.391   1.939 -0.0411 -0.1124 -0.0258
15950W        W31759   2.219  14.270  12.132  0.1505  0.1286  0.4859
15951W        W31760   1.690   4.169  10.937 -0.2584 -0.1400 -0.2014
15952W        W31761  10.663   9.366  14.866 -0.0133 -0.3587 -0.0533
15953W        W31762   4.111   7.505  13.867 -0.1627  0.0280  0.1395
15954W        W31763   7.679   3.773  13.128 -0.1725 -0.0999 -0.0374
15955W        W31764   0.229  14.619   1.948  0.1177  0.1046  0.3293
15956W        W31765   8.855   4.513  12.509 -0.1579  0.0736 -0.0394
15957W        W31766   3.108  18.882   9.645  0.1961  0.1130  0.1239
15958W        W31767  10.657   4.805   4.900  0.2531  0.1524  0.0117
15959W        W31768   9.425   3.167  10.443 -0.0856  0.1988  0.2366
15960W        W31769   6.748   1.202  11.059 -0.0795  0.3720 -0.1823
15961W        W31770   5.909  12.903  11.685  0.1119  0.0699  0.1865
15962W        W31771   3.842   3.079   2.285  0.0916 -0.0193 -0.1504
15963W        W31772   3.404  10.347   3.676  0.3434 -0.0489  0.2124
15964W        W31773  13.743   6.289  12.857  0.0447  0.0443  0.1230
15965W        W31774  11.341   1.815  14.719 -0.1450 -0.0204 -0.0883
15966W        W31775  11.303  11.341  12.484  0.1586 -0.3324 -0.3369
15967W        W31776  10.343   2.440  14.741 -0.0247  0.3286  0.2603
15968W        W31777   7.740   2.918  13.541  0.1755 -0.0340  0.3667
15969W        W31778   3.687   4.306   3.143 -0.0800 -0.3191 -0.0701
15970W        W31779  14.063  15.639  14.471  0.5043 -0.0880 -0.0141
15971W        W31780   0.096  16.996   2.407  0.3324 -0.1262  0.0706
15972W        W31781   2.326  18.509  11.943 -0.0907 -0.2805  0.2367
15973W        W31782   6.753   6.772  13.411  0.2370 -0.2120  0.0918
15974W        W31783   8.499  13.886  11.288 -0.0380  0.1166  0.0544
15975W        W31784  13.979  11.412  12.071  0.2477 -0.3608 -0.1575
15976W        W31785  13.799  10.785   5.014 -0.0234 -0.0111 -0.0612
15977W        W31786   4.299  16.166   3.414  0.1429 -0.0086  0.0979
15978W        W31787  13.598   9.857   3.203 -0.2369  0.2915 -0.2445
15979W        W31788  10.704   0.693   5.890 -0.1312 -0.0535 -0.1069
15980W        W31789  18.396   4.045  11.292  0.0797  0.0359 -0.0839
15981W        W31790  12.031   8.027   1.682 -0.0922  0.0845 -0.1447
15982W        W31791   0.310  13.516  13.881  0.1442 -0.0671 -0.1849
15983W        W31792   5.368   0.679   0.722  0.0316  0.0477 -0.0828
15984W        W31793  11.820  11.439  10.929 -0.0841  0.0572 -0.3922
15985W        W31794  17.227   6.001   5.546 -0.0515  0.4577  0.1111
15986W        W31795   7.259  11.337   5.440  0.1856  0.2954  0.1437
15987W        W31796   5.761  17.745   2.166  0.1934  0.1798 -0.0370
15988W        W31797  18.794   3.624  11.379 -0.0761  0.0742 -0.0594
15989W        W31798   8.963   1.367   1.652  0.1932 -0.2139  0.2254
15990W        W31799   3.710  11.314  10.891 -0.0371 -0.3554 -0.0435
15991W        W31800   6.183  15.512  11.451 -0.2678 -0.1476  0.0524
15992W        W31801   3.588   3.978  11.495 -0.0278 -0.0741 -0.0292
15993W        W31802  16.771  17.976  14.510  0.0751  0.1556  0.0793
15994W        W31803  14.767   7.692   5.085 -0.0506 -0.2452 -0.0159
15995W        W31804  13.355  15.112   2.287 -0.0932  0.1367  0.1025
15996W        W31805   5.463   3.123  13.201 -0.0991  0.0541 -0.1673
15997W        W31806   9.056  11.251   2.275 -0.2069  0.0377  0.0494
15998W        W31807  17.841   5.996  15.223 -0.2025 -0.1627 -0.2538
15999W        W31808  11.011  14.549   3.753 -0.1909 -0.3142  0.0416
16000W        W31809   0.230   6.854  14.774  0.0110  0.0942 -0.0277
16001W        W31810   5.864   8.648   3.703 -0.1724 -0.1073 -0.1030
16002W        W31811   2.945   0.727   2.782 -0.1277 -0.0131  0.1284
16003W        W31812  15.065  16.720   0.911  0.0751  0.0316 -0.0396
16004W        W31813   8.882  10.222   4.178  0.1075 -0.0011  0.1838
16005W        W31814  17.642   3.373  13.795 -0.1214  0.2759 -0.0638
16006W        W31815   1.802   9.083  12.167  0.0567  0.3885  0.1251
16007W        W31816  18.665   4.929   3.486  0.1564  0.0322  0.2922
16008W        W31817   4.324  17.829  10.408 -0.0024 -0.1407  0.1167
16009W        W31818   8.269   2.849   2.871 -0.3236 -0.1298 -0.1347
16010W        W31819   4.273   8.284  14.514  0.3877  0.0481 -0.4644
16011W        W31820   3.495  17.982   0.745 -0.0447  0.0312 -0.0641
16012W        W31821   9.656  18.208  15.201  0.0704 -0.3437  0.2039
16013W        W31822  10.137  15.581   2.582  0.0137  0.0747 -0.0826
16014W        W31823   0.311  16.917   4.618  0.3065  0.1599  0.1415
16015W        W31824  13.893  17.387   3.325 -0.0875  0.0017 -0.0005
16016W        W31825  10.850   2.565   2.159  0.4614  0.0610  0.0055
16017W        W31826   9.739   2.907  12.244 -0.1225 -0.2031 -0.2660
16018W        W31827  17.229  12.566  14.606  0.0045  0.2164  0.0127
16019W        W31828  13.577   1.238   5.095  0.2288  0.0305  0.0046
16020W        W31829  16.553   9.329  11.361 -0.1191  0.2182 -0.1041
16021W        W31830  17.447  15.253   0.535 -0.2838  0.2171  0.1214
16022W        W31831  11.550  13.538   3.481  0.0283 -0.0163  0.0168
16023W        W31832  14.512   8.314  13.309 -0.2607  0.0769  0.0647
16024W        W31833   5.844  16.307  11.215 -0.1610 -0.2001  0.1744
16025W        W31834   0.242  15.889   0.844  0.4475  0.0638  0.0175
16026W        W31835   5.075   6.289   0.816 -0.1666  0.1095 -0.3889
16027W        W31836  16.882   1.727   0.578  0.1631  0.0794 -0.0963
16028W        W31837  15.280   6.967   5.515 -0.0912 -0.0146  0.1690
16029W        W31838   2.669  13.306  12.542 -0.0181 -0.0264 -0.0860
16030W        W31839   8.080  11.775  13.349 -0.0908  0.0242  0.2783
16031W        W31840  11.099  13.901  10.978  0.0912 -0.1870 -0.3812
16032W        W31841   9.494  15.686  12.987 -0.1675  0.1001 -0.0093
16033W        W31842   1.092   3.395  15.270  0.2290 -0.0894  0.1808
16034W        W31843  12.590   6.528  13.654  0.0195  0.0161  0.0401
16035W        W31844   8.714   9.071   3.402 -0.0293  0.3414 -0.2032
16036W        W31845   9.913  17.915  13.479 -0.0362  0.1709  0.0825
16037W        W31846   3.153   3.277  12.538  0.0842 -0.2353  0.0613
16038W        W31847   8.058   1.436  13.930  0.1940 -0.2859 -0.0129
16039W        W31848   5.348   0.801   0.215  0.2924  0.2195 -0.2653
16040W        W31849  17.816  14.390   3.440 -0.5018  0.0710 -0.1490
16041W        W31850  12.056  14.875  11.009  0.3249 -0.0786 -0.2005
16042W        W31851  10.876  17.036   2.269  0.1651  0.1772 -0.2088
16043W        W31852   4.118  18.196  12.812  0.0888  0.2131  0.0558
16044W        W31853   5.345   0.243   2.450 -0.2635 -0.3903 -0.3318
16045W        W31854  18.082   0.779   5.183 -0.0351  0.0155  0.0336
16046W        W31855  12.907   3.946  10.906 -0.0663 -0.1444  0.1360
16047W        W31856   9.364  10.080  12.053  0.0465  0.0603 -0.1491
16048W        W31857   5.244   5.903  14.264  0.2269  0.1913  0.0573
16049W        W31858  16.269   3.795  13.894  0.0748  0.0514  0.0964
16050W        W31859   6.416   9.818  14.078 -0.1243  0.1151  0.3329
16051W        W31860  12.110  16.821  14.743 -0.1111 -0.2823  0.1247
16052W        W31861   0.683   6.395  13.612 -0.0965 -0.0906 -0.0125
16053W        W31862   3.047  18.336  12.316 -0.2853 -0.0779  0.3070
16054W        W31863   5.603  16.913  15.263  0.0258  0.2342  0.2453
16055W        W31864   0.245  10.918  13.486 -0.0523 -0.3165 -0.0239
16056W        W31865  16.010   4.871   5.201 -0.2160 -0.1237 -0.0666
16057W        W31866  12.865  17.921   5.955  0.1117  0.2514  0.3678
16058W        W31867  14.243  13.382  13.952  0.4803  0.0098 -0.1486
16059W        W31868   6.361   8.256  14.225  0.0730 -0.1345  0.2079
16060W        W31869   4.500  18.860   0.146  0.0184 -0.1157 -0.1940
16061W        W31870  12.076  17.016  12.558 -0.1260 -0.1216 -0.2033
16062W        W31871   5.414   4.040  14.394  0.2023  0.3046  0.3466
16063W        W31872  12.789   5.627   5.193  0.1309  0.0624 -0.4097
16064W        W31873  14.807   4.958   5.382 -0.1621  0.0182  0.0613
16065W        W31874  16.362   8.556   9.895  0.3347  0.0653  0.0908
16066W        W31875  17.059  16.177   1.158  0.0293  0.0245  0.0111
16067W        W31876  17.807   9.076   3.021 -0.2918  0.2535  0.1339
16068W        W31877   8.784  11.381  11.982  0.0607 -0.1754 -0.1580
16069W        W31878  14.565   5.099  13.523  0.3618  0.0899 -0.1915
16070W        W31879  11.563   7.157   4.236 -0.2405  0.0129  0.1115
16071W        W31880   9.657  17.733   5.250  0.0677 -0.1825  0.1426
16072W        W31881  13.888   0.714  14.379 -0.0127  0.0500 -0.1877
16073W        W31882   4.638  11.893  12.491 -0.1838  0.0254  0.0205
16074W        W31883   0.914  14.122  14.961  0.1179  0.0267  0.2508
16075W        W31884   9.923   0.977   5.092  0.0410 -0.0073 -0.0515
16076W        W31885  13.666   7.081  10.870  0.0475  0.0239 -0.0809
16077W        W31886   4.380  16.634   3.457  0.0054  0.0953  0.0130
16078W        W31887   2.909   6.745   1.355 -0.1122 -0.2457 -0.0588
16079W        W31888   2.006   7.061   1.770 -0.2003  0.1338  0.2421
16080W        W31889  17.422   4.450   2.872 -0.0045 -0.5563  0.0161
16081W        W31890   6.537   4.521   1.143  0.0189 -0.0542  0.0048
16082W        W31891   2.070  12.045  14.423  0.1506 -0.0368  0.1676
16083W        W31892  18.356  16.141   2.946 -0.0533 -0.1134 -0.0036
16084W        W31893   3.022  14.419  14.756  0.3130 -0.0806  0.0186
16085W        W31894   4.667   1.117   2.580 -0.0801  0.0889 -0.1981
16086W        W31895   2.005   4.177  14.935  0.4928  0.0022 -0.0311
16087W        W31896   3.586   3.570   1.550 -0.1107  0.0230 -0.0112
16088W        W31897   8.839   1.964   5.025 -0.0399 -0.0971 -0.3338
16089W        W31898  15.798   8.574   1.106  0.1408 -0.1085  0.0919
16090W        W31899   1.710   8.333  10.707 -0.1560 -0.0084  0.0173
16091W        W31900  17.393   9.835  13.343 -0.2901 -0.2179 -0.0115
16092W        W31901   5.362  10.945  15.060 -0.1632  0.0320  0.2036
16093W        W31902  17.425   6.103   0.276  0.1116  0.2941  0.0669
16094W        W31903  14.044  18.884   1.055  0.0654  0.0457 -0.3679
16095W        W31904  12.791   9.061   4.203 -0.1044  0.2035  0.0951
16096W        W31905   1.141   9.927   0.210  0.1967  0.1577  0.0852
16097W        W31906  13.329   9.582  12.637 -0.1114  0.1779 -0.0415
16098W        W31907   0.544   9.854   2.545  0.1225 -0.2073 -0.0110
16099W        W31908   9.282  15.961  12.505  0.3639 -0.0654 -0.1058
16100W        W31909   5.077   8.386   1.295 -0.0236  0.2536  0.2057
16101W        W31910  17.514   9.126  14.091 -0.1266 -0.0137 -0.1234
16102W        W31911  12.838   3.140  13.749 -0.3130  0.0418 -0.0939
16103W        W31912  13.412  18.002  14.972  0.1926  0.0257 -0.1108
16104W        W31913   3.702  14.912  12.748  0.0348 -0.2019  0.0397
16105W        W31914  18.641   9.688   0.778  0.0773 -0.3129 -0.0902
16106W        W31915  15.881   0.471  12.344 -0.1004  0.1838 -0.1187
16107W        W31916   9.113  15.633  11.529  0.3201 -0.0782  0.3554
16108W        W31917   7.050  13.962  13.462  0.0417 -0.0827  0.2898
16109W        W31918  14.355   3.447  13.503  0.2160 -0.0312 -0.1430
16110W        W31919  18.977  14.183  11.864 -0.0491  0.1076  0.2226
16111W        W31920   7.079  11.292  11.605  0.1176 -0.2105 -0.1529
16112W        W31921  13.534   6.057  14.339 -0.2815  0.1749  0.0573
16113W        W31922   5.795  18.531   0.424  0.3568  0.0014 -0.1381
16114W        W31923   5.090   4.148   3.287  0.1953  0.5482 -0.1543
16115W        W31924   2.188   6.663  14.838  0.1102 -0.1778  0.3299
16116W        W31925   2.312   5.937   4.774  0.3362 -0.1254 -0.0583
16117W        W31926  10.260   1.767   0.507  0.0151  0.1080 -0.1598
16118W        W31927   6.817  17.932  14.933 -0.2018  0.2342 -0.0087
16119W        W31928   6.584   4.719  15.262  0.0934 -0.0802  0.2874
16120W        W31929   0.241   3.731  14.688  0.2177 -0.3015 -0.0204
16121W        W31930  16.337  12.235   3.798  0.0592  0.0023 -0.2286
16122W        W31931  16.862   8.415   0.840  0.2398 -0.0723  0.0089
16123W        W31932   7.711  15.140  13.919  0.3332 -0.1064  0.0705
16124W        W31933  11.491   9.572  15.245 -0.4170  0.0229 -0.1882
16125W        W31934   6.957   3.637   4.381  0.0402 -0.2265 -0.0274
16126W        W31935  16.311   3.881  14.500 -0.0136  0.0802  0.0781
16127W        W31936  14.447   7.856   4.155  0.0967  0.1338  0.1374
16128W        W31937   9.193  14.986  10.802 -0.0530 -0.2719 -0.2709
16129W        W31938   0.224   6.245  13.787  0.2189  0.1287 -0.1483
16130W        W31939   1.180   9.708   3.497  0.0102 -0.1746  0.0712
16131W        W31940   1.315  11.797   3.597 -0.0749 -0.2251 -0.2422
16132W        W31941   1.131  17.425  14.761  0.1033 -0.1097  0.0681
16133W        W31942  18.423  13.188  15.230 -0.3552  0.0151 -0.0142
16134W        W31943   8.583  10.488   4.544 -0.1349 -0.2150  0.2846
16135W        W31944   5.426   9.528  13.365 -0.0432 -0.0593 -0.0121
16136W        W31945   9.173   5.069   5.261  0.1764 -0.0541  0.0126
16137W        W31946   7.036   9.449   1.291  0.2430  0.1923  0.0451
16138W        W31947   3.041  11.027   3.191  0.0328 -0.1154  0.1661
16139W        W31948  16.815   8.601  11.530  0.0036 -0.1012 -0.1815
16140W        W31949  18.824  12.603  12.595 -0.2339 -0.0682  0.0322
16141W        W31950  14.874  11.698  13.711  0.0841  0.1282  0.0104
16142W        W31951  14.703  14.027  10.838 -0.2359 -0.1491 -0.0207
16143W        W31952   0.019   2.070   4.077  0.0160  0.0143  0.0495
16144W        W31953  14.038   5.738  12.991  0.0090 -0.0095 -0.0057
16145W        W31954  10.520   3.908  11.620 -0.3503 -0.2132 -0.0028
16146W        W31955  11.857  10.381   4.228  0.4319 -0.1249 -0.0577
16147W        W31956  10.299  13.753   3.736  0.1003 -0.1115  0.0734
16148W        W31957   2.074   8.018  14.248  0.1276  0.3621  0.3283
16149W        W31958  16.882  18.307   1.934  0.2534  0.0850 -0.2823
16150W        W31959   2.644   8.080   3.235  0.1183  0.3345 -0.1621
16151W        W31960  16.195  15.962   4.691  0.1502  0.0078  0.1971
16152W        W31961  15.065  13.666  11.577 -0.2484 -0.1320 -0.3023
16153W        W31962   6.047  17.767   4.928 -0.0084 -0.2477 -0.0720
16154W        W31963  16.589   3.836   5.046 -0.0644 -0.5568  0.0557
16155W        W31964  11.658   4.825   3.886  0.0951 -0.1113 -0.0910
16156W        W31965   8.727  11.615   2.381 -0.3463  0.0985  0.1793
16157W        W31966  11.831  14.529  12.371 -0.3106 -0.0103 -0.1637
16158W        W31967   8.169  11.258  11.392  0.1260  0.1568  0.0778
16159W        W31968   7.102   9.888   3.355 -0.0032 -0.2274  0.2371
16160W        W31969   4.482   4.730  10.950  0.0938 -0.2761 -0.1172
16161W        W31970  16.982  14.800   2.529 -0.0743  0.1602 -0.0016
16162W        W31971   3.983   1.472   3.751 -0.1831 -0.2452  0.0736
16163W        W31972  16.035   4.126   0.364  0.3196  0.0167  0.4453
16164W        W31973   6.222  10.830  10.245 -0.3152 -0.4298  0.0336
16165W        W31974   3.623   3.758   4.331 -0.1439 -0.0687 -0.0179
16166W        W31975  18.264   4.965  10.890 -0.0542  0.1337 -0.1775
16167W        W31976   0.166  10.351  10.938 -0.0123  0.2569 -0.0793
16168W        W31977   9.260  15.129  13.942  0.1721 -0.1785 -0.2656
16169W        W31978   1.579   5.076  11.717  0.2110  0.3650  0.0825
16170W        W31979  14.326   0.274  14.614 -0.1155 -0.4743  0.1105
16171W        W31980  18.653   3.894  14.524 -0.3161 -0.1817  0.1599
16172W        W31981   2.022  12.686  11.242 -0.1027 -0.1737  0.2635
16173W        W31982  18.748  13.835  11.505  0.1486  0.0079  0.1619
16174W        W31983   3.402   7.131   4.260  0.1572 -0.0480  0.0506
16175W        W31984  15.066  12.459  12.052  0.3111 -0.2808 -0.0425
16176W        W31985  10.141   0.437  14.483  0.0411  0.4680  0.1364
16177W        W31986   7.568  17.316   2.303  0.0290 -0.4350  0.1019
16178W        W31987  15.432   1.103   4.446  0.1526  0.0896 -0.0587
16179W        W31988  13.811  18.089   5.558  0.4414  0.1237 -0.0484
16180W        W31989  17.650  13.310   0.661 -0.0020 -0.2201  0.0659
16181W        W31990   0.353   0.724   3.794  0.0964 -0.4038  0.3340
16182W        W31991  16.541   8.944   1.132 -0.2948 -0.1365  0.0249
16183W        W31992  17.798  13.090   4.252  0.1387 -0.0485 -0.2339
16184W        W31993  11.730  17.831   5.145 -0.0752  0.1201  0.0401
16185W        W31994   1.150   4.565   1.299  0.1113  0.0695  0.0798
16186W        W31995  17.715   1.370  15.266  0.0654  0.2711  0.1499
16187W        W31996   1.875   2.178  12.307 -0.1295 -0.0139  0.2239
16188W        W31997  13.033  15.557   1.357 -0.0952 -0.0362 -0.1647
16189W        W31998  18.869   5.235   4.092 -0.1252 -0.0826  0.1538
16190W        W31999  14.538  14.675   0.994 -0.0371 -0.1823 -0.0152
16191W        W32000   5.000  11.578   3.616 -0.2359  0.1744  0.1116
16192W        W32001   5.685   8.219   3.497 -0.0199 -0.1782  0.2620
16193W        W32002  10.582  15.325  13.562 -0.0593 -0.0470  0.2462
16194W        W32003   5.893   6.049   2.930 -0.2871  0.2825  0.0407
16195W        W32004  15.471  13.211   0.584 -0.1065  0.2619 -0.4390
16196W        W32005   3.008   1.180   3.692  0.1141  0.2032  0.1619
16197W        W32006   9.977  18.587  15.160 -0.1450 -0.2812 -0.1698
16198W        W32007  18.712   9.517  10.933 -0.0838  0.3152  0.1071
16199W        W32008   3.758   1.917  10.102 -0.1155  0.0478  0.0922
16200W        W32009   9.949   2.653  12.699 -0.1236 -0.0694 -0.3809
16201W        W32010  12.006   8.637   3.692  0.2151 -0.1821  0.1361
16202W        W32011   3.342   3.479  11.638  0.0348  0.1375  0.2819
16203W        W32012   0.465   5.410  11.532  0.1242  0.4563  0.1050
16204W        W32013   0.513   3.111   2.474  0.0538  0.0356  0.0746
16205W        W32014   5.049  11.890   1.322 -0.4235  0.1034  0.1238
16206W        W32015   9.538   0.279   4.975 -0.1133 -0.1441 -0.0133
16207W        W32016  10.540   7.777   5.173 -0.3645 -0.3838  0.1471
16208W        W32017   2.989   3.462  13.373 -0.2190 -0.0463 -0.0751
16209W        W32018  13.229  14.249  12.883  0.2583 -0.1234  0.2782
16210W        W32019   9.430   9.713   2.227  0.0487  0.2038  0.0241
16211W        W32020   0.037  13.209   9.691 -0.1497 -0.2256  0.0461
16212W        W32021   9.900  15.800   3.926  0.1186 -0.2113 -0.4404
16213W        W32022   6.386   6.933   4.605  0.2508 -0.1355 -0.0648
16214W        W32023  14.529  18.239   4.979 -0.1368 -0.1264  0.1813
16215W        W32024  12.075  11.403   1.339  0.0832 -0.0024 -0.2369
16216W        W32025   3.120   6.479  11.720  0.2805  0.3447  0.1018
16217W        W32026  16.132   4.102   1.685  0.5085 -0.0395 -0.1859
16218W        W32027  18.261  16.136   4.562  0.0411  0.1423  0.1944
16219W        W32028  11.209  10.014  14.307  0.0828 -0.2937 -0.0113
16220W        W32029  13.681  15.799   1.604  0.1475  0.0905 -0.4150
16221W        W32030   1.314   8.951   4.075  0.2359  0.2318 -0.1471
16222W        W32031   4.460  16.400  10.440  0.0092 -0.0423  0.1368
16223W        W32032   5.066  12.882  12.550  0.0694  0.1568 -0.1206
16224W        W32033  17.397  16.778  15.263  0.1609 -0.1382  0.1734
16225W        W32034   1.854   1.186  14.487  0.3127 -0.1866  0.1419
16226W        W32035  13.901  17.342  14.674 -0.1866  0.0276  0.4665
16227W        W32036   8.131  10.795   3.272  0.2731 -0.2023 -0.0233
16228W        W32037   2.535  13.742   4.415  0.0446  0.0390 -0.0532
16229W        W32038  11.639  10.992  10.704 -0.4125 -0.2273 -0.0066
16230W        W32039   4.712   6.441  15.019 -0.2698 -0.0427 -0.1005
16231W        W32040  16.311   2.805  12.187 -0.1123 -0.0786  0.1113
16232W        W32041   5.952   8.189   4.485  0.1491  0.1538 -0.0577
16233W        W32042  11.919   6.734  14.120  0.0066  0.2163 -0.0896
16234W        W32043  15.176  15.201  13.641 -0.2060  0.0791 -0.2233
16235W        W32044   5.283  16.216  13.917 -0.0726  0.1564  0.1591
16236W        W32045   1.888   2.174   1.347  0.2246  0.0909 -0.3504
16237W        W32046   4.140  13.242  11.532  0.2039  0.0581  0.1379
16238W        W32047   8.698  13.182   0.512 -0.3973  0.1452  0.2484
16239W        W32048   9.716   6.922  15.185  0.0311 -0.0884 -0.3155
16240W        W32049   5.306   6.492  10.984  0.0230  0.1429 -0.0839
16241W        W32050   1.983   3.522   4.079 -0.1259 -0.3058 -0.1425
16242W        W32051  12.057   7.839  13.850 -0.3987 -0.0005 -0.0481
16243W        W32052   1.352   0.873   1.525  0.0023 -0.1597  0.1100
16244W        W32053  18.768  13.997   3.709 -0.0625 -0.0982  0.0750
16245W        W32054   4.143   0.703  12.875  0.1787 -0.1988 -0.0838
16246W        W32055  17.819   8.010   4.430  0.1103  0.3253 -0.0269
16247W        W32056   0.955   1.838  11.556 -0.0352  0.0549 -0.1362
16248W        W32057  15.137   8.370  11.755 -0.0721 -0.0806 -0.2123
16249W        W32058  14.199  16.380  13.683  0.1954 -0.2383 -0.2463
16250W        W32059  18.048   3.526  11.095 -0.0276 -0.1789  0.0383
16251W        W32060  11.516   3.876  13.752  0.2200  0.0121  0.0069
16252W        W32061  10.020   1.680   1.892  0.1538  0.1200  0.1084
16253W        W32062  10.115   7.607   4.899  0.1525 -0.3402 -0.3160
16254W        W32063  16.915   2.448   4.586 -0.0359 -0.2798 -0.1143
16255W        W32064  10.263  11.408   4.824  0.0095 -0.0473 -0.1316
16256W        W32065  13.621  15.344   3.261 -0.0313 -0.3646  0.2395
16257W        W32066   6.875  13.836   5.059  0.1730  0.0845 -0.1994
16258W        W32067  16.575  12.230   4.257 -0.1964 -0.2129 -0.0173
16259W        W32068   3.116  14.878   3.911  0.0068 -0.2302  0.0945
16260W        W32069   4.190  15.134   0.495 -0.0510  0.1416 -0.0312
16261W        W32070  17.068   8.110   1.542 -0.1136  0.0220 -0.2600
16262W        W32071  14.671   5.207  14.026  0.5598 -0.2204 -0.2814
16263W        W32072  19.029   9.730  11.305  0.1236 -0.2017 -0.2277
16264W        W32073   0.426   6.612   3.216  0.3225  0.0952 -0.0589
16265W        W32074  11.546  15.708  13.444 -0.0039  0.4248 -0.2306
16266W        W32075  14.124  12.783  14.895 -0.2199 -0.2660  0.1193
16267W        W32076   1.440  12.458  13.794  0.0064  0.0404  0.0064
16268W        W32077  14.668   3.577   5.947 -0.0759  0.1442 -0.3654
16269W        W32078  14.110   9.619  12.900  0.2067  0.0647  0.1504
16270W        W32079  11.937   4.409  12.777  0.1320  0.1625  0.0188
16271W        W32080  16.638  10.086  12.501  0.0745  0.0153  0.2635
16272W        W32081   7.331  14.668   2.264 -0.1287 -0.0841 -0.1176
16273W        W32082   9.000  13.329   2.828  0.1676  0.1451 -0.0327
16274W        W32083   4.900   4.342  15.097  0.2633  0.1013 -0.0621
16275W        W32084  18.577  17.935  10.078 -0.1423  0.0375  0.0372
16276W        W32085  18.562   6.068   5.613 -0.1603  0.1120 -0.1267
16277W        W32086   0.723  17.518   5.043  0.0629  0.0249 -0.2858
16278W        W32087   2.985   4.239  10.326 -0.3237  0.2233 -0.0137
16279W        W32088   5.238  17.585   2.162 -0.1148  0.4348 -0.0163
16280W        W32089  13.976  17.192  13.194  0.1811  0.1753 -0.0997
16281W        W32090  12.387  12.237  10.506  0.2564 -0.0020 -0.0267
16282W        W32091   2.752  15.746   0.103  0.1571 -0.1221  0.2247
16283W        W32092   4.786  19.013  14.417  0.3340  0.0903  0.0795
16284W        W32093  14.874   8.293   0.650 -0.0405  0.3954 -0.0072
16285W        W32094   7.677   8.990  14.044  0.2123  0.1362  0.5054
16286W        W32095  18.353  13.740   5.795 -0.0498 -0.0307 -0.2043
16287W        W32096   7.700   6.445   3.231 -0.0419 -0.2764  0.0143
16288W        W32097   8.606  12.959   4.708  0.0418 -0.2828 -0.0173
16289W        W32098   9.393   8.614  12.378  0.0918 -0.0817 -0.3562
16290W        W32099   9.257   1.924  13.674 -0.0869  0.0529  0.1131
16291W        W32100  12.215   0.417  12.431  0.2174  0.0796 -0.1816
16292W        W32101  17.251   1.478   4.611  0.0314  0.0567  0.2271
16293W        W32102   6.935   3.171   2.564 -0.0538  0.0663  0.2112
16294W        W32103   4.538   8.867  10.578 -0.0759 -0.2397 -0.1881
16295W        W32104   0.831   8.664  13.737  0.0395  0.1273  0.1539
16296W        W32105   6.198   6.403   4.657  0.0382  0.1699  0.2294
16297W        W32106  15.969  17.899  14.160  0.0349 -0.2171 -0.1294
16298W        W32107   5.395  10.270   0.726  0.2798  0.2242 -0.0922
16299W        W32108  17.248   5.880  11.077 -0.0270 -0.1575 -0.2715
16300W        W32109  14.841  17.363   2.916  0.0403 -0.2968 -0.0255
16301W        W32110  11.017   7.368   1.586  0.2470  0.1178  0.0767
16302W        W32111  11.785   1.304  15.106  0.0920 -0.3134  0.0718
16303W        W32112   7.716  18.583   9.473 -0.0396  0.4526 -0.2675
16304W        W32113   1.672  11.105  15.002  0.3505  0.1657  0.2278
16305W        W32114  17.115  10.670   0.814 -0.0317  0.3477 -0.3529
16306W        W32115  16.788  11.244   4.724  0.6309 -0.0749 -0.0538
16307W        W32116  16.698  12.176  13.114  0.4260  0.0262 -0.1909
16308W        W32117   3.699  10.353   2.409 -0.0788 -0.0227  0.2261
16309W        W32118  17.080  18.034   4.427 -0.2425 -0.0435 -0.0939
16310W        W32119   0.715  12.100  12.877 -0.2256  0.0378 -0.1900
16311W        W32120  13.222  16.892  14.940 -0.2767  0.1024 -0.0282
16312W        W32121  17.632   8.361   0.134  0.2377 -0.0287  0.3186
16313W        W32122  17.081   8.251  11.778  0.1178  0.0731  0.2221
16314W        W32123   7.716  13.358   0.179 -0.1221  0.0233 -0.1011
16315W        W32124   3.752  12.187   3.599 -0.0531  0.0991  0.0951
16316W        W32125   7.979   9.839  14.245  0.1258 -0.2637  0.0298
16317W        W32126  13.401  18.282  10.767 -0.0073 -0.0274  0.4737
16318W        W32127  13.760   3.793   1.833  0.4206  0.1269  0.2659
16319W        W32128  16.777  12.907   3.340  0.1310  0.3138  0.4434
16320W        W32129   9.834  17.482   3.457  0.3104 -0.0097  0.2884
16321W        W32130   6.748   7.954   3.916  0.4256 -0.1267 -0.1772
16322W        W32131  18.662   3.906  11.754 -0.0805  0.2405 -0.1109
16323W        W32132  12.789  12.157  13.186 -0.0107 -0.1384 -0.0800
16324W        W32133  13.476  11.934   3.357  0.2303 -0.5198 -0.1735
16325W        W32134  13.889  12.056  12.756 -0.0583 -0.2213  0.2578
16326W        W32135  16.407   6.483   5.686  0.0009  0.2056 -0.1683
16327W        W32136   7.480  12.891  14.930  0.1144  0.4385  0.0090
16328W        W32137  13.713  18.609  13.893  0.0492 -0.1367  0.2637
16329W        W32138   8.672  12.199   1.205 -0.3987  0.0286  0.1479
16330W        W32139   7.062   6.553   5.310 -0.1010 -0.1907  0.4198
16331W        W32140  13.733   4.965   0.731 -0.1424 -0.2715 -0.0197
16332W        W32141  15.072   7.680  11.375 -0.0217  0.2134  0.0866
16333W        W32142  13.827   7.039   5.575 -0.1171 -0.1136 -0.0944
16334W        W32143  16.488  11.542  14.178  0.0264  0.2739  0.1691
16335W        W32144   2.033  10.627   1.851 -0.0323  0.0215  0.4360
16336W        W32145   1.221   4.613   1.807  0.0876  0.0283 -0.0779
16337W        W32146   2.478   8.032   1.603  0.1201 -0.1840  0.0256
16338W        W32147  12.087   5.035  13.411  0.0902  0.2553  0.0645
16339W        W32148   3.743  13.396   3.036 -0.1567  0.0605  0.1414
16340W        W32149   0.333  18.643  13.192  0.0059  0.0436  0.0744
16341W        W32150  11.469  15.209   0.322 -0.0355  0.0984 -0.3279
16342W        W32151  16.644   7.137   1.717 -0.0488 -0.1117  0.2164
16343W        W32152  10.120  17.417  13.570 -0.2409  0.0242  0.1095
16344W        W32153  16.764   6.046   2.553  0.3081  0.0521 -0.0950
16345W        W32154   0.363   6.180   4.353 -0.2011  0.0055 -0.0513
16346W        W32155   4.508   8.006   4.262 -0.1160 -0.2752 -0.1647
16347W        W32156   1.273  18.720   0.851  0.1487  0.0406  0.0913
16348W        W32157   7.771   7.426   1.137  0.0497 -0.1346  0.1916
16349W        W32158   9.071   8.635   4.593  0.0211 -0.0454 -0.0993
16350W        W32159   3.422   0.109   2.662 -0.0168 -0.2047  0.0151
16351W        W32160   5.787  14.436   1.982 -0.1782 -0.0981 -0.0490
16352W        W32161  17.881  16.336  13.251 -0.3308 -0.2411  0.0162
16353W        W32162   9.809  14.188  13.292  0.0395  0.2558 -0.1628
16354W        W32163   4.417   1.785  10.279  0.0535 -0.3877 -0.4154
16355W        W32164   6.342   6.866   5.858 -0.0866  0.1044  0.2717
16356W        W32165  15.487  14.632   0.010 -0.2603  0.0140 -0.2125
16357W        W32166  14.051  10.082  13.098  0.0856  0.1254  0.1421
16358W        W32167  15.602   2.632   2.720 -0.1415  0.1778 -0.2534
16359W        W32168  14.043  10.374  11.695  0.2035 -0.1795  0.0323
16360W        W32169   5.835   2.390  10.424 -0.0103  0.1517 -0.0339
16361W        W32170  13.126   4.412  10.146  0.1819  0.0569 -0.1562
16362W        W32171  11.451  15.220  13.841 -0.2932  0.2829  0.1344
16363W        W32172   9.236  14.171   2.460  0.1031  0.0918 -0.1556
16364W        W32173  17.537  18.357  10.686 -0.1192  0.0007 -0.1426
16365W        W32174  15.412  13.609   0.031  0.3784  0.0631  0.2435
16366W        W32175  14.458   0.093   4.243  0.0587  0.3374  0.1774
16367W        W32176  12.814   7.564  10.717 -0.1295 -0.2587  0.2737
16368W        W32177  10.079   2.190  12.044 -0.0823  0.1094  0.1480
16369W        W32178   0.536   6.906  10.379  0.2063 -0.0225 -0.0726
16370W        W32179  13.835   5.678  11.971  0.1215 -0.0942 -0.2237
16371W        W32180  16.986   8.149  10.640 -0.2018 -0.0498  0.0227
16372W        W32181  10.182  18.468   3.180  0.1315 -0.0392 -0.2412
16373W        W32182  11.351   2.915   5.497 -0.0246  0.1042 -0.1758
16374W        W32183   1.804   7.275  14.159 -0.0719  0.0609  0.1366
16375W        W32184  13.997   5.739   3.708 -0.1290  0.4207  0.1079
16376W        W32185  13.889  16.809   0.175  0.2790  0.4835 -0.2944
16377W        W32186   0.191   8.843  13.937  0.0899 -0.0583 -0.2280
16378W        W32187   4.553   2.964  12.781 -0.1824  0.1531  0.1368
16379W        W32188  15.777  18.430   0.024 -0.2213 -0.0227  0.1487
16380W        W32189  12.788   2.481  11.116 -0.2103 -0.0792  0.0957
16381W        W32190   3.778   0.388  15.175 -0.0322 -0.1541 -0.0059
16382W        W32191   2.973   5.128  14.868  0.0734 -0.1127 -0.2136
16383W        W32192  18.662  14.896   3.438 -0.2345  0.1571  0.1642
16384W        W32193  15.805  11.220  12.089  0.1531  0.1345  0.1259
16385W        W32194   8.383  16.367   4.377  0.1055  0.1007 -0.1784
16386W        W32195  11.778   0.013   0.777 -0.1029 -0.1412 -0.2502
16387W        W32196  18.715   7.644   4.249  0.0960 -0.1097 -0.1398
16388W        W32197   4.934   6.338   4.041  0.0399  0.0674  0.2388
16389W        W32198   3.835   6.312  11.034  0.1191 -0.2304  0.6165
16390W        W32199  13.391   3.070   0.524  0.2140  0.0447  0.3010
16391W        W32200  12.968   3.519   4.855  0.0257 -0.2629 -0.1746
16392W        W32201   1.316   6.291   0.526  0.1128 -0.1333  0.0969
16393W        W32202   7.302  11.013   1.485  0.0233 -0.1501 -0.2818
16394W        W32203   8.241  13.883   0.565 -0.0299  0.0991  0.1452
16395W        W32204  10.868   8.576  12.837  0.0193  0.2017  0.0213
16396W        W32205   8.502   1.442  14.213  0.1927  0.0810 -0.1903
16397W        W32206  15.312   4.845  12.809  0.1482 -0.0565  0.0880
16398W        W32207  11.531   5.600   3.361  0.2486  0.2570 -0.0614
16399W        W32208   4.827  17.130   1.553 -0.2819  0.2141  0.0616
16400W        W32209  12.932  15.465  12.199 -0.2095  0.0284  0.1795
16401W        W32210  10.140   7.097   4.824  0.6635 -0.1592  0.2258
16402W        W32211  15.116  11.181   2.220 -0.0189 -0.0137 -0.1022
16403W        W32212   9.114   6.825   3.930  0.0991 -0.0478 -0.2447
16404W        W32213  17.210   9.437   2.403  0.0828 -0.2912 -0.3456
16405W        W32214   2.383   1.707   0.294 -0.1124 -0.2752 -0.2495
16406W        W32215   7.270   1.183  10.798 -0.3428 -0.2423  0.1000
16407W        W32216   9.854   5.673   4.321 -0.1747 -0.0419  0.0708
16408W        W32217   6.655  17.210  14.133 -0.0445 -0.1248 -0.1778
16409W        W32218   6.622   2.860   4.783 -0.2188 -0.1218 -0.0485
16410W        W32219   3.336  13.348   4.913  0.1859  0.0005 -0.1384
16411W        W32220  16.346  11.332  14.614 -0.2331 -0.0721  0.2186
16412W        W32221   0.120  17.636   0.291 -0.2301  0.0032  0.3313
16413W        W32222  11.737   6.602  14.580  0.2401 -0.2769  0.2033
16414W        W32223   7.529   9.430  12.941 -0.0692  0.0805  0.1959
16415W        W32224  12.916  17.115   3.899  0.1625  0.1492  0.1920
16416W        W32225  15.388   7.895   1.077 -0.0141 -0.2798 -0.0793
16417W        W32226   3.460  10.002  10.324 -0.2426  0.2056 -0.2827
16418W        W32227  14.544   7.369   0.447 -0.2430  0.0981 -0.1287
16419W        W32228   9.244  10.004  12.663  0.0558 -0.1883 -0.0534
16420W        W32229   7.230   1.895   3.241  0.1231 -0.1370  0.1391
16421W        W32230   9.714  17.594   0.322  0.0237 -0.0357  0.0221
16422W        W32231   5.453   4.291   2.979 -0.1011  0.2733  0.1453
16423W        W32232   3.216  17.265  13.389  0.0393 -0.1188 -0.0859
16424W        W32233   5.117  15.857  13.642 -0.0798  0.1852  0.0785
16425W        W32234   0.968  10.078   0.642 -0.1645 -0.0723  0.0462
16426W        W32235  14.776   9.227   4.966 -0.1379  0.3245 -0.0227
16427W        W32236  12.940   1.222  11.391  0.2473 -0.1169  0.1211
16428W        W32237   5.724  14.917   3.902 -0.1187  0.0494 -0.0385
16429W        W32238  15.881   5.987  13.855 -0.2167 -0.2795 -0.2824
16430W        W32239   9.343  14.347   1.082  0.3113  0.2878 -0.2362
16431W        W32240  12.681   5.155  15.120  0.1932  0.1790  0.0352
16432W        W32241   5.291  18.980  10.016 -0.0015 -0.1632 -0.0963
16433W        W32242  10.841  14.785  11.473 -0.3505 -0.1864 -0.0727
16434W        W32243  15.454  18.009  15.093 -0.0404  0.0052 -0.1335
16435W        W32244   8.393   9.394   3.186 -0.3653 -0.1689  0.3808
16436W        W32245  12.868  10.169  12.107  0.1726 -0.2286 -0.1629
16437W        W32246   1.134  14.415  13.760 -0.1339  0.3725  0.3924
16438W        W32247   1.231  15.655   3.030  0.4454  0.1179  0.1578
16439W        W32248  10.857   4.788   3.724  0.1268 -0.0823  0.0797
16440W        W32249  16.292  17.472  12.875 -0.0324 -0.0597  0.0637
16441W        W32250  18.950  12.696   2.966  0.0085  0.1048  0.0930
16442W        W32251  14.404   9.384  13.725 -0.0246  0.0354 -0.0562
16443W        W32252   7.741  14.300  11.201 -0.3095 -0.0948 -0.1367
16444W        W32253  17.721  14.350   2.848 -0.0704  0.0795  0.1796
16445W        W32254  12.966   0.022  12.576  0.0722  0.1482  0.0262
16446W        W32255   8.542  15.188  10.830  0.0818  0.3691 -0.2247
16447W        W32256   9.897  13.174   1.124 -0.2389  0.0435 -0.0235
16448W        W32257  14.399  11.501  11.053  0.0429  0.0314  0.1077
16449W        W32258   2.246  15.057  12.561 -0.0922  0.1277  0.0130
16450W        W32259   1.883   0.276  10.945 -0.2254 -0.2269 -0.1732
16451W        W32260  15.661   2.157  11.028  0.1825 -0.0006 -0.0592
16452W        W32261   1.176  16.456   2.447 -0.3394 -0.0605  0.0386
16453W        W32262  18.707  10.030   4.587  0.3583 -0.4221  0.2483
16454W        W32263   1.601   3.860   3.903  0.4370  0.0056  0.3528
16455W        W32264   2.208  14.678  12.895 -0.0256  0.2826 -0.0123
16456W        W32265   1.823  12.969  12.815  0.0644 -0.1387 -0.1404
16457W        W32266  11.984  17.308   0.553 -0.1465 -0.0780  0.0184
16458W        W32267  10.917   0.063  11.375  0.2347 -0.0992 -0.1245
16459W        W32268   1.253  15.743   0.238  0.0706 -0.2276  0.1723
16460W        W32269  17.593   5.891   2.890  0.0010 -0.2553 -0.0196
16461W        W32270   8.232  16.654   9.569  0.0191  0.2162 -0.1015
16462W        W32271   6.035  10.498   1.304 -0.5067 -0.2122 -0.0895
16463W        W32272   5.341   8.879   3.499  0.3083 -0.0689  0.4469
16464W        W32273   0.178   7.306   3.018  0.2781 -0.0131 -0.3006
16465W        W32274   6.112   4.765  14.415 -0.2247  0.2433 -0.1368
16466W        W32275  14.991  16.579  14.183  0.2219  0.0747 -0.0159
16467W        W32276   2.501   8.519  14.443  0.2535  0.1802 -0.2379
16468W        W32277  17.157   7.934  13.098  0.1303 -0.2188 -0.1469
16469W        W32278  10.763   1.575   3.275 -0.0802 -0.1408  0.0675
16470W        W32279  11.510   4.786   0.716  0.2402 -0.1797  0.1094
16471W        W32280   5.812  15.870  10.550 -0.1294 -0.0543  0.1892
16472W        W32281   4.279  17.094  12.462  0.0889 -0.2198  0.0903
16473W        W32282   8.112  16.489   3.587 -0.1315  0.1503 -0.2153
16474W        W32283   6.551   4.320   2.904 -0.3895 -0.1252  0.0777
16475W        W32284   6.695  11.094  11.051  0.0072 -0.0043  0.0888
16476W        W32285   0.197   9.414   2.096 -0.1638  0.0142 -0.0584
16477W        W32286   9.744  14.372   0.691  0.2391 -0.2916 -0.0474
16478W        W32287  13.071   6.014  14.238 -0.0043 -0.1703  0.1402
16479W        W32288  11.200  13.704   9.350 -0.0978  0.0419 -0.3110
16480W        W32289  13.206  15.880   0.248  0.1106 -0.1844  0.3679
16481W        W32290   5.444   7.921  14.028 -0.3260  0.1674  0.1004
16482W        W32291   1.895  17.285   1.630  0.1639 -0.1221  0.2572
16483W        W32292   8.119   8.768   1.302  0.0201  0.1722  0.2910
16484W        W32293   9.261   3.427   9.481 -0.1941 -0.0626 -0.2399
16485W        W32294   6.431  15.730  13.717  0.2257 -0.1892  0.1551
16486W        W32295   1.618   3.823   1.598  0.1627 -0.0137 -0.0280
16487W        W32296  14.282  13.891  13.915  0.3414 -0.0905  0.3011
16488W        W32297   0.018  16.031   2.619 -0.1923  0.0655  0.1414
16489W        W32298  14.809  11.970   1.731  0.0006 -0.1858  0.0731
16490W        W32299   3.180  13.242  10.916 -0.0789 -0.1693  0.3094
16491W        W32300  12.864   4.422  11.250  0.4220 -0.2554  0.0109
16492W        W32301   3.237   1.433   1.262  0.1580 -0.4055  0.3195
16493W        W32302   1.700  18.236  12.583 -0.2234 -0.0688 -0.1029
16494W        W32303   6.769  15.898  10.394 -0.0288 -0.0151 -0.2875
16495W        W32304  18.137   5.317  12.163 -0.1304  0.1994  0.2146
16496W        W32305   5.022  10.246  10.709  0.4158  0.1148  0.2138
16497W        W32306  13.458   3.634  11.016 -0.5805 -0.2121 -0.1336
16498W        W32307   8.330   5.846   4.234 -0.0725 -0.2736 -0.3328
16499W        W32308   8.242  16.511  13.747 -0.4082  0.1493 -0.3992
16500W        W32309  14.561  16.115  13.329  0.2273 -0.0296  0.0502
16501W        W32310  15.257  11.506   3.920 -0.0584  0.2972 -0.1033
16502W        W32311   5.072   8.164  15.007 -0.0561  0.0061 -0.1020
16503W        W32312  17.641  13.204  12.609 -0.0461 -0.2381 -0.1828
16504W        W32313  15.744   2.673   0.250 -0.0921  0.0334  0.0834
16505W        W32314   6.295   1.805   3.278 -0.1659  0.1254 -0.1368
16506W        W32315   2.115   8.292  13.187  0.0936 -0.0031 -0.1731
16507W        W32316   1.079  13.682  10.972  0.1092  0.1954  0.1338
16508W        W32317   6.148   4.054  13.299  0.2490  0.0705  0.4147
16509W        W32318  14.511  17.591   2.507 -0.3360  0.1087  0.1602
16510W        W32319   8.160  16.285   3.144  0.1092 -0.2512 -0.0865
16511W        W32320   3.797  12.664   5.119 -0.1438  0.1705 -0.0820
16512W        W32321   0.790  17.878  13.240 -0.3369 -0.0960 -0.1145
16513W        W32322  11.209   7.486  14.060 -0.1971  0.0895  0.0025
16514W        W32323  18.208   2.713  14.099 -0.1941 -0.2386 -0.0633
16515W        W32324   1.111   5.279  14.150  0.0240  0.0551  0.0152
16516W        W32325   8.315   8.184   4.153  0.5782  0.0619 -0.1464
16517W        W32326   0.848   9.636  13.263 -0.2772  0.6189 -0.0097
16518W        W32327   3.932  17.572  10.380  0.0418 -0.1713  0.1169
16519W        W32328  17.663   9.073   2.484  0.0052  0.0744  0.0649
16520W        W32329   4.768   4.444  12.703 -0.1518 -0.0902 -0.0561
16521W        W32330  15.963  12.518   2.764  0.2246  0.0443  0.3866
16522W        W32331   1.767  13.141   0.730 -0.1524 -0.0380  0.0882
16523W        W32332  17.199  16.307   5.223  0.1513 -0.2655 -0.0875
16524W        W32333   5.215   1.339   0.319  0.0367  0.2223 -0.1925
16525W        W32334   5.338   3.323  14.353 -0.1678 -0.1601  0.0584
16526W        W32335  13.017   2.596  12.908 -0.3222 -0.2584 -0.1644
16527W        W32336   7.163   3.515  12.572 -0.2868  0.1115  0.0647
16528W        W32337  18.372   2.275   4.642 -0.1491 -0.2156 -0.3070
16529W        W32338   4.433   0.866  13.853  0.1322  0.1361 -0.3468
16530W        W32339   2.973  11.896   3.726  0.2043  0.0239  0.1568
16531W        W32340  14.457   7.421  13.595 -0.0617 -0.2846 -0.0194
16532W        W32341  10.326  16.743  12.525  0.0555  0.0388 -0.1621
16533W        W32342   6.571   1.550  15.017 -0.0555 -0.1107 -0.2858
16534W        W32343  16.652  17.892  13.067 -0.1752 -0.0025 -0.1957
16535W        W32344   7.066   8.660   0.940  0.0052  0.1729  0.1210
16536W        W32345   1.907   3.721   2.569  0.1217 -0.2985 -0.1356
16537W        W32346  10.474  17.164   3.262  0.0761 -0.3349  0.2724
16538W        W32347  11.301  15.026   3.951  0.0774 -0.1943  0.4204
16539W        W32348   1.765   1.884  12.794  0.0051  0.2144  0.2798
16540W        W32349  15.506  17.224   1.364  0.3861  0.1008  0.3343
16541W        W32350  10.256   5.367  14.224  0.2260 -0.2622 -0.2412
16542W        W32351   6.046  10.746  12.081  0.0247 -0.0770 -0.2342
16543W        W32352  16.066  11.280   2.719  0.2678 -0.1242  0.0464
16544W        W32353  11.845   7.123   0.618 -0.1110 -0.1489  0.1287
16545W        W32354  12.101  16.556  11.185 -0.3265  0.2097 -0.3033
16546W        W32355  17.855   4.499   1.091  0.1932  0.0638 -0.1383
16547W        W32356  17.382   0.034   0.303 -0.2853 -0.0930 -0.3273
16548W        W32357   7.109  15.303   5.025 -0.0799  0.2315  0.2172
16549W        W32358  14.241  17.864  10.914  0.2211 -0.2067 -0.1806
16550W        W32359   4.484   7.547   2.386 -0.0157  0.0750  0.2481
16551W        W32360  17.923  10.595  11.475  0.0602  0.2955 -0.0014
16552W        W32361  14.172   2.202  10.695  0.0765  0.0842 -0.0015
16553W        W32362   0.168   5.090  11.295 -0.0088 -0.2677 -0.0667
16554W        W32363   2.534   6.626  12.284 -0.0109  0.4221 -0.2052
16555W        W32364   6.582  13.605   0.515  0.3307  0.3594 -0.0686
16556W        W32365   6.439   8.962  11.780 -0.1591  0.1866  0.4464
16557W        W32366   9.382   9.657  12.296 -0.2115 -0.3355  0.0875
16558W        W32367   2.318  13.306   4.320  0.3062  0.1085  0.2317
16559W        W32368  16.602   9.912  10.093 -0.4298  0.1026 -0.2330
16560W        W32369  18.033  11.996   5.666 -0.2608  0.1803  0.0252
16561W        W32370  17.970   3.770  11.592 -0.4750  0.1131 -0.0870
16562W        W32371  13.593   2.043  11.697  0.0574  0.0199 -0.0122
16563W        W32372  14.580   0.898  13.788  0.3904  0.1022  0.0311
16564W        W32373   3.227   7.613  10.680 -0.0495 -0.2961  0.0297
16565W        W32374  18.794  10.912   1.944  0.0510  0.1625 -0.2999
16566W        W32375  13.710   3.054  14.137 -0.2866 -0.0843  0.2616
16567W        W32376  14.928  12.191  12.428  0.3139  0.1474  0.0129
16568W        W32377   0.488   1.828   4.092 -0.1386  0.2018 -0.0728
16569W        W32378  11.519  17.847   0.244 -0.2601  0.0762  0.2829
16570W        W32379   7.151   7.539  13.181  0.4160 -0.0846 -0.3015
16571W        W32380  18.300   3.102  11.033 -0.0208  0.1331 -0.0246
16572W        W32381  18.791   4.795   5.730 -0.0054 -0.1713 -0.3180
16573W        W32382   2.104   9.472   3.710  0.1569 -0.1473 -0.2945
16574W        W32383  10.329   9.182   3.080  0.0598  0.1413  0.0241
16575W        W32384  11.830  16.816  11.515 -0.0287  0.0777  0.3577
16576W        W32385   8.346   7.767  14.596 -0.0160 -0.4193 -0.0328
16577W        W32386   7.830  11.176   1.559 -0.0576  0.2589 -0.1222
16578W        W32387  11.633   6.754   2.101  0.0223  0.0635  0.0278
16579W        W32388   0.677  16.253  15.215  0.1734  0.0107  0.1681
16580W        W32389   1.600   7.274  13.090  0.1732 -0.3874 -0.0109
16581W        W32390   6.684  10.142  14.402 -0.2239 -0.0936  0.3028
16582W        W32391   0.349   5.743   3.050  0.0715 -0.2439  0.2880
16583W        W32392   5.593   6.255   1.512 -0.2486 -0.2071  0.0817
16584W        W32393  10.367  17.144   4.265  0.3525 -0.1134  0.1077
16585W        W32394  12.755   0.452  12.669 -0.0831  0.0628 -0.3568
16586W        W32395  16.946  18.535  12.298 -0.0540  0.1680 -0.1371
16587W        W32396   5.892   2.952   5.342  0.3015 -0.2573  0.0224
16588W        W32397  12.447  15.947   1.884  0.3603 -0.1850 -0.0734
16589W        W32398  11.466  13.108  14.957  0.0532  0.0563 -0.0214
16590W        W32399   9.602  13.003  14.936  0.0407 -0.1771 -0.2397
16591W        W32400  12.690   2.423   2.425  0.1498  0.2210  0.0620
16592W        W32401   9.228   4.186  11.919  0.0547  0.2987  0.0889
16593W        W32402  10.537   0.057  14.449 -0.1758  0.0260 -0.0900
16594W        W32403   6.885   4.731  12.473  0.2081 -0.0009  0.0996
16595W        W32404   0.743   2.446   3.274  0.2128  0.0837  0.1695
16596W        W32405   7.616  12.545  13.024  0.0422  0.4371 -0.3082
16597W        W32406   2.030   7.263  12.818  0.1848 -0.4011  0.0330
16598W        W32407   5.705  12.984  11.231  0.3268 -0.4071  0.1525
16599W        W32408   5.479   5.010  13.135  0.0741 -0.2941  0.3934
16600W        W32409  17.555  18.471  11.342 -0.2720  0.0484  0.2560
16601W        W32410  15.695  18.725  14.713 -0.1060 -0.1108 -0.0495
16602W        W32411  11.294   8.688   0.163  0.0836 -0.0068  0.3227
16603W        W32412  10.732  15.029   3.863 -0.3133  0.0969 -0.3206
16604W        W32413  14.616   4.385   3.631 -0.0961  0.0986 -0.1300
16605W        W32414  17.020  18.513   0.439 -0.1768  0.0121 -0.0089
16606W        W32415  10.041   8.282   3.387  0.0702 -0.1624 -0.3389
16607W        W32416  11.451   6.147  11.660 -0.1241  0.1999 -0.0096
16608W        W32417  15.915  18.283  14.859  0.0736 -0.1188 -0.0980
16609W        W32418  13.118   0.158   0.288  0.1845  0.1134 -0.3101
16610W        W32419   0.654   2.888   3.531  0.0035 -0.0933  0.1851
16611W        W32420  15.061  12.067  11.541 -0.3740 -0.3178 -0.2131
16612W        W32421  13.187   7.539   2.714 -0.1927  0.0257  0.2306
16613W        W32422   2.876   2.274   1.344 -0.0713  0.1047 -0.0334
16614W        W32423   0.179  16.548  12.905 -0.2028 -0.2033  0.1347
16615W        W32424   4.411   2.410  14.282  0.0128  0.0368 -0.1195
16616W        W32425   4.073   9.790   0.656  0.1135  0.2020 -0.0427
16617W        W32426   1.301  15.666   3.950  0.1926 -0.0206 -0.0264
16618W        W32427  16.138  16.580  11.456 -0.2508 -0.2317  0.0430
16619W        W32428  17.205  10.295   2.140 -0.1580 -0.1377  0.1109
16620W        W32429   6.005  11.028   1.290  0.2514  0.2345  0.1538
16621W        W32430  16.040   9.007   9.921 -0.1617 -0.1097  0.1103
16622W        W32431  16.855   0.330  14.221 -0.1653 -0.1248  0.0498
16623W        W32432  16.360   8.121   3.338 -0.0223  0.0213  0.3641
16624W        W32433   4.298  15.619  12.714  0.0507  0.1334 -0.1916
16625W        W32434   4.167   9.557   1.135  0.0241 -0.1258 -0.1312
16626W        W32435  13.144   6.877   2.097 -0.0884  0.0481  0.1818
16627W        W32436  15.759   6.800   3.575 -0.0815  0.0891 -0.0543
16628W        W32437   0.213  16.310   3.636  0.1580  0.1060  0.0229
16629W        W32438  18.649  17.516   1.305  0.1753 -0.4523  0.2384
16630W        W32439  18.030   0.843   0.903 -0.0345 -0.2358  0.1454
16631W        W32440   7.370  12.772   2.832 -0.2132  0.1584  0.1714
16632W        W32441  11.430  13.585  14.775  0.0569 -0.2278  0.1049
16633W        W32442   8.470   9.944  10.315 -0.0684 -0.1892 -0.1286
16634W        W32443   0.887   7.306   1.074 -0.2876  0.0394  0.1317
16635W        W32444   4.135   5.606   0.081  0.1117  0.1273 -0.0083
16636W        W32445  12.922   4.326   5.565 -0.4058  0.2892  0.0877
16637W        W32446   7.391   1.022   2.391  0.2976 -0.2790 -0.0353
16638W        W32447  10.309   0.082  12.718 -0.1509 -0.1538  0.0922
16639W        W32448  18.390   8.811  10.408 -0.0177 -0.1001  0.1086
16640W        W32449  16.227  10.690   2.063 -0.1015  0.0773  0.3822
16641W        W32450  16.490   4.859   0.810 -0.1451 -0.1326 -0.1020
16642W        W32451  10.867  16.867   1.323  0.2220  0.0351 -0.2400
16643W        W32452  12.992   5.926   3.498  0.1610 -0.0554 -0.0390
16644W        W32453  10.316   5.969   4.647 -0.2632 -0.1640  0.1379
16645W        W32454   6.031   4.593   1.181 -0.2918  0.0395  0.1129
16646W        W32455   4.794  17.213   1.014  0.0803 -0.2638 -0.2259
16647W        W32456  10.781   2.354   5.782  0.0837 -0.0596  0.1659
16648W        W32457   1.609  10.322   5.033  0.1857  0.0118 -0.0259
16649W        W32458   2.953  13.003   5.797  0.0690  0.1717  0.0868
16650W        W32459  10.361   7.295  10.486 -0.0865  0.2290  0.0154
16651W        W32460  15.672   5.971  14.865 -0.2247 -0.2098 -0.0055
16652W        W32461  11.365  13.388   0.736  0.0153  0.1730  0.0240
16653W        W32462   3.166   9.539   4.595 -0.0665  0.2081  0.2971
16654W        W32463  16.624  14.024   2.142  0.0475 -0.2336  0.3163
16655W        W32464   0.986   2.177   4.116  0.0659 -0.3463  0.0098
16656W        W32465  15.764   7.718   1.433 -0.3393 -0.1647 -0.3579
16657W        W32466  10.697  15.017  12.689  0.0014 -0.0063  0.1381
16658W        W32467   3.012   8.007  13.470 -0.2469 -0.0321  0.2078
16659W        W32468   2.986  10.135   2.319  0.1320 -0.1360  0.2903
16660W        W32469   1.388   3.465  13.116 -0.1449 -0.0605 -0.0230
16661W        W32470   8.930  15.431  10.622 -0.0041  0.0234 -0.2254
16662W        W32471  15.426  16.630  13.919  0.0924  0.1740  0.2571
16663W        W32472  17.275  17.880  11.898 -0.2465 -0.0451  0.0118
16664W        W32473  10.220   0.020   5.366  0.1370  0.2796  0.1365
16665W        W32474   8.400   2.574  11.539 -0.0544 -0.1704 -0.0466
16666W        W32475  14.199  18.105  11.691  0.5936  0.0664  0.0470
16667W        W32476  18.649   6.187   2.940  0.0581  0.0562  0.2970
16668W        W32477   3.227  17.493   0.311  0.4163  0.0042 -0.1187
16669W        W32478   5.699   2.218  13.033  0.2858 -0.4249 -0.1020
16670W        W32479  10.841   1.068  14.049  0.1518 -0.0349  0.1725
16671W        W32480  15.863   6.317   3.436  0.0984 -0.4779  0.1235
16672W        W32481  15.723  10.903  11.662  0.3726 -0.2062 -0.2066
16673W        W32482  13.005   6.954   1.278 -0.0429 -0.0208  0.0510
16674W        W32483   0.089   3.613  14.203  0.1254 -0.1156 -0.0617
16675W        W32484   9.380  10.691  13.271  0.1076  0.1511  0.1086
16676W        W32485  10.202  13.639  10.536 -0.1585  0.1792 -0.4005
16677W        W32486  15.675  13.362   9.737  0.0079 -0.1230  0.2634
16678W        W32487  15.433  11.707   2.576 -0.4738 -0.1537 -0.1006
16679W        W32488  10.066  15.310   9.402  0.1330  0.2890  0.0107
16680W        W32489   0.892   5.977   4.269 -0.1917 -0.0227  0.1180
16681W        W32490   8.946   0.928  12.196  0.1185  0.0416  0.0137
16682W        W32491   1.919  14.702   1.812  0.1641 -0.1584  0.1306
16683W        W32492  16.483  18.795   3.225  0.0114  0.2228  0.3142
16684W        W32493  15.595  14.478   2.069  0.1178 -0.2365  0.2437
16685W        W32494  13.322   9.378   4.671  0.2232 -0.0619  0.0405
16686W        W32495   2.343   1.554   2.907 -0.0309  0.0906  0.3089
16687W        W32496   2.477   7.110   3.424  0.2491 -0.0332 -0.4744
16688W        W32497   8.264  11.643  12.858 -0.4885 -0.1314  0.2199
16689W        W32498   3.341  10.397  11.623 -0.0046 -0.1687  0.0248
16690W        W32499   6.376  14.982   0.815  0.2205 -0.2818  0.5345
16691W        W32500   7.427   5.092   1.728  0.2090 -0.1388 -0.1727
16692W        W32501  16.680   5.435   2.011 -0.2057 -0.3780 -0.0798
16693W        W32502   4.298  18.683   1.851  0.1016  0.1884  0.3115
16694W        W32503   6.967  18.140   2.810  0.2398  0.2459 -0.0292
16695W        W32504   6.394  14.183   9.006  0.1172 -0.0798 -0.3116
16696W        W32505  13.433   2.130   4.097 -0.2422  0.1754 -0.0925
16697W        W32506  16.536   1.528   1.774 -0.1988  0.0298  0.1495
16698W        W32507   1.118   3.084   2.754  0.1372  0.0031 -0.1478
16699W        W32508   7.950  10.311   4.126  0.0538  0.2529 -0.5032
16700W        W32509   3.795   2.852   5.241  0.1928 -0.1908  0.2158
16701W        W32510  16.376  12.707  11.154 -0.0122  0.0239  0.1410
16702W        W32511   1.177  11.726  12.520  0.0935 -0.3500  0.1287
16703W        W32512  17.856   3.822   5.598  0.2854 -0.1981  0.2899
16704W        W32513   2.525   0.568   2.612  0.0484  0.0254 -0.2250
16705W        W32514  10.504  15.732   0.118 -0.2249 -0.1349  0.3426
16706W        W32515   0.094   5.434  10.680  0.1174  0.1761  0.2376
16707W        W32516   8.527  12.059  12.650 -0.1204  0.1431 -0.1231
16708W        W32517  17.737   0.692   4.764 -0.0824 -0.0059 -0.2909
16709W        W32518   5.633  16.206  13.502  0.0270  0.1674 -0.2940
16710W        W32519   8.394   6.037  11.878 -0.4606 -0.2398  0.2590
16711W        W32520  18.735   1.449  10.886 -0.5188 -0.1860 -0.3246
16712W        W32521  10.104  11.251  11.698 -0.0610 -0.5966 -0.1139
16713W        W32522   4.832  16.401  12.107 -0.0862 -0.1269 -0.3316
16714W        W32523   8.901   9.211   5.158 -0.0985  0.0512 -0.2067
16715W        W32524   5.803  18.472  12.419  0.0946  0.0626 -0.0935
16716W        W32525  17.715  13.728   4.809 -0.1624 -0.1864  0.0723
16717W        W32526  10.801   5.738   2.246 -0.0335 -0.0812 -0.0108
16718W        W32527   1.045   7.362  12.947  0.2215 -0.0085  0.2248
16719W        W32528   5.684   6.936   0.431  0.1788 -0.0009  0.4753
16720W        W32529   8.226  14.414   3.217 -0.2309 -0.2540  0.1075
16721W        W32530   2.457   2.695  13.894 -0.5727  0.0847  0.1236
16722W        W32531  17.238   0.164   3.145 -0.1143 -0.0664 -0.0537
16723W        W32532   4.716  12.648   1.237  0.0988 -0.3562  0.0460
16724W        W32533   1.150   2.997   1.356  0.0560 -0.1066  0.1276
16725W        W32534   7.218   5.992   2.502 -0.2090 -0.0147 -0.0985
16726W        W32535   4.170  18.053  13.736 -0.2336 -0.0758 -0.1582
16727W        W32536  13.727   1.754  14.138  0.2185  0.1675  0.1479
16728W        W32537   4.047  11.914   2.183  0.2890  0.1059  0.0299
16729W        W32538   3.391   8.925   1.788 -0.1739 -0.0809 -0.2089
16730W        W32539   5.422   7.418  11.275  0.0324 -0.1488 -0.1747
16731W        W32540   2.073   2.597   3.024  0.0073 -0.0618 -0.4582
16732W        W32541  12.806   4.001  14.722  0.2665 -0.0602 -0.1112
16733W        W32542   6.373   4.843   3.675 -0.4824 -0.0534  0.0061
16734W        W32543  10.627   9.033  13.059  0.0007  0.1785  0.2282
16735W        W32544  17.986  14.230  14.148 -0.1918  0.2686  0.0085
16736W        W32545  14.775   2.157   4.279 -0.1402 -0.3116 -0.0438
16737W        W32546  18.590   2.674   5.468 -0.0352 -0.0186 -0.0535
16738W        W32547  10.640  16.132  14.712 -0.1407  0.1512  0.0069
16739W        W32548   3.017   9.600   2.315  0.0614 -0.1691 -0.1178
16740W        W32549   2.385  16.845  10.968 -0.0888  0.0376 -0.0392
16741W        W32550  12.400   3.843  10.049 -0.4109 -0.0567 -0.1507
16742W        W32551  17.049  13.716   5.887 -0.1816  0.1749  0.3749
16743W        W32552   5.381   4.659  14.299  0.2187  0.0224  0.0208
16744W        W32553  15.880   3.758  12.017 -0.0101  0.0816  0.1257
16745W        W32554  17.069   6.877  12.217  0.0956 -0.1426 -0.3689
16746W        W32555   6.100   8.308  13.147 -0.0724 -0.1045  0.3118
16747W        W32556   3.200  16.551   1.042  0.0924  0.1233  0.1668
16748W        W32557   0.409   6.073  11.160 -0.2126  0.1843  0.2919
16749W        W32558   6.476  14.107   1.819 -0.0410  0.0496  0.1755
16750W        W32559  18.893  15.489   0.883 -0.0663  0.0049  0.1450
16751W        W32560  17.335   4.825   1.847 -0.0543  0.4137  0.0033
16752W        W32561   5.471  10.954  14.054  0.0946  0.3019  0.0843
16753W        W32562  17.831  17.099   5.945  0.3183  0.0027  0.0944
16754W        W32563   1.425  12.387   0.576  0.1090 -0.0770 -0.3468
16755W        W32564   9.199  16.228   4.084 -0.4505 -0.0158  0.3551
16756W        W32565  18.537   7.287  14.985 -0.0309 -0.1098  0.1008
16757W        W32566   0.016   3.046   5.615 -0.2923 -0.5248  0.1260
16758W        W32567   3.193   0.402  12.880 -0.2533  0.0256  0.1879
16759W        W32568  17.004   9.929   1.676  0.0187  0.2465 -0.0928
16760W        W32569   4.687   2.471   3.895  0.1035 -0.0712 -0.2246
16761W        W32570   3.514  16.171  10.632  0.1181  0.0240 -0.1433
16762W        W32571   2.204   0.940  14.276  0.0011  0.2679 -0.0045
16763W        W32572   4.239  11.207   4.347  0.2140  0.2199  0.0430
16764W        W32573   4.215   9.501   2.936 -0.0606 -0.0095 -0.1381
16765W        W32574  17.842  16.916   4.513 -0.1988  0.0067  0.0556
16766W        W32575  11.398   7.509  12.712  0.0300 -0.1924 -0.0563
16767W        W32576   8.937   1.400  13.012 -0.2026 -0.0200 -0.1665
16768W        W32577   4.380   5.921  11.475 -0.1977  0.1267 -0.0562
16769W        W32578   7.299  10.676  10.238  0.1142  0.1593  0.0296
16770W        W32579   6.421   6.615   1.916  0.1990  0.0844 -0.0140
16771W        W32580   1.826  18.329  11.741  0.2693 -0.0115  0.0396
16772W        W32581  14.069  17.612   1.796  0.1221  0.1692 -0.0282
16773W        W32582   0.692  16.776  12.845  0.0558  0.1409 -0.2644
16774W        W32583   6.948   9.442   3.181 -0.1260 -0.1931  0.0547
16775W        W32584  18.235   3.026  12.214  0.2529 -0.2342  0.1243
16776W        W32585  14.867   3.848   4.317 -0.0611  0.0398  0.2130
16777W        W32586   0.511   0.258   3.931 -0.1604  0.1160  0.1141
16778W        W32587  10.196   9.934   2.375 -0.1279 -0.0858 -0.1922
16779W        W32588   5.542   1.286   3.902  0.3519  0.0260  0.1962
16780W        W32589   5.974   4.875  12.524 -0.0632 -0.1479 -0.0088
16781W        W32590   5.586  10.262   2.624  0.0813 -0.4087 -0.0643
16782W        W32591   9.556   7.153   1.593  0.0058 -0.0042  0.1350
16783W        W32592  10.773   9.646  14.482 -0.1412 -0.0582 -0.1893
16784W        W32593   0.960   3.933  13.899 -0.0898  0.0992 -0.1608
16785W        W32594  13.588  16.526  11.310 -0.0627 -0.1107 -0.1913
16786W        W32595  12.222  18.710   3.529  0.2418  0.0711  0.0671
16787W        W32596   1.945  18.090  10.027 -0.1125 -0.1379 -0.1382
16788W        W32597   3.191   4.717   0.328  0.2310  0.0465  0.2224
16789W        W32598   2.258   3.380  11.807 -0.3341 -0.0256  0.0069
16790W        W32599  18.588   7.573   3.747 -0.0766 -0.0341 -0.2065
16791W        W32600   7.245  18.015  11.390  0.1674 -0.2582 -0.2469
16792W        W32601   8.910   0.630  14.086 -0.0694  0.1754  0.0312
16793W        W32602   5.440   8.755   0.497 -0.2757  0.1716 -0.1513
16794W        W32603  11.203  15.723   9.568 -0.0062 -0.2244 -0.0916
16795W        W32604   6.072  11.133  12.580  0.0831 -0.1008 -0.0091
16796W        W32605  11.912   6.347  12.070  0.3379 -0.1334 -0.0410
16797W        W32606  18.077  18.991  12.985 -0.5909 -0.0783  0.2699
16798W        W32607   0.576  15.078  11.390  0.4145 -0.0756  0.1096
16799W        W32608   3.435  15.016   0.135  0.2076 -0.3809  0.5210
16800W        W32609  18.378  17.315  13.656  0.3150  0.1543  0.0889
16801W        W32610   0.537   9.211   1.768 -0.0417  0.0618 -0.1423
16802W        W32611  11.247   1.928  12.338 -0.1563  0.2307  0.1887
16803W        W32612   8.228  16.146   3.967  0.0765 -0.2879 -0.1086
16804W        W32613   5.606  13.902  11.571  0.1863 -0.0542  0.1912
16805W        W32614  11.212  16.352  11.713 -0.3749 -0.0258  0.0184
16806W        W32615  18.001   1.010  13.804  0.1647  0.0393 -0.1585
16807W        W32616  18.751   6.762   5.663  0.0115 -0.4225  0.1672
16808W        W32617   2.741  13.097  11.761 -0.1374  0.0192  0.1993
16809W        W32618  12.453   4.879  11.716  0.2197 -0.1737  0.0839
16810W        W32619  13.839   2.435   3.002 -0.3569 -0.3828  0.4920
16811W        W32620   5.053  16.731   1.690 -0.2962  0.0164  0.1306
16812W        W32621   7.349  15.437   4.080 -0.1916 -0.1501  0.3611
16813W        W32622  17.877   7.022   3.039 -0.2843  0.1966  0.0507
16814W        W32623   6.319   9.651   3.363 -0.0807  0.0146  0.2754
16815W        W32624  13.457  12.441   3.955  0.0716  0.0224  0.0385
16816W        W32625   1.361  18.170  11.568  0.0168  0.1836 -0.1081
16817W        W32626  14.181  14.961  14.962  0.2234 -0.1071  0.1272
16818W        W32627  11.143  15.663  12.314 -0.0946 -0.1963  0.2023
16819W        W32628   7.812  10.627   4.990 -0.0592  0.0651 -0.0014
16820W        W32629   7.101  15.973  14.566 -0.0519  0.0584 -0.0242
16821W        W32630   7.704  16.629  10.962 -0.0998 -0.0624  0.1216
16822W        W32631  11.482   0.858   2.061  0.0116 -0.0289  0.1603
16823W        W32632   1.946  18.785   1.430  0.3732  0.0900 -0.3179
16824W        W32633   1.088  16.258   1.417 -0.3622 -0.0401 -0.0429
16825W        W32634  16.757   7.263  14.463  0.1995 -0.1774  0.4325
16826W        W32635   4.246   1.698   3.335  0.0318 -0.0570  0.1471
16827W        W32636  12.096  15.906   4.325  0.2025 -0.1080 -0.2815
16828W        W32637  15.774  14.091   0.711 -0.2420 -0.0910 -0.0421
16829W        W32638  18.035  17.014   2.399 -0.3309 -0.0067  0.1214
16830W        W32639   1.084  16.586   0.941 -0.1350  0.2728 -0.0114
16831W        W32640  14.771   6.240  11.292 -0.4008 -0.0219  0.2252
16832W        W32641   8.556  15.306   2.953 -0.0274 -0.0319 -0.1449
16833W        W32642   6.316   3.217   3.944  0.0528 -0.0843 -0.1521
16834W        W32643  17.317   1.081  15.223  0.3381 -0.2096  0.2266
16835W        W32644  17.677  16.148  14.325  0.1031  0.2125 -0.3662
16836W        W32645  10.583   4.259   0.883  0.0046 -0.1862  0.2461
16837W        W32646  11.541   8.366  14.401  0.0318  0.0373 -0.0526
16838W        W32647   1.053   0.526  14.165  0.1541 -0.1308 -0.1292
16839W        W32648   2.100  10.985  11.420  0.0019  0.2461  0.0439
16840W        W32649   4.015   0.864   0.771 -0.1009 -0.0015 -0.0648
16841W        W32650  17.277   6.883   5.302  0.0621 -0.0465 -0.3399
16842W        W32651  13.744  17.760   2.529 -0.2036 -0.0278  0.0343
16843W        W32652   5.211  16.893  11.229  0.1672 -0.1445 -0.0618
16844W        W32653  10.396   6.936   1.878 -0.0010 -0.1010 -0.0059
16845W        W32654  12.350   9.635   2.614 -0.3412 -0.0663 -0.1539
16846W        W32655   2.926   7.515   4.206  0.2668  0.1134 -0.0486
16847W        W32656   6.365  12.336  10.386 -0.1926  0.0297  0.0363
16848W        W32657   0.734  15.008   2.031  0.0367 -0.3796  0.1910
16849W        W32658   7.173  16.350   1.100 -0.2264 -0.0228 -0.2858
16850W        W32659   2.191  13.512   1.499 -0.0408  0.2819  0.0103
16851W        W32660   1.606  15.875   5.264 -0.1093 -0.1208 -0.1065
16852W        W32661   8.353  15.024   2.220  0.0536 -0.1073 -0.2658
16853W        W32662   0.012  14.442   6.230 -0.0217  0.0246 -0.0292
16854W        W32663   5.476   6.392   9.902 -0.2069  0.0639  0.3094
16855W        W32664   6.457   1.881   9.983 -0.1343  0.0265 -0.0572
16856W        W32665  11.432  15.955   3.281 -0.1990  0.0592 -0.1193
16857W        W32666   3.934   5.530  14.887  0.0202 -0.0323  0.0155
16858W        W32667   0.156  13.739  14.308 -0.1130  0.2664  0.2438
16859W        W32668   0.494   2.976   3.022 -0.1067  0.2736 -0.5064
16860W        W32669   9.112   1.412  13.551 -0.1112 -0.0223  0.0273
16861W        W32670   9.300  16.420   2.773  0.0286 -0.0386 -0.0616
16862W        W32671   5.442   4.722   4.693 -0.2874 -0.1459 -0.1237
16863W        W32672   4.044  17.495  12.231 -0.1780 -0.0616 -0.1284
16864W        W32673   8.161   8.193  10.968 -0.0848 -0.0496  0.1037
16865W        W32674   3.234  17.363   4.799 -0.0369 -0.0066  0.2205
16866W        W32675   4.029   4.547   1.223  0.1190 -0.0983 -0.0311
16867W        W32676  10.142   6.687  11.828  0.3492  0.1859  0.0877
16868W        W32677  17.379  14.673  14.447 -0.0022  0.0553  0.1476
16869W        W32678   8.539   6.077   3.707  0.0160  0.0704 -0.0768
16870W        W32679   3.341  11.046   1.619  0.0653 -0.2089 -0.2296
16871W        W32680   0.371   9.060  11.345  0.0359  0.1140 -0.3704
16872W        W32681  16.450   4.769   2.407 -0.0572 -0.1219 -0.0490
16873W        W32682   7.151   6.463   1.278  0.2839 -0.3289 -0.0824
16874W        W32683  12.378   2.246   0.460 -0.0074  0.3047 -0.1105
16875W        W32684   8.539  18.983   2.821  0.2451 -0.2347  0.1043
16876W        W32685   3.588  15.714   0.559 -0.0941  0.1557  0.1812
16877W        W32686  11.513  12.801   4.304 -0.1047 -0.0211 -0.0463
16878W        W32687   8.199   7.442  13.154 -0.2622 -0.0862 -0.3957
16879W        W32688   6.233   2.746   2.210  0.0248  0.0258  0.0552
16880W        W32689  18.306  16.528  13.040 -0.1832 -0.0282  0.0194
16881W        W32690   9.719   8.344   3.823 -0.1935 -0.2218 -0.1300
16882W        W32691   2.814   7.886  14.880  0.2992  0.1039 -0.1527
16883W        W32692   3.934  18.276  10.600  0.0527 -0.0287 -0.1303
16884W        W32693  12.204   7.497   2.281 -0.1406  0.2999  0.1225
16885W        W32694   1.066  13.680  14.723  0.0341 -0.2868 -0.2288
16886W        W32695   7.219  17.117  10.946 -0.2090  0.1009 -0.0399
16887W        W32696  18.312   3.381   2.043 -0.5267  0.0836 -0.2164
16888W        W32697   8.764  17.424  10.607 -0.3900  0.0309 -0.2181
16889W        W32698   0.091  15.780   3.478 -0.1509  0.2396  0.4781
16890W        W32699  13.684  14.525  12.920 -0.0719  0.0067  0.2999
16891W        W32700   7.333  10.180   0.795  0.1412 -0.1329  0.2119
16892W        W32701  14.985   0.157   4.311  0.1072 -0.1365 -0.0142
16893W        W32702   6.893  10.016  12.079  0.2103 -0.0737 -0.0315
16894W        W32703   4.257  10.796   0.905  0.0439  0.2888 -0.0646
16895W        W32704   7.935   8.571   9.216  0.0697  0.1787  0.1266
16896W        W32705   3.170   4.895   1.098  0.0967 -0.0170 -0.0761
16897W        W32706   4.499  10.512   3.218 -0.1761 -0.1257 -0.3536
16898W        W32707  10.872  10.792   5.467 -0.1211  0.1261 -0.1676
16899W        W32708   5.956   6.200  11.320  0.1106  0.0216  0.1623
16900W        W32709   6.715  14.773  13.671 -0.2241 -0.1634 -0.0032
16901W        W32710  14.619  17.120   4.450 -0.0819 -0.1120 -0.1306
16902W        W32711   6.518  11.032  14.313  0.4516  0.0220 -0.0280
16903W        W32712   6.185  15.414  13.374 -0.1379 -0.0226  0.1109
16904W        W32713  17.436   7.553  11.670  0.0442  0.3901 -0.2975
16905W        W32714  10.611  12.909  11.310  0.3439  0.1146  0.1644
16906W        W32715  17.907  14.968   1.560  0.0165  0.1797  0.0738
16907W        W32716   9.121   3.849  14.309  0.0695  0.3110  0.0172
16908W        W32717  10.056  10.435   4.397  0.0813 -0.1568 -0.0509
16909W        W32718   0.822   3.658  10.040  0.0496  0.0193 -0.0221
16910W        W32719  13.433   5.762   3.389  0.0083  0.0127  0.3195
16911W        W32720   1.621  17.907  15.266 -0.2631 -0.3052  0.0190
16912W        W32721   7.558  10.693  14.259 -0.0692 -0.0283 -0.0679
16913W        W32722   2.144  10.580  12.012 -0.0875  0.2150 -0.0794
16914W        W32723  12.191   3.102   0.757 -0.0824 -0.1508  0.1686
16915W        W32724   0.962  16.995  14.602  0.1715 -0.0299  0.2238
16916W        W32725   4.844  12.958   3.964  0.1820  0.2356 -0.2630
16917W        W32726  14.881  15.933  14.543  0.1462  0.0856  0.0690
16918W        W32727   4.604  13.635  12.503  0.1320 -0.0869  0.1419
16919W        W32728  17.090   0.377  11.078  0.0408  0.0583  0.2328
16920W        W32729  12.057   4.156   1.257  0.1382 -0.2954 -0.1893
16921W        W32730  15.898  18.922   0.119  0.1607  0.1219  0.0611
16922W        W32731   4.704   1.999   3.653  0.0924  0.2048  0.0266
16923W        W32732  10.151  11.903  15.114 -0.0412 -0.0811 -0.1854
16924W        W32733   8.719   6.961   0.088 -0.1594 -0.1053  0.0832
16925W        W32734   8.178   2.411  15.055  0.2970  0.3025  0.2971
16926W        W32735   6.332   2.792   3.594  0.2522  0.4267 -0.0740
16927W        W32736   9.965   5.625   0.515 -0.0450  0.0823  0.0725
16928W        W32737   7.067   7.713  12.217 -0.0163  0.2772 -0.0438
16929W        W32738   9.884  10.259  10.952  0.1858 -0.0151 -0.1315
16930W        W32739  18.210   4.993   0.172  0.0994 -0.3186  0.2014
16931W        W32740   0.474   6.616  14.057 -0.3300 -0.4237  0.3102
16932W        W32741   5.283  18.095  11.645 -0.4081 -0.0460  0.1976
16933W        W32742  14.147  15.730   3.927 -0.2732  0.0575 -0.0378
16934W        W32743   1.482   1.575   3.872  0.0169  0.1841  0.2414
16935W        W32744   2.659   0.523   5.406 -0.0082  0.0795  0.2494
16936W        W32745   8.259  14.335  10.663 -0.1576 -0.0171  0.1455
16937W        W32746   5.786   5.617   1.666  0.1009 -0.0922  0.0796
16938W        W32747  12.686   9.524  10.794 -0.1200 -0.0578  0.2732
16939W        W32748   5.619  10.048  11.350  0.0969 -0.3498 -0.2220
16940W        W32749  15.090  11.221  13.608  0.4188 -0.0897 -0.1723
16941W        W32750   8.827   4.089   0.869  0.1269  0.1364  0.1758
16942W        W32751  11.786  10.006   3.205  0.1174  0.1639 -0.2026
16943W        W32752   5.037   1.241   4.200 -0.1612 -0.1216 -0.2487
16944W        W32753  14.026   9.170   3.944  0.1356  0.0734  0.1205
16945W        W32754   5.718   2.880  14.988 -0.3014 -0.1389 -0.2517
16946W        W32755  10.972  15.227   9.654  0.3842 -0.1550  0.3370
16947W        W32756   6.654   0.406  14.659  0.0325  0.0377 -0.2366
16948W        W32757  17.312   5.830   0.690 -0.1643  0.1948  0.0973
16949W        W32758  16.444  12.851  11.640 -0.2312  0.1200 -0.0564
16950W        W32759   9.345   9.280   9.433  0.1354 -0.3500  0.2422
16951W        W32760  14.016  18.452   3.489 -0.1189  0.1018 -0.0133
16952W        W32761  14.562  18.952   2.380  0.1239  0.2734  0.4859
16953W        W32762  15.257   6.769   4.115 -0.0023 -0.1580  0.1053
16954W        W32763  13.475   9.684  15.265  0.0650  0.0652  0.0155
16955W        W32764  17.794   2.273   4.744 -0.0558 -0.1870 -0.0966
16956W        W32765   2.593   0.148  12.824 -0.0064 -0.1122 -0.3091
16957W        W32766   4.407  16.606  11.976  0.1819  0.1138  0.0275
16958W        W32767   5.709   4.630  13.918 -0.4268  0.1799 -0.0198
16959W        W32768  17.178   6.656  12.635 -0.0973  0.1966  0.1687
16960W        W32769   6.011   5.435  13.991  0.0407  0.0941 -0.1418
16961W        W32770  14.673  15.836   1.797  0.0122 -0.3967  0.0277
16962W        W32771   3.252  10.015  11.110 -0.3236  0.3562 -0.0145
16963W        W32772  10.907   7.180  11.534 -0.0206 -0.2789 -0.0638
16964W        W32773  16.988  13.198   2.358 -0.1960 -0.0976 -0.2265
16965W        W32774   3.279  10.602   0.988  0.0470 -0.1318 -0.2299
16966W        W32775   7.599  12.306   4.166  0.1158 -0.2926 -0.0166
16967W        W32776   5.303   4.751   0.955 -0.4269  0.1955 -0.0452
16968W        W32777  18.696   7.586  11.344  0.2222 -0.1000 -0.2282
16969W        W32778   4.827   9.725   9.465 -0.0092 -0.2062 -0.0548
16970W        W32779   0.483  18.201   2.083  0.0397  0.1612 -0.1349
16971W        W32780  16.039   2.332   0.560 -0.3554  0.2010 -0.1384
16972W        W32781  12.147  10.004   4.242  0.1277  0.2935  0.2974
16973W        W32782  15.740  16.245  14.153  0.1261 -0.2206 -0.1522
16974W        W32783  10.496  18.370   2.083 -0.2607  0.2414 -0.2204
16975W        W32784   9.331   5.329  10.859  0.0908 -0.1143 -0.1558
16976W        W32785  18.736   1.617  13.242 -0.2688 -0.2151  0.1614
16977W        W32786  13.103  11.627   1.629 -0.3684  0.2041  0.1701
16978W        W32787   4.853  12.602  13.036  0.1345  0.1889  0.0957
16979W        W32788  17.106  10.890  12.745 -0.0240 -0.1874 -0.3227
16980W        W32789  11.411   7.801  15.282  0.3669 -0.0198 -0.1033
16981W        W32790  14.990   6.504   3.042 -0.1689  0.0109  0.1047
16982W        W32791   3.921  10.604  13.735 -0.1014 -0.1693  0.0306
16983W        W32792   2.492  15.591  12.924 -0.2233 -0.0646  0.2446
16984W        W32793   6.664  16.992  10.113  0.0478 -0.0190  0.0138
16985W        W32794   6.235  16.980   0.942  0.4182  0.1526 -0.1029
16986W        W32795  14.762   9.196   1.676 -0.0740 -0.0179  0.1557
16987W        W32796   4.748  17.686   3.757  0.1705  0.0986  0.1402
16988W        W32797   1.486  12.126  10.461 -0.1053  0.0187  0.3342
16989W        W32798  14.168  10.344   4.944 -0.1187  0.1928 -0.0449
16990W        W32799   9.997  18.350  12.694  0.0611 -0.1229  0.0651
16991W        W32800   8.710   4.173   0.359  0.1191 -0.0501  0.1895
16992W        W32801   1.226   3.804  14.969 -0.1575 -0.2095 -0.1601
16993W        W32802  10.047   0.147   4.872 -0.1688  0.2820  0.2654
16994W        W32803   1.243   1.579   3.361 -0.2652  0.1495  0.0185
16995W        W32804  13.660   1.276  15.016  0.2246  0.3164  0.2657
16996W        W32805  16.139   2.890  11.143  0.0110  0.0840  0.0880
16997W        W32806  18.519   3.010   0.765  0.1118 -0.0584 -0.0702
16998W        W32807   9.625   9.195  14.017  0.0506  0.2442  0.0582
16999W        W32808   4.158   6.187  12.828  0.1007  0.3948 -0.1585
17000W        W32809   4.205   1.378  14.255 -0.2034 -0.2942  0.2778
17001W        W32810   7.542   4.589   1.699  0.2805  0.1735  0.4544
17002W        W32811   4.723   9.886  11.476 -0.0638  0.0200 -0.0157
17003W        W32812  13.117   9.386   3.922  0.2453 -0.1601 -0.0179
17004W        W32813   8.152   3.913   2.072 -0.2382  0.2425 -0.1717
17005W        W32814   2.891  18.345   4.138  0.1837  0.1360 -0.0884
17006W        W32815  13.296   0.877  10.789  0.0130  0.1439  0.1032
17007W        W32816  17.440  14.853   2.788 -0.0428  0.1938 -0.1007
17008W        W32817   9.440   8.855  11.367 -0.0278  0.1320 -0.0868
17009W        W32818  17.078   2.601   1.511  0.1586  0.1098 -0.4011
17010W        W32819  15.994   1.316  12.126 -0.0832 -0.2509  0.1359
17011W        W32820   4.274  12.654  15.216  0.0957  0.0301  0.1127
17012W        W32821   9.531   7.675  11.936  0.2237  0.0427 -0.2972
17013W        W32822   3.535  10.371   9.938  0.0978  0.2474  0.0742
17014W        W32823  11.498  17.347   5.056 -0.0049 -0.2006 -0.0931
17015W        W32824  17.680  17.374  14.897 -0.0291  0.1309 -0.0512
17016W        W32825   2.950  15.484   2.486 -0.0678 -0.0710  0.1964
17017W        W32826   9.083   6.255   2.095 -0.1901  0.2565  0.3399
17018W        W32827  17.117  13.291  11.143 -0.1557  0.3497 -0.0566
17019W        W32828   8.730   5.559  13.572 -0.1413 -0.2162 -0.2056
17020W        W32829   2.841  14.889  11.876 -0.1584 -0.0686  0.0645
17021W        W32830   0.660   3.609   1.965 -0.3069  0.0510  0.1284
17022W        W32831   5.303   9.459  15.248  0.4148 -0.0882  0.2490
17023W        W32832   9.140  14.951   1.983  0.1501 -0.2198  0.0755
17024W        W32833  18.935  14.809   4.121  0.1060 -0.0445 -0.0629
17025W        W32834   6.081   6.755   3.816  0.1010 -0.2313 -0.0227
17026W        W32835   5.710   5.152   2.088  0.2108 -0.2845  0.0368
17027W        W32836  17.815  16.598  14.107  0.2442 -0.0919 -0.0953
17028W        W32837   4.812   7.604   3.865 -0.2618  0.1594 -0.1540
17029W        W32838   8.450   9.473   4.455 -0.2328 -0.2808  0.1306
17030W        W32839   8.487  12.042  13.131  0.0146 -0.0062 -0.4079
17031W        W32840  10.881   9.325  10.401  0.2857  0.0593 -0.0490
17032W        W32841   8.815  15.382  11.205  0.0198 -0.0749  0.0223
17033W        W32842   2.451   3.958   4.958 -0.0879  0.2644  0.2649
17034W        W32843  12.558   0.113   3.511 -0.2458 -0.0334  0.0560
17035W        W32844   7.849   6.752  11.808  0.1646 -0.0319 -0.0435
17036W        W32845   1.538   8.391   9.792 -0.0478  0.0080  0.0594
17037W        W32846   6.374  16.769  11.765  0.3223  0.1197  0.2883
17038W        W32847   6.064   3.993  10.464  0.0613 -0.1105 -0.0743
17039W        W32848  10.299   9.829  14.517  0.2080  0.0707 -0.1833
17040W        W32849  14.465  14.352  11.813  0.2975 -0.3103 -0.0891
17041W        W32850  14.613  11.930   9.874 -0.0662 -0.1232  0.2107
17042W        W32851  17.547   8.316   3.820  0.0709 -0.0442  0.2413
17043W        W32852   3.393  10.568   1.502 -0.0577 -0.0717  0.0269
17044W        W32853   3.516  15.274  14.909 -0.3556  0.2053  0.2878
17045W        W32854  14.043  15.424  12.967 -0.3458  0.2561 -0.3456
17046W        W32855   9.923  15.913  11.463  0.0330  0.1213 -0.2525
17047W        W32856   4.007   8.786   1.197  0.2138 -0.7714  0.5144
17048W        W32857  13.893   8.403  12.955 -0.4004  0.0490 -0.2244
17049W        W32858  13.191   7.144   3.138 -0.1592  0.0801  0.3557
17050W        W32859   6.526  16.917   3.096 -0.2080 -0.1154  0.0913
17051W        W32860  18.838  12.954   5.204 -0.0740  0.3593 -0.0278
17052W        W32861   3.024  18.987  13.019  0.2923  0.0038 -0.0204
17053W        W32862  11.016  12.910   4.164 -0.3530 -0.0464 -0.0745
17054W        W32863   3.680  18.086  11.067  0.0860 -0.0289 -0.0405
17055W        W32864   1.954   2.037  14.222 -0.0499 -0.2104  0.3502
17056W        W32865   7.312   4.614  13.650  0.0981 -0.3246 -0.0015
17057W        W32866  14.126  16.567  14.538  0.0738 -0.2701  0.0027
17058W        W32867  17.694   1.449   1.077  0.2431 -0.0393 -0.1533
17059W        W32868  11.486   4.173  12.652 -0.1623 -0.0257  0.2418
17060W        W32869   2.054   9.656   2.242  0.2287  0.2099 -0.2350
17061W        W32870  12.447  10.516  14.747 -0.0252 -0.0333 -0.2628
17062W        W32871   4.652   2.073  10.704  0.1481  0.1269 -0.1048
17063W        W32872  17.826  12.505   0.984 -0.0075  0.3721 -0.0567
17064W        W32873  13.165   9.180  12.888  0.0472  0.0455 -0.2877
17065W        W32874  18.910   7.229   4.668 -0.2584 -0.1829  0.0172
17066W        W32875   0.287   7.440  12.017 -0.0291  0.1899  0.2121
17067W        W32876   6.991   7.951  10.620 -0.1165  0.1906 -0.0542
17068W        W32877   0.532  10.250   3.672 -0.0407 -0.0466 -0.1433
17069W        W32878  16.983  12.168   2.291  0.1928 -0.0317  0.0648
17070W        W32879   1.400  16.768   4.091  0.1544 -0.0917  0.0893
17071W        W32880  13.559   3.165   9.984  0.2531 -0.1140 -0.0999
17072W        W32881   8.498   3.110   1.540  0.2228 -0.0763  0.1549
17073W        W32882   2.027  13.167   5.253 -0.0952  0.2859  0.2114
17074W        W32883  13.752   6.737  15.191  0.5110  0.3002 -0.3239
17075W        W32884  18.707   3.009   2.043  0.1346  0.3596  0.0792
17076W        W32885  16.449   4.354  13.169 -0.0832  0.3326  0.1793
17077W        W32886   9.153  16.333   0.674  0.1416  0.1073 -0.0948
17078W        W32887  12.219   8.109   2.232 -0.1218  0.1043 -0.2611
17079W        W32888   4.156  11.720  14.984 -0.4670  0.1510 -0.3490
17080W        W32889   9.844  15.417   1.851 -0.3423  0.0904 -0.0910
17081W        W32890   5.555  14.006   4.072  0.0491  0.1861 -0.1361
17082W        W32891  14.141  16.214   0.299  0.2805  0.1614 -0.0759
17083W        W32892   4.280   0.997  14.727  0.3264 -0.1777  0.2201
17084W        W32893  11.255  12.815  12.768  0.5245  0.0168  0.2709
17085W        W32894  11.634   7.729   1.159 -0.1156 -0.2307 -0.1119
17086W        W32895   7.492  15.267  14.528  0.1826  0.0871  0.0305
17087W        W32896   7.439  17.128  11.676  0.0154  0.0671  0.1748
17088W        W32897   3.399  18.404   2.637  0.1076  0.1113 -0.2855
17089W        W32898  14.151   1.591  14.831  0.2387 -0.1389  0.2098
17090W        W32899   1.111  13.628  12.964  0.2210 -0.3829 -0.1295
17091W        W32900  10.177  13.905  12.981  0.1429  0.1380 -0.3773
17092W        W32901  13.525  17.340  13.096  0.2649  0.1708 -0.3193
17093W        W32902  16.110  13.053   4.675 -0.1081 -0.0460  0.3453
17094W        W32903  17.043   6.918   3.682  0.0990 -0.1525 -0.0970
17095W        W32904  14.192  10.147  14.174  0.0891 -0.2015 -0.0089
17096W        W32905   2.536   1.444  14.755 -0.1315 -0.3277 -0.1096
17097W        W32906   6.490   9.003   9.317 -0.0674  0.1991 -0.1636
17098W        W32907  14.961   4.989  11.215 -0.2680  0.0597  0.2889
17099W        W32908   3.233   9.501  10.362  0.2360 -0.0442  0.1914
17100W        W32909  15.331   0.786  11.570  0.4308 -0.0010  0.2469
17101W        W32910   6.396  14.713  12.470  0.1425  0.1814 -0.0093
17102W        W32911  11.020   7.069  13.817 -0.2117  0.2404 -0.3139
17103W        W32912   5.772  11.382  10.291 -0.0263 -0.0909  0.0858
17104W        W32913   0.164  13.915   4.934 -0.1733  0.0598  0.2489
17105W        W32914   8.931  10.751   1.621  0.2259  0.0853  0.1609
17106W        W32915   3.787   2.811   3.966 -0.0437 -0.0433 -0.4590
17107W        W32916  11.590   7.748  13.093 -0.1938  0.0742 -0.1821
17108W        W32917  11.436  14.536  12.755 -0.4217  0.3309  0.0558
17109W        W32918   6.168   9.700  10.657  0.0768 -0.4040  0.6393
17110W        W32919   0.211  16.969  12.666 -0.2473 -0.0780  0.4143
17111W        W32920  15.774   3.784  10.237  0.0007  0.1241  0.2657
17112W        W32921   3.173  13.620  14.412  0.1792  0.0805  0.0186
17113W        W32922   0.359  12.748   3.231 -0.2885  0.0036  0.0708
17114W        W32923   5.122  18.485   0.718  0.1810 -0.0466 -0.1223
17115W        W32924   1.271  12.634   0.141  0.2328  0.4119  0.0710
17116W        W32925   2.573   1.953  10.703 -0.2978  0.1353  0.0302
17117W        W32926  10.463   1.642  13.425 -0.0570 -0.0024  0.0548
17118W        W32927  12.425  13.972  12.793 -0.4826  0.0330 -0.2306
17119W        W32928   3.771  10.672   3.704  0.0039  0.2921 -0.2074
17120W        W32929   1.685   1.082   1.147 -0.1104 -0.0105 -0.0081
17121W        W32930  15.349  18.007   1.330 -0.0956 -0.1568 -0.0527
17122W        W32931  16.960   0.569  13.122  0.0610 -0.1769  0.0305
17123W        W32932   4.700   9.021  13.752 -0.1027  0.1663 -0.1294
17124W        W32933   1.716   2.030  10.136 -0.1374  0.1028 -0.0075
17125W        W32934  15.330  13.734   2.613 -0.1229 -0.0268  0.0647
17126W        W32935  11.697   1.180   1.198 -0.1137  0.0330 -0.2070
17127W        W32936   1.732   0.281  11.579 -0.1752 -0.0771  0.1942
17128W        W32937   8.741  14.626  15.065  0.1406  0.1221 -0.0526
17129W        W32938   9.387   0.049   2.661 -0.0376  0.2290 -0.1375
17130W        W32939   8.072   7.303  13.757 -0.1331  0.1628  0.0866
17131W        W32940   5.262  15.713   0.759  0.1577 -0.1283 -0.0762
17132W        W32941   2.116  12.220  15.021 -0.3126 -0.3292  0.1412
17133W        W32942   0.862  14.489   4.891 -0.1578  0.2783  0.2932
17134W        W32943   1.096  12.056   4.745 -0.0438  0.2028  0.2902
17135W        W32944   1.373   1.439   1.847  0.0430 -0.0114  0.0194
17136W        W32945   3.065  15.400  11.406  0.2411 -0.0883 -0.0239
17137W        W32946   8.814  16.304   4.606 -0.1297  0.3337 -0.0516
17138W        W32947  10.428  11.442  10.170  0.1785 -0.0287 -0.0026
17139W        W32948  18.862  11.802   0.038  0.1132 -0.1256  0.3996
17140W        W32949  17.263   5.235  11.976  0.0035 -0.0622 -0.3087
17141W        W32950  16.300   6.429   3.149 -0.0431 -0.0009 -0.0085
17142W        W32951   4.977  11.354  13.323 -0.0392 -0.0542 -0.0251
17143W        W32952   3.413   6.570   2.121 -0.0754  0.2158 -0.3456
17144W        W32953   1.206   2.059   1.776 -0.1333  0.2053 -0.0386
17145W        W32954  17.612   8.301  11.320  0.1687 -0.0607  0.2933
17146W        W32955  11.911   5.058  14.331  0.0439  0.0332 -0.1911
17147W        W32956   3.150  16.305   0.588 -0.0369  0.0122 -0.0859
17148W        W32957  11.502   2.421  12.095  0.0622 -0.0648 -0.2332
17149W        W32958   5.031  17.385  11.930  0.3449 -0.1394 -0.1973
17150W        W32959   5.389   0.043  14.355  0.1766  0.1367  0.0966
17151W        W32960  16.280  14.748   6.134  0.0986  0.1307 -0.0648
17152W        W32961  10.786   7.074  10.955  0.2495 -0.0617  0.0550
17153W        W32962  14.123  18.739  11.213 -0.0303 -0.1199  0.1206
17154W        W32963  10.344  11.939   1.405 -0.4406  0.0304 -0.0537
17155W        W32964   9.654   5.894   1.289  0.0677 -0.1871  0.1107
17156W        W32965   2.793   1.410  12.486  0.0590  0.0483  0.1343
17157W        W32966   4.634  19.009   3.315  0.2324  0.2964  0.1061
17158W        W32967  14.948   6.484  14.439  0.1384 -0.2790  0.0910
17159W        W32968   1.409  15.624  12.089 -0.0113  0.0427  0.1704
17160W        W32969   3.927  14.709   0.715  0.1670  0.1490 -0.1290
17161W        W32970   7.268  16.116   1.917  0.1508  0.0899  0.1585
17162W        W32971  14.139  12.847  12.153  0.2694  0.2602  0.2052
17163W        W32972  10.383  17.142  11.326 -0.0455 -0.0150 -0.0178
17164W        W32973   1.714  15.704  12.538 -0.0768 -0.0288  0.3629
17165W        W32974  15.329  11.676   0.518  0.0328 -0.2340 -0.0337
17166W        W32975   2.884  10.051   3.429 -0.0312 -0.0264  0.1858
17167W        W32976  11.873  14.542   0.200 -0.2279  0.0095 -0.0651
17168W        W32977   7.690  18.763   1.354 -0.0399 -0.2653  0.0058
17169W        W32978   3.545  16.569  12.809  0.1504 -0.2345 -0.0221
17170W        W32979   8.603   2.512  10.928 -0.0509 -0.1674 -0.0268
17171W        W32980   4.487  16.551  12.433  0.2391 -0.0259 -0.2121
17172W        W32981   2.813   0.316  10.363  0.1651 -0.1816  0.0744
17173W        W32982  19.011   0.952  13.627  0.1163  0.1043 -0.1693
17174W        W32983   7.226   6.716  11.744  0.3244  0.0111  0.0012
17175W        W32984   2.424   8.860   4.902 -0.0561  0.0875  0.0426
17176W        W32985  13.200  15.492  10.590 -0.3887  0.1127  0.0353
17177W        W32986   0.715   8.361  12.265  0.1169  0.0916  0.1072
17178W        W32987   6.732   6.850   5.009 -0.6571 -0.0822 -0.0579
17179W        W32988   8.666  14.755  14.172  0.2084 -0.0570 -0.1954
17180W        W32989  15.854  14.663  10.731  0.1437  0.1309 -0.0680
17181W        W32990  14.053  15.510  11.654  0.1204  0.1102  0.0634
17182W        W32991   6.891  12.816  15.198  0.0694 -0.3105 -0.1999
17183W        W32992   7.257  15.858  11.026  0.0372  0.0729 -0.3030
17184W        W32993  16.592   4.068   1.965 -0.0199  0.3225  0.2013
17185W        W32994   1.931  18.557   3.080 -0.1559  0.1324 -0.7101
17186W        W32995  14.562   1.112  12.808 -0.1548 -0.2017  0.1460
17187W        W32996  12.788   9.222  11.935 -0.2437  0.1644  0.0029
17188W        W32997   0.401  12.588   4.311  0.4880 -0.2892  0.2766
17189W        W32998  15.729  16.221  11.486 -0.3510 -0.0700 -0.0159
17190W        W32999  17.513   9.307   1.993  0.1420 -0.0239  0.1749
17191W        W33000  13.189   6.992  14.234 -0.1488  0.0237  0.0074
17192W        W33001  17.246   7.957  12.257 -0.1480 -0.1715  0.1574
17193W        W33002   6.733  17.041   4.409 -0.0579  0.1519  0.1731
17194W        W33003   5.067  16.399   5.158  0.1295  0.0008 -0.0069
17195W        W33004   5.074   5.795   0.794  0.0785 -0.2561 -0.3026
17196W        W33005  12.998  10.427   0.188  0.0090 -0.1761 -0.1821
17197W        W33006  15.054  16.130   0.115  0.1178  0.2583 -0.1467
17198W        W33007   2.613   8.553  12.100 -0.5369  0.2786 -0.1299
17199W        W33008   1.889  13.690   0.727 -0.1063  0.3683  0.3846
17200W        W33009  15.286  11.313   0.172  0.2686  0.0937  0.0341
17201W        W33010   9.864   3.290   1.587 -0.1192 -0.0841  0.0438
17202W        W33011  14.130  18.538   1.529  0.1709  0.0518 -0.1599
17203W        W33012  10.763  14.488   1.531  0.0725  0.1440 -0.2528
17204W        W33013  13.243  18.458  14.101 -0.0854  0.1524  0.0625
17205W        W33014  15.892  10.914  13.465  0.1711 -0.0041 -0.0633
17206W        W33015   6.379  18.894   0.904 -0.2037 -0.0698 -0.1093
17207W        W33016   0.596   3.218  11.437  0.3333 -0.1327 -0.1237
17208W        W33017  15.552   8.915  11.438 -0.1606  0.0789  0.0231
17209W        W33018   2.649   6.611  14.019  0.1907 -0.0291 -0.1764
17210W        W33019   2.421   2.205  12.128 -0.2233  0.1000  0.1280
17211W        W33020   5.889  18.989  10.661 -0.1624  0.0015 -0.2756
17212W        W33021   8.801  17.562  13.884  0.0322 -0.4656  0.3254
17213W        W33022   4.495  10.754   0.136 -0.0394 -0.0763  0.1579
17214W        W33023   9.054  17.697   4.909 -0.0209 -0.0208  0.0851
17215W        W33024   0.568  18.269  13.592 -0.0460  0.0976 -0.2010
17216W        W33025  13.643  13.293   9.884  0.2181  0.0909  0.0726
17217W        W33026  18.343   2.168   0.851  0.1990 -0.0199  0.0871
17218W        W33027   5.921   5.444  14.826 -0.0372  0.0736  0.0536
17219W        W33028   3.463  13.379   1.131 -0.1157 -0.0347  0.4398
17220W        W33029   4.773   6.833   9.208 -0.2302 -0.0489  0.1585
17221W        W33030   5.268  17.272   0.860  0.0164  0.2075 -0.2240
17222W        W33031   2.507   2.188   0.397 -0.2090  0.1518 -0.0310
17223W        W33032   8.098  16.008  11.525  0.3263  0.1646  0.2402
17224W        W33033  17.697   4.529   4.270 -0.2378  0.0138  0.0467
17225W        W33034   6.660   9.979  12.496  0.0495  0.3625 -0.0725
17226W        W33035   3.120  17.421   1.845  0.3253 -0.0419  0.3309
17227W        W33036  17.415  15.600   2.333 -0.3523 -0.0484  0.2097
17228W        W33037   0.042   0.710  12.988  0.0908 -0.1521  0.0007
17229W        W33038   2.134   2.623   3.534  0.1648 -0.1232  0.2483
17230W        W33039  13.540   4.790   6.066 -0.2516  0.3233 -0.1909
17231W        W33040   3.475  17.089  10.449 -0.1761  0.2161  0.0793
17232W        W33041  15.234  10.007  14.098  0.5101  0.3953 -0.0610
17233W        W33042  11.298  18.543   2.341  0.1516  0.2634 -0.0376
17234W        W33043  15.977   6.889   0.958 -0.0376 -0.0457 -0.1205
17235W        W33044  17.124  16.624   2.386  0.2464 -0.1110  0.1672
17236W        W33045   4.585  18.528   2.332 -0.0788 -0.0602  0.2778
17237W        W33046   5.339  17.859   4.401  0.0066  0.1564  0.0737
17238W        W33047  15.098   5.211   2.666  0.2659  0.0298 -0.2121
17239W        W33048   0.170   6.518   2.406 -0.1389  0.0965 -0.1113
17240W        W33049   9.683   9.490   5.011  0.1147 -0.1518 -0.0238
17241W        W33050  11.503  11.409   2.322  0.1613  0.1699  0.2385
17242W        W33051  14.951  18.465  14.638  0.0235  0.1764  0.4157
17243W        W33052   3.077  15.323  10.356  0.2004  0.2763  0.1024
17244W        W33053  11.762   2.867  12.451  0.1441 -0.0240  0.0375
17245W        W33054   7.443   1.475   3.554  0.0667 -0.2480  0.0479
17246W        W33055  12.340  10.340  10.801 -0.0241 -0.1164  0.0108
17247W        W33056  14.113  13.223   3.719 -0.1691 -0.4417  0.1619
17248W        W33057   0.800  13.944   4.915 -0.0085 -0.1678  0.0228
17249W        W33058   7.046   9.846   2.316  0.0717 -0.2074 -0.5004
17250W        W33059  13.913   6.894  10.465  0.0168  0.1470  0.0478
17251W        W33060  17.726   5.452   1.357 -0.1148 -0.0946  0.0287
17252W        W33061  18.672   5.062  12.941  0.0882 -0.0408  0.0753
17253W        W33062   6.120  17.787   0.757  0.1811  0.0700 -0.1165
17254W        W33063   3.500  12.797  13.286 -0.0378 -0.1026  0.1928
17255W        W33064  16.292   1.640  13.356  0.0529  0.1569 -0.3968
17256W        W33065   1.547  16.225  12.449 -0.2491 -0.0707  0.0906
17257W        W33066   2.068   2.283  14.667 -0.3490 -0.2283  0.0630
17258W        W33067   6.181  10.855  12.957  0.1006 -0.2992 -0.0134
17259W        W33068  17.874   5.691   4.696 -0.2973 -0.1543 -0.3920
17260W        W33069   0.357  13.178   2.831 -0.0720 -0.0794 -0.0150
17261W        W33070   2.141   5.152  13.919  0.0215 -0.3466 -0.1769
17262W        W33071   2.281   4.598  14.060  0.1490  0.1587  0.1268
17263W        W33072   9.105   8.350   0.227  0.1331 -0.0081  0.2751
17264W        W33073   9.967   5.152   2.819 -0.3754 -0.3202  0.4020
17265W        W33074  14.366   9.475  12.466 -0.0715  0.0937 -0.3719
17266W        W33075  11.343  17.038  13.229 -0.1522 -0.3087  0.0922
17267W        W33076  13.411   8.930  11.834  0.2299 -0.0658 -0.2794
17268W        W33077   6.278   4.216   0.178 -0.1308 -0.2784  0.1991
17269W        W33078  18.975  14.486   1.233  0.0208  0.0303 -0.3035
17270W        W33079  13.747  10.203   4.717 -0.1476 -0.0356  0.0489
17271W        W33080   2.596   8.536  13.050 -0.3414 -0.2949 -0.0208
17272W        W33081  12.916  12.743  11.917  0.0485  0.1219 -0.1089
17273W        W33082  13.395   1.755  12.422 -0.2697 -0.0303 -0.0155
17274W        W33083  16.011  18.405   1.464  0.0021 -0.1172  0.2234
17275W        W33084   1.882   4.126  12.531 -0.1725 -0.0898 -0.0163
17276W        W33085  12.791   8.434   9.439 -0.0268 -0.0845 -0.0975
17277W        W33086   6.602   4.232  13.099  0.3542  0.1367 -0.1259
17278W        W33087  14.685   6.394  13.462 -0.0404  0.0722 -0.0786
17279W        W33088   0.631  15.546  12.493 -0.1143 -0.3248 -0.0064
17280W        W33089  11.932  18.988   5.363 -0.0384  0.1077 -0.1915
17281W        W33090  11.485   6.920   3.458 -0.1621  0.1558  0.0401
17282W        W33091  12.643  15.905   5.580 -0.2834  0.0237 -0.2883
17283W        W33092   5.952  17.131   0.342  0.1320  0.0881 -0.0383
17284W        W33093   9.289   2.579  12.160 -0.2561 -0.1502  0.2370
17285W        W33094   9.126   3.760   1.141  0.0032 -0.3145  0.0203
17286W        W33095  14.411   2.312  12.232  0.4189 -0.0712  0.2358
17287W        W33096  18.976  16.930   1.937  0.1272  0.0850  0.1957
17288W        W33097   5.119   4.311   4.613  0.0631  0.1661 -0.2220
17289W        W33098   1.990   8.162  13.683 -0.3680 -0.0655  0.1333
17290W        W33099  15.747  18.725   1.084  0.0554 -0.0783 -0.1277
17291W        W33100   8.896   7.048   4.593 -0.2055 -0.0931  0.4147
17292W        W33101   0.699  11.738   4.759  0.1966  0.1882  0.0357
17293W        W33102  12.119   1.570   5.246  0.0421  0.0221 -0.0485
17294W        W33103  18.760  13.246  12.260 -0.1422  0.1243 -0.0740
17295W        W33104  11.830   2.143   1.307 -0.1173 -0.0976 -0.1366
17296W        W33105  17.459  18.977  12.954 -0.2212 -0.1482  0.1439
17297W        W33106   0.190  12.028  13.033  0.1271  0.0663  0.0936
17298W        W33107   5.463   1.045  12.340 -0.3731  0.1133  0.0692
17299W        W33108   7.185  11.131  13.019 -0.1431 -0.0628 -0.0713
17300W        W33109   1.241  15.758  14.238  0.0489  0.1821  0.2531
17301W        W33110  13.434   3.599  15.168  0.2723 -0.1935  0.1490
17302W        W33111   8.313   8.642   0.817  0.0582 -0.0482 -0.1511
17303W        W33112  11.045   7.791   4.053 -0.2898  0.1263 -0.0636
17304W        W33113   0.256   4.312  12.775  0.1900  0.1445 -0.1889
17305W        W33114   0.784   9.835   5.149 -0.2964  0.5696 -0.5096
17306W        W33115  12.251   6.726   3.919  0.2577 -0.0719  0.1030
17307W        W33116  11.575   5.153   4.303  0.0982 -0.0625  0.2670
17308W        W33117  16.487  10.276   2.024  0.1258  0.2825 -0.0123
17309W        W33118  13.033  13.003   2.730  0.0695  0.0985  0.3660
17310W        W33119   3.138   1.196   5.009 -0.1944  0.1578 -0.2236
17311W        W33120  16.054  13.976  13.901  0.0397 -0.0308 -0.0426
17312W        W33121   8.141   2.639   9.811  0.0157  0.1793  0.0496
17313W        W33122   8.322   5.736  13.334  0.3619 -0.0048 -0.2211
17314W        W33123  10.078   9.917   0.328 -0.4788 -0.0038  0.0042
17315W        W33124   1.906   1.601   1.308 -0.0807  0.0299 -0.2110
17316W        W33125   2.718  17.530   3.615 -0.1922 -0.2875 -0.0545
17317W        W33126  10.794   2.551   4.334  0.0860  0.1950 -0.1242
17318W        W33127  18.753   1.694  11.374 -0.1150  0.0180  0.2560
17319W        W33128   0.584   0.073  14.439  0.2385  0.1056  0.2133
17320W        W33129   8.275  11.962  11.946 -0.1993  0.0091 -0.4177
17321W        W33130   4.825   3.237   1.174  0.0468  0.3265  0.2465
17322W        W33131  14.281  13.339   0.581  0.0750 -0.1015  0.2932
17323W        W33132   3.383   8.264  12.410 -0.2244 -0.1000 -0.2438
17324W        W33133  14.527  16.965   9.833  0.3261  0.4039 -0.0270
17325W        W33134   6.358  18.916  12.967  0.3896 -0.2835  0.0902
17326W        W33135  14.704  16.845   5.133 -0.1733  0.3173  0.1351
17327W        W33136  10.527  18.585  10.125  0.0317  0.1104  0.2072
17328W        W33137  15.591   6.091  12.557  0.2045 -0.0780  0.0183
17329W        W33138   1.314  11.018  10.888  0.1296 -0.0269 -0.2616
17330W        W33139  16.164   3.759  12.438  0.3141  0.0488 -0.0863
17331W        W33140   0.158   7.976  13.414 -0.2671 -0.0572 -0.0918
17332W        W33141   2.071   6.124   3.631 -0.0942 -0.1220 -0.0783
17333W        W33142  17.047   3.000  13.534  0.1840 -0.3347 -0.3748
17334W        W33143  10.299  11.382   0.615 -0.2990  0.1276 -0.1721
17335W        W33144   0.280  11.498   1.171  0.2095 -0.1386 -0.2102
17336W        W33145  18.414  12.149  14.289 -0.0155  0.0667  0.3466
17337W        W33146  18.112   8.099  13.887  0.3159 -0.0115 -0.0537
17338W        W33147  14.113  18.665  12.826  0.1007 -0.0859  0.1064
17339W        W33148  18.430  17.763  13.794  0.3218 -0.1137  0.0628
17340W        W33149  14.358   9.768  15.273  0.0581 -0.1845  0.2039
17341W        W33150   1.343  10.284   2.282  0.0148  0.0380 -0.0474
17342W        W33151   6.482  17.913   4.744 -0.0532  0.0179  0.0930
17343W        W33152   6.937  18.682   5.023 -0.1971  0.0470 -0.0845
17344W        W33153   9.139  10.388  10.965 -0.2387 -0.1432  0.2883
17345W        W33154   0.580  16.102   2.715  0.1025  0.0620  0.0932
17346W        W33155   7.536   0.540  11.133  0.2285  0.0146 -0.1684
17347W        W33156   7.052  14.752  11.839 -0.1196 -0.0494  0.0921
17348W        W33157   6.534   4.440  12.620  0.4295 -0.0307  0.1751
17349W        W33158  13.407  12.147   0.598 -0.2092  0.2629  0.1026
17350W        W33159   4.197   2.172   3.100  0.2473 -0.1238  0.0329
17351W        W33160  14.407  11.220   4.033 -0.0980 -0.3925 -0.4568
17352W        W33161  11.645  18.955  15.205 -0.1637 -0.3769  0.0414
17353W        W33162  15.443  16.100   0.420 -0.0125 -0.1802 -0.0480
17354W        W33163   3.938  14.896  11.429  0.2351  0.0582  0.0157
17355W        W33164  14.328   6.630   1.494 -0.2201 -0.2774  0.0409
17356W        W33165  17.980  13.638  13.365 -0.0215 -0.0057 -0.3589
17357W        W33166   6.011  14.966  14.239 -0.2953  0.0688  0.0392
17358W        W33167  12.064   8.911   0.636  0.0524  0.1329 -0.1491
17359W        W33168   9.739   4.078   0.376  0.3269  0.2173  0.1296
17360W        W33169  11.458   0.437  11.162  0.1896 -0.1028 -0.3626
17361W        W33170  13.286  18.474  15.100 -0.0539 -0.3948 -0.0059
17362W        W33171   4.086   8.389   2.631 -0.1766 -0.0113 -0.1702
17363W        W33172   2.576  17.525   1.943 -0.0700 -0.1155 -0.2093
17364W        W33173   6.245  14.632  13.849  0.2441 -0.2065 -0.0439
17365W        W33174   8.795   7.214  10.411 -0.2692 -0.3003 -0.0462
17366W        W33175   5.298   0.559  13.606  0.2137  0.0592  0.2852
17367W        W33176  15.360   4.906  12.269 -0.1696 -0.1010 -0.2930
17368W        W33177   0.159   5.015   2.398 -0.0817 -0.0001 -0.1431
17369W        W33178  14.880  18.386   0.674 -0.1196  0.1360 -0.0874
17370W        W33179  10.338   6.537  12.278 -0.1030  0.0998  0.1205
17371W        W33180  10.520   3.537  14.730 -0.1240 -0.0983 -0.0737
17372W        W33181   3.995  18.780  15.255 -0.1677 -0.4235 -0.0318
17373W        W33182  17.292   6.644   0.086  0.0752  0.2473 -0.1951
17374W        W33183  12.590  18.265  12.074  0.1148 -0.2434 -0.3739
17375W        W33184  14.423  14.853   2.384  0.1615  0.2316 -0.0051
17376W        W33185   1.379   9.876  10.632 -0.0833  0.2021 -0.4376
17377W        W33186  15.490  18.100  14.029  0.1037  0.0048 -0.2865
17378W        W33187  15.814  11.813   3.367 -0.0828  0.0824  0.1562
17379W        W33188  18.887   0.702   1.224  0.2495 -0.0322 -0.0059
17380W        W33189   9.338   7.606   0.056 -0.2250 -0.0970  0.0401
17381W        W33190  12.679   5.638  12.838 -0.0200  0.3545 -0.2760
17382W        W33191   2.523   4.882   3.948 -0.0852 -0.2074 -0.3413
17383W        W33192  17.639  13.958   3.114 -0.1919  0.0151  0.1793
17384W        W33193   2.151   7.922   0.520  0.5509 -0.2759  0.2492
17385W        W33194  16.426  16.692  12.358 -0.1330  0.3610  0.3066
17386W        W33195  16.895  15.698  12.502  0.1516  0.0055 -0.0854
17387W        W33196   7.225  13.572  14.442 -0.0676  0.1349  0.1469
17388W        W33197   9.843  12.417  14.177  0.0080 -0.2430 -0.2509
17389W        W33198   8.874   0.966   1.418  0.0255  0.0766  0.2264
17390W        W33199   7.868   0.332  14.857 -0.1528 -0.1820  0.0134
17391W        W33200  15.781   9.181   1.667  0.0253 -0.0556  0.2708
17392W        W33201   1.301  13.788  11.979 -0.0194 -0.2579 -0.1275
17393W        W33202  14.972  12.576  12.663  0.0797 -0.1565  0.2018
17394W        W33203  14.011  12.491  11.777  0.0704 -0.2857 -0.2512
17395W        W33204  12.497  13.521  15.071  0.0315  0.3160  0.2177
17396W        W33205  13.568   5.928   3.927 -0.1271  0.0262 -0.3530
17397W        W33206   4.872   4.186  13.140  0.0884  0.2151  0.0151
17398W        W33207   6.396   0.036   1.672  0.2035  0.1623 -0.1732
17399W        W33208  13.517  18.185   1.126  0.1216 -0.0147 -0.5077
17400W        W33209  14.725  12.255   4.140  0.2881 -0.3558 -0.0983
17401W        W33210  13.348   7.798  10.400  0.2260 -0.1603 -0.1365
17402W        W33211  13.912  12.385   2.004 -0.2842 -0.3534  0.0137
17403W        W33212  14.230  17.907   2.266 -0.0931  0.1202  0.2795
17404W        W33213  14.823   5.566  13.700  0.2655 -0.1338  0.0534
17405W        W33214  17.255  10.778   3.027  0.1461 -0.3207 -0.1355
17406W        W33215   0.004  12.943   4.012  0.2320  0.0051  0.0814
17407W        W33216   3.488  16.936  11.359 -0.1336  0.0079 -0.1949
17408W        W33217  13.488   2.053  12.877 -0.1676  0.1034 -0.0505
17409W        W33218  14.794   3.562  10.593  0.0568  0.0824 -0.1132
17410W        W33219   3.275   1.417   3.075  0.0811  0.0265  0.1080
17411W        W33220  16.629   9.625   4.326  0.0001  0.1991  0.0265
17412W        W33221  14.460  16.259   3.602  0.3636  0.0115 -0.1497
17413W        W33222   4.859  10.229   2.180  0.0410  0.0968 -0.3356
17414W        W33223  14.907  18.627   3.198 -0.1191 -0.1557  0.1624
17415W        W33224   8.861   2.022  11.349 -0.1585 -0.6025  0.0964
17416W        W33225  14.548  17.893  14.265  0.0132 -0.0504  0.1047
17417W        W33226   3.328   8.373  13.991  0.2976 -0.0046  0.3642
17418W        W33227   5.818  17.912  12.159  0.0294 -0.0076  0.1531
17419W        W33228  10.085   2.925   3.365  0.1036 -0.0833  0.1162
17420W        W33229   9.811  16.657   1.312 -0.1711  0.0630  0.0707
17421W        W33230  17.179  13.681  13.127 -0.1916 -0.3200  0.0749
17422W        W33231  12.700  14.554   2.584 -0.0611  0.0105 -0.0936
17423W        W33232   6.363   7.433   3.513  0.1373 -0.1002  0.2405
17424W        W33233   3.717   2.087   0.035  0.1201 -0.0691 -0.1849
17425W        W33234   6.878  11.475   4.183 -0.0872  0.0066 -0.2860
17426W        W33235   8.519   0.756   1.060  0.0216 -0.5354  0.0506
17427W        W33236  15.757   3.020  14.049 -0.2172 -0.0855 -0.0272
17428W        W33237  14.358   8.679  11.259  0.0689 -0.0350 -0.4891
17429W        W33238   3.034  12.988   0.357  0.1651  0.0111  0.1874
17430W        W33239  12.847  17.980  10.914  0.3912  0.0884 -0.0684
17431W        W33240  15.950  15.164   1.424  0.0297  0.2934 -0.2176
17432W        W33241   6.753   0.950  12.452  0.2149 -0.0558  0.1546
17433W        W33242  19.009   7.822   2.206 -0.0044  0.3226 -0.2443
17434W        W33243   7.274   5.492  12.374  0.3306  0.4059 -0.3552
17435W        W33244  15.521   1.219  13.372  0.1426  0.0278 -0.0997
17436W        W33245  12.535  15.652  11.238 -0.0852  0.4520  0.1104
17437W        W33246  18.031  18.377  11.204  0.5317 -0.0922 -0.0502
17438W        W33247   5.202   6.495   0.272  0.1224  0.1913  0.1457
17439W        W33248  10.991  15.991  11.533  0.2377  0.1333 -0.0517
17440W        W33249   8.845   8.375  12.593 -0.0419 -0.1355 -0.0208
17441W        W33250   9.928   3.673   1.126 -0.0060 -0.0670  0.2306
17442W        W33251   9.153  14.731   3.271 -0.0183 -0.0958  0.1605
17443W        W33252   1.919   9.941  11.213  0.0044  0.0063  0.0973
17444W        W33253   6.178  10.146   3.407 -0.1147 -0.0052 -0.2612
17445W        W33254   1.782  11.340   0.766 -0.1188 -0.1106 -0.1478
17446W        W33255  11.391  11.343   3.380 -0.2514  0.2818 -0.0068
17447W        W33256   1.358   5.589   2.588  0.0853 -0.3560 -0.0061
17448W        W33257  17.740  11.325   1.023  0.0585 -0.1745  0.3552
17449W        W33258  17.574  11.852   1.933  0.4393 -0.5334  0.3760
17450W        W33259  15.723   0.573   2.282 -0.0584 -0.0595  0.1559
17451W        W33260   5.957   9.991   3.841 -0.0318  0.0335  0.1125
17452W        W33261   1.399   9.690  11.149  0.1087 -0.1006 -0.1206
17453W        W33262   5.916   3.153   4.265 -0.3206 -0.1298 -0.0438
17454W        W33263   7.214   9.307  13.869 -0.2131  0.1307 -0.0802
17455W        W33264   2.847   3.385  10.720  0.2194 -0.0127 -0.1199
17456W        W33265  18.228   3.800   0.010  0.0166  0.0615  0.0049
17457W        W33266  10.378   7.771   0.433 -0.1445 -0.0380  0.0019
17458W        W33267  13.544   9.111  11.419  0.0990 -0.0567 -0.1534
17459W        W33268  13.956   3.420   1.399  0.0745  0.2549  0.2471
17460W        W33269  12.396   1.413   5.675 -0.1029 -0.0984 -0.2440
17461W        W33270   1.663   9.426   3.440  0.1023 -0.0069  0.0161
17462W        W33271   3.050  11.635  14.308 -0.0656  0.1120  0.1982
17463W        W33272  16.895  13.688   5.422  0.2184  0.2043 -0.0804
17464W        W33273  12.740   4.459   0.524  0.0227 -0.0920  0.1096
17465W        W33274  12.174  10.348   3.394  0.0427 -0.0764 -0.1304
17466W        W33275  17.078   7.237   1.998 -0.1197  0.1619  0.0216
17467W        W33276   1.417   8.248  11.829 -0.0283  0.1948  0.0483
17468W        W33277  12.638   4.764   5.663  0.4173  0.0155 -0.1081
17469W        W33278  16.132   2.869  13.079  0.0670 -0.2453  0.1317
17470W        W33279   1.732   9.239   1.461 -0.1522  0.1545 -0.4686
17471W        W33280   4.339   3.607   4.888  0.2721  0.4410  0.1037
17472W        W33281  15.540  15.917  12.325  0.0116  0.1274 -0.0698
17473W        W33282   8.574   8.613   9.870  0.1824  0.2508  0.1244
17474W        W33283  13.945  18.697  10.305 -0.0179  0.0785  0.0928
17475W        W33284   3.531  12.935   0.526  0.0306  0.1573 -0.0748
17476W        W33285  14.794  10.580   1.655 -0.2735  0.0321 -0.1907
17477W        W33286   6.018  13.290   2.173 -0.3820  0.0909  0.0275
17478W        W33287   8.644  16.267  13.542 -0.0307  0.2358  0.2249
17479W        W33288  12.899   1.876   4.921 -0.2438  0.1117 -0.1677
17480W        W33289   5.446   6.140   3.626  0.0432  0.0593  0.2455
17481W        W33290   5.141   7.854  11.013  0.2968 -0.0617 -0.0560
17482W        W33291  17.576   9.900  10.919  0.2125 -0.2638 -0.2126
17483W        W33292  13.662   9.779  13.318 -0.2501  0.2605 -0.0155
17484W        W33293   0.930  14.133  14.475  0.0558  0.0360  0.4048
17485W        W33294   7.854   8.555   3.194  0.1002 -0.3302 -0.4532
17486W        W33295   1.611  12.008   0.047  0.2016 -0.1395  0.1565
17487W        W33296   3.574  12.540   1.923  0.0370  0.1512  0.1183
17488W        W33297  16.331   6.415  12.137 -0.1431  0.0540 -0.3162
17489W        W33298  15.637   9.413   5.372 -0.0561 -0.1077  0.0341
17490W        W33299   8.835   6.786  14.438 -0.1775  0.1188 -0.1868
17491W        W33300  15.205   3.055  14.441 -0.1677 -0.1641 -0.2697
17492W        W33301   8.951  15.920  11.097  0.3464 -0.1477  0.1855
17493W        W33302  18.166   2.744  12.665  0.2884  0.2057  0.2119
17494W        W33303   0.570  11.334  15.173  0.0823  0.1238 -0.0872
17495W        W33304   0.085   6.736  13.729 -0.0859  0.0879  0.0034
17496W        W33305  18.472  15.301   4.892  0.1183 -0.2997  0.1525
17497W        W33306   8.158  16.986  13.561  0.0888 -0.1884 -0.1228
17498W        W33307   6.222  12.446  11.699  0.0957 -0.1896 -0.2270
17499W        W33308  11.767   2.695   2.634 -0.1249 -0.0096  0.1533
17500W        W33309   8.678  11.284  13.688  0.1574 -0.0300  0.1645
17501W        W33310   8.311  15.542   2.466 -0.3053 -0.0011  0.1663
17502W        W33311   4.042   6.743   4.487 -0.0948 -0.1776  0.2696
17503W        W33312   4.113   0.460   1.004 -0.0786  0.2325 -0.5012
17504W        W33313  10.360  11.629   4.361 -0.2592  0.2491 -0.4895
17505W        W33314   3.311   4.619  10.485 -0.2004  0.1333  0.3118
17506W        W33315  11.860  16.477   0.381  0.3593 -0.2060 -0.2272
17507W        W33316  12.459  10.683  12.845  0.0003 -0.0504 -0.0182
17508W        W33317   2.504  17.003  13.295  0.0245 -0.1930 -0.0660
17509W        W33318   1.401  10.434   4.601  0.0254 -0.0496  0.1355
17510W        W33319   7.770  16.402   4.559  0.2695 -0.0451  0.4318
17511W        W33320  15.591   2.576   3.201  0.1475  0.1045 -0.0929
17512W        W33321   7.500  15.120   2.052  0.4913 -0.2743  0.3139
17513W        W33322   0.442   2.879  10.981  0.0626  0.0490  0.1854
17514W        W33323  12.579  18.248   4.208 -0.0400 -0.0442  0.1608
17515W        W33324  17.966  14.680  13.848 -0.1521  0.1625  0.0018
17516W        W33325   0.248   3.910   3.551  0.2159  0.4292 -0.0592
17517W        W33326   2.453   1.856  15.123  0.0679  0.0964  0.1170
17518W        W33327   8.873  13.307   0.956  0.0036  0.1374 -0.2424
17519W        W33328  15.238  18.673   3.588 -0.1291 -0.0040  0.1779
17520W        W33329  17.766  14.450   1.522  0.1040 -0.0317 -0.0279
17521W        W33330  10.935  15.442   4.812  0.1364  0.1157 -0.1296
17522W        W33331  15.945   1.950   1.359  0.0402 -0.0560 -0.0649
17523W        W33332   3.625  14.607  11.676  0.0417  0.0472 -0.0272
17524W        W33333  16.792   9.016  15.136 -0.0002  0.3260 -0.2516
17525W        W33334   5.826   1.779  12.911 -0.0999  0.3795 -0.2938
17526W        W33335  16.960  14.902   2.985 -0.3878  0.0248 -0.1114
17527W        W33336  15.248  16.369  11.658  0.2113  0.2410  0.0951
17528W        W33337   6.112   0.754   5.010  0.2166  0.3306  0.0865
17529W        W33338   5.254  12.429  11.885  0.2978 -0.0539  0.3001
17530W        W33339  10.126  18.511  11.385  0.0946  0.0788 -0.0615
17531W        W33340   4.321  12.381  14.270  0.0509  0.3123 -0.1066
17532W        W33341  15.369   7.561  13.991  0.0837 -0.3550 -0.0728
17533W        W33342   5.991  14.173   2.397 -0.1993 -0.0834  0.1025
17534W        W33343   7.280   4.716   3.244 -0.3194  0.3636 -0.1089
17535W        W33344  11.995  13.406   4.978 -0.0690  0.1438  0.3382
17536W        W33345  10.646   5.960   0.247 -0.3411  0.0287  0.3352
17537W        W33346  11.172   2.177   0.663  0.2441  0.0436 -0.1282
17538W        W33347  12.029  17.314  14.542  0.1929 -0.1869  0.0978
17539W        W33348  14.207   5.111   0.560 -0.1218 -0.2872  0.2453
17540W        W33349   8.044  14.330   0.637  0.1485 -0.3766  0.0475
17541W        W33350   4.972   5.175   4.456 -0.3067  0.2203 -0.0191
17542W        W33351  18.088   8.865   5.131 -0.3639  0.0392  0.0091
17543W        W33352  18.325   0.808   2.396 -0.1278 -0.2427  0.1225
17544W        W33353  12.308   5.375  14.428 -0.0156  0.2805  0.2211
17545W        W33354  14.800   5.125   3.235  0.1983 -0.1378 -0.3485
17546W        W33355   2.712  13.689  15.173 -0.1414  0.1404 -0.3355
17547W        W33356   5.512   9.960  10.832  0.0944 -0.1555  0.1933
17548W        W33357  11.644   3.357  10.844 -0.1039 -0.0920  0.0306
17549W        W33358   9.309  10.402  13.798  0.1473 -0.0790  0.0464
17550W        W33359   0.610   9.956   0.325 -0.0271 -0.0112  0.0245
17551W        W33360  16.408   6.845   2.321  0.1934  0.0510 -0.1702
17552W        W33361   2.314   7.369  13.727  0.0696  0.0948 -0.3852
17553W        W33362  14.906  13.904  13.283 -0.0956 -0.1043  0.4185
17554W        W33363  15.983   3.475  14.143  0.1764 -0.1309  0.0454
17555W        W33364  18.588  11.857   0.495  0.1598  0.0296 -0.1728
17556W        W33365   3.834  15.329  13.105 -0.3649  0.1011 -0.1721
17557W        W33366  17.255   3.568   2.608 -0.0740 -0.1627 -0.1758
17558W        W33367   6.513  16.252  13.073  0.1158  0.2431  0.2194
17559W        W33368  13.972  15.426  11.190  0.1338  0.0212 -0.2660
17560W        W33369  12.143   0.398  13.516  0.2304 -0.2667  0.1558
17561W        W33370   7.480   7.770   2.783 -0.2460 -0.0368  0.1879
17562W        W33371   7.666   7.696  11.661  0.0262  0.0608  0.2716
17563W        W33372   3.715  16.760   1.742  0.2244 -0.1807 -0.0836
17564W        W33373  17.532   6.400  13.296 -0.1284  0.2989  0.1439
17565W        W33374  13.140   6.620   5.299  0.1228 -0.0035 -0.4066
17566W        W33375  17.629  11.899  11.860 -0.0948 -0.2438 -0.2303
17567W        W33376  18.084   9.337  12.184  0.0340  0.1437 -0.1415
17568W        W33377  18.342   6.150   0.538 -0.0659 -0.2996  0.1676
17569W        W33378   8.365  18.166   1.553 -0.1401 -0.0390  0.1108
17570W        W33379  10.608  11.527   3.816  0.1261  0.0542 -0.2656
17571W        W33380  13.137   7.723   5.789 -0.2591 -0.2655  0.0768
17572W        W33381  13.117   0.762   3.005  0.1475  0.1710  0.1003
17573W        W33382   3.360   2.088   2.485 -0.0676 -0.1219 -0.0722
17574W        W33383  14.375   0.570  11.980 -0.0735 -0.3891 -0.0247
17575W        W33384  12.562   9.997  11.584 -0.1941  0.0786 -0.1472
17576W        W33385  13.315  15.052   3.463 -0.0811  0.1826 -0.1013
17577W        W33386   2.240   0.078  11.337 -0.0018  0.0408  0.2354
17578W        W33387  16.651   8.025   2.019  0.1937 -0.1456  0.0133
17579W        W33388  14.616  14.823  10.696 -0.0037  0.0415  0.1097
17580W        W33389   8.174  17.140   1.472 -0.0400  0.3007  0.1247
17581W        W33390  11.338   1.642   5.841 -0.0491 -0.3425 -0.1438
17582W        W33391   5.812   3.452  15.052 -0.0162 -0.1613 -0.4136
17583W        W33392   9.837   3.280   2.339  0.0179  0.0019 -0.0283
17584W        W33393   7.064   1.096   5.561 -0.1588 -0.0530 -0.0203
17585W        W33394   3.968   2.466   4.354 -0.1340 -0.0545  0.1333
17586W        W33395  11.746  15.526   5.425  0.0794 -0.1088  0.0657
17587W        W33396  11.868   8.125   2.911  0.0199  0.0932 -0.2292
17588W        W33397   4.677   2.033   0.684 -0.1622  0.3153 -0.0137
17589W        W33398   4.340   2.909   0.001 -0.3122 -0.4536  0.1314
17590W        W33399  10.326   4.505  10.346  0.2917  0.4043  0.0761
17591W        W33400   5.064  17.794  14.277 -0.1913  0.1346 -0.1064
17592W        W33401  15.893  14.761  12.872 -0.0632  0.1818  0.0152
17593W        W33402  13.086   6.153   2.628  0.3311  0.1470 -0.1283
17594W        W33403   6.003   5.913   2.493 -0.0384 -0.2343  0.0746
17595W        W33404   9.211   5.745   1.203  0.1058 -0.1266 -0.1091
17596W        W33405   3.935   3.624  12.139  0.1776  0.0222 -0.3741
17597W        W33406   6.985  11.754  11.891  0.1263  0.1002 -0.1579
17598W        W33407  11.074  13.014   5.137  0.0881  0.1042 -0.2173
17599W        W33408   2.283   1.402   2.279 -0.0702  0.3196 -0.1111
17600W        W33409   6.683   5.677   4.109  0.0162  0.3620 -0.0044
17601W        W33410  12.287   0.449   5.364 -0.1695 -0.0211  0.3830
17602W        W33411  13.635   6.313  14.739 -0.4105  0.1706 -0.0855
17603W        W33412   4.537   7.606  10.170  0.0164  0.1416 -0.1393
17604W        W33413  13.659   2.583  11.426 -0.0726 -0.0017 -0.0166
17605W        W33414  18.600  15.072   5.362  0.2739  0.0490  0.0972
17606W        W33415   6.271  16.334  11.469 -0.0459 -0.4799  0.0646
17607W        W33416  13.386   4.810   9.890  0.4031 -0.2481  0.1499
17608W        W33417  16.567  11.979  14.341 -0.2129 -0.0142  0.0292
17609W        W33418   2.241  12.751   2.007  0.3136  0.0539  0.0911
17610W        W33419   8.033   8.676  12.188  0.2686 -0.1978 -0.1302
17611W        W33420  12.795   5.079   4.068  0.0797  0.0549 -0.2542
17612W        W33421  11.382   1.551   1.272 -0.1733 -0.1486  0.1149
17613W        W33422   7.737  10.035  15.043 -0.0084  0.1798  0.2045
17614W        W33423  17.816  14.656   1.943  0.5840 -0.3792  0.2678
17615W        W33424   4.197   4.259   2.967  0.1518 -0.3361 -0.0885
17616W        W33425  14.580   1.435   4.294  0.0271 -0.1355  0.0152
17617W        W33426  15.616   6.598  14.461  0.1890 -0.0315 -0.0063
17618W        W33427  12.396  15.492   3.197  0.0874  0.0110 -0.0689
17619W        W33428   1.442   2.069  11.770 -0.0347 -0.3969 -0.5108
17620W        W33429   7.888  13.644  15.066  0.4586 -0.0239 -0.1078
17621W        W33430  18.574   0.892  15.035  0.1666  0.0255  0.0177
17622W        W33431   0.349   6.515   3.923  0.0387 -0.0184 -0.0154
17623W        W33432   4.197   3.626   2.961  0.1089  0.0724  0.0791
17624W        W33433   1.821  13.075   1.872  0.0694 -0.1420  0.0242
17625W        W33434  11.154  12.053   0.733  0.1631 -0.2357 -0.0356
17626W        W33435   9.258   2.291  11.592  0.3715 -0.1848  0.0335
17627W        W33436   2.093   1.377   5.016  0.2230 -0.0522  0.2782
17628W        W33437  16.540  10.138  13.327 -0.0502  0.1989 -0.1015
17629W        W33438   4.253  13.450  12.171  0.4106  0.0477  0.0405
17630W        W33439  14.273   5.011   4.149 -0.0619  0.0353 -0.0289
17631W        W33440  10.184   8.330   2.915  0.2176  0.1274  0.0267
17632W        W33441  11.377  12.415  10.493 -0.0661  0.1183  0.3858
17633W        W33442  16.948   3.366   2.921  0.1008  0.0875 -0.4082
17634W        W33443  15.331  18.796   1.990  0.1145 -0.2077  0.0449
17635W        W33444   3.669   2.238   3.820  0.3175  0.0058  0.1009
17636W        W33445   5.214  10.654  11.542  0.1606  0.1108  0.3175
17637W        W33446  12.964  17.707   0.443  0.0530 -0.1810 -0.0584
17638W        W33447  15.987   3.578   0.509  0.0550 -0.1359 -0.2609
17639W        W33448   1.487   9.854   4.859 -0.1222 -0.2545  0.2479
17640W        W33449  14.830  12.285  10.638 -0.1008  0.2116  0.2075
17641W        W33450  10.044   8.035  12.831 -0.0208 -0.1515 -0.1549
17642W        W33451   5.278   5.539  14.812 -0.1310 -0.2559  0.2659
17643W        W33452   5.996   1.947  12.018  0.2804 -0.1016  0.0481
17644W        W33453  18.971  12.516  11.552 -0.0338  0.0272 -0.3171
17645W        W33454  14.622  11.998  13.984 -0.0653  0.2202 -0.2182
17646W        W33455  16.078   4.717  13.440  0.1573 -0.0231 -0.4060
17647W        W33456   5.285   7.252   2.868  0.1408 -0.0713 -0.2042
17648W        W33457   1.273   0.699   3.958  0.3591 -0.3728  0.0135
17649W        W33458   6.499   8.149  12.331  0.0639 -0.0581  0.1568
17650W        W33459  12.931  18.722  11.601 -0.2115  0.0554  0.0459
17651W        W33460   8.129   5.530   9.623 -0.4892  0.0771 -0.0368
17652W        W33461   2.454   6.922  10.604  0.0591  0.0209  0.1683
17653W        W33462   7.613  16.924   4.410 -0.0759 -0.3375 -0.0130
17654W        W33463  11.591   9.903  14.028 -0.0419  0.3368  0.0063
17655W        W33464  17.956  13.994   1.940  0.3175 -0.0986 -0.1154
17656W        W33465  11.287  18.673   1.355 -0.1070 -0.1087  0.1565
17657W        W33466  14.046   8.041   0.402  0.0434  0.0592  0.5201
17658W        W33467  18.529   0.174  11.220 -0.4643 -0.2860 -0.3152
17659W        W33468   3.002   0.113  12.230  0.1356 -0.1352 -0.0747
17660W        W33469   6.423   6.618  12.649  0.3726  0.0356 -0.1099
17661W        W33470   1.797   9.726   1.836  0.1882  0.1411 -0.4674
17662W        W33471   4.906  11.846   1.892 -0.1177  0.0001  0.2132
17663W        W33472  11.558   3.292  14.367  0.2221  0.2813  0.0806
17664W        W33473   6.751   5.396   2.993 -0.1157  0.1037  0.3626
17665W        W33474  18.021  10.695  12.546 -0.1275  0.0441 -0.0986
17666W        W33475   5.292   4.788  11.753  0.3302 -0.0198 -0.0865
17667W        W33476   4.211  11.755   4.191 -0.2349 -0.2121 -0.2222
17668W        W33477  18.201   1.446   3.133 -0.2037 -0.1473 -0.1723
17669W        W33478  10.995   4.737   3.239  0.1065 -0.3960 -0.7215
17670W        W33479  15.374  13.099   1.471  0.4038  0.0102 -0.2596
17671W        W33480  10.252   1.338  14.997 -0.0592 -0.1261  0.1785
17672W        W33481   2.503  10.408   3.201 -0.1937 -0.1191 -0.1733
17673W        W33482   2.643  14.463   2.821  0.1409  0.0607 -0.2626
17674W        W33483  10.648  12.964   1.707  0.1908  0.2269  0.0884
17675W        W33484  15.634   4.591   4.589  0.0355 -0.1782  0.1554
17676W        W33485  18.334   2.194  14.884 -0.0544 -0.1603 -0.0730
17677W        W33486  11.353   3.789  14.318  0.2549 -0.0375 -0.2560
17678W        W33487   2.126  16.246   3.152 -0.2312  0.0112  0.1201
17679W        W33488   6.045  11.904  12.726  0.0778 -0.2347  0.0039
17680W        W33489  12.813   0.003   1.649  0.3042  0.1933  0.0444
17681W        W33490   6.495   2.027   2.064  0.1272 -0.0062  0.1032
17682W        W33491   1.710  17.795  12.396 -0.1880  0.1247 -0.0698
17683W        W33492  18.772   3.084   0.386  0.0598 -0.1231 -0.0702
17684W        W33493  17.579   8.392  10.736 -0.0616  0.0686 -0.2175
17685W        W33494   4.725  10.571  10.505  0.0145  0.0380  0.1934
17686W        W33495   8.918  15.972   2.727  0.0345  0.1247 -0.2579
17687W        W33496   9.999  18.531   5.155  0.0453  0.1232  0.0488
17688W        W33497   1.957   8.519  14.330  0.0055  0.2132 -0.1588
17689W        W33498  18.378   6.335   0.023  0.3765  0.1117  0.1296
17690W        W33499  17.645  11.619  12.342  0.0068  0.0818  0.2012
17691W        W33500   0.657   5.214   2.323 -0.2841 -0.0910  0.2119
17692W        W33501  18.948  10.606   1.075 -0.2356  0.0350  0.0551
17693W        W33502   0.102  14.664  10.838 -0.0852 -0.2003 -0.2007
17694W        W33503  10.618   8.895   5.059 -0.1476 -0.2019 -0.2033
17695W        W33504  18.350  12.558  12.533  0.3450 -0.2540 -0.0496
17696W        W33505   3.187  13.660   0.083  0.5090 -0.5392  0.0065
17697W        W33506  15.127  14.240   2.024  0.1747 -0.1176 -0.2170
17698W        W33507   4.005  16.340   1.835 -0.1983 -0.1723 -0.1712
17699W        W33508   1.048   6.983  10.654 -0.0327 -0.1903  0.0374
17700W        W33509   5.143   1.992  13.154 -0.1511  0.0157 -0.3962
17701W        W33510   8.406  16.994   4.144  0.0553 -0.1298 -0.0881
17702W        W33511  17.673  15.871   2.767 -0.1567  0.2130  0.3177
17703W        W33512   9.563   0.414   3.574  0.1803 -0.3036 -0.0153
17704W        W33513  17.525   7.574  12.160  0.0292 -0.1893  0.1608
17705W        W33514   3.976  11.406   2.350 -0.3330  0.0442  0.0344
17706W        W33515  13.521  15.527  13.021 -0.0609  0.0971  0.1559
17707W        W33516   3.284   5.058   3.411 -0.2363 -0.2165  0.2297
17708W        W33517   8.408   7.763  10.177  0.1127 -0.0374  0.2474
17709W        W33518  10.618   1.563   2.035 -0.1063 -0.0342  0.0039
17710W        W33519  10.854  16.766   0.747 -0.5595 -0.0873  0.2319
17711W        W33520   3.902   6.977   0.552 -0.0613  0.5362  0.0428
17712W        W33521  15.583   6.020  10.676 -0.3791 -0.1638 -0.0561
17713W        W33522  14.852  10.585  14.638  0.0087 -0.2669  0.0809
17714W        W33523   8.869  13.457  11.992  0.0192  0.0630 -0.1977
17715W        W33524  11.157  10.124   1.847 -0.0791  0.1488 -0.1629
17716W        W33525   9.291   0.248   4.119  0.0373  0.2380 -0.0218
17717W        W33526   5.570   9.532   0.400  0.1135  0.1633 -0.2658
17718W        W33527  18.739   0.939   0.807  0.3955 -0.2483 -0.1355
17719W        W33528  15.559  10.355  14.219 -0.0730  0.0416  0.0896
17720W        W33529  18.777   1.091   5.171  0.3764  0.4104  0.1989
17721W        W33530   8.333  12.116  14.723 -0.0990  0.0146 -0.3259
17722W        W33531   5.603   3.103  10.778 -0.0079  0.0933  0.2443
17723W        W33532   1.031   6.538  14.006 -0.5918  0.2144  0.0530
17724W        W33533   9.271  11.595   5.221 -0.1671 -0.1381 -0.0717
17725W        W33534  11.529   0.527  10.501 -0.0070 -0.0037  0.0919
17726W        W33535   1.395   8.970   5.037  0.0668  0.0109 -0.3606
17727W        W33536  12.241   4.156   2.574  0.2238  0.0884  0.0451
17728W        W33537   7.956   4.558   0.332 -0.0572 -0.1088  0.0711
17729W        W33538  15.013   1.753  13.537  0.0953  0.3385  0.0674
17730W        W33539   0.229  11.420  13.648 -0.1118  0.0029  0.0592
17731W        W33540   8.025   0.499  11.461  0.4097 -0.1056 -0.0878
17732W        W33541  17.437   9.389   1.138 -0.0991 -0.0453  0.0292
17733W        W33542   4.715   7.514  10.749 -0.2347 -0.1150  0.0650
17734W        W33543   5.343   4.275  13.874 -0.0955 -0.0581 -0.2531
17735W        W33544  14.489  17.655   1.394  0.0278 -0.2846  0.3821
17736W        W33545  14.611   8.581   2.403 -0.0771  0.2283 -0.0166
17737W        W33546  11.310  16.012   1.063  0.3039  0.0022  0.1869
17738W        W33547   3.383   5.832  13.667  0.3421 -0.2125 -0.1753
17739W        W33548  12.507  14.372  12.116  0.1986  0.1464  0.0063
17740W        W33549  12.196  13.209   1.311  0.0949  0.1755 -0.0304
17741W        W33550  10.044  14.363   4.995 -0.0813 -0.0319 -0.0430
17742W        W33551  12.495  18.861   9.950 -0.4473 -0.0057 -0.1818
17743W        W33552   0.121   6.528  12.382  0.0823  0.0414 -0.0439
17744W        W33553  13.002   6.347  11.828 -0.4486 -0.1248  0.0477
17745W        W33554   7.907   2.704  10.731  0.0464 -0.1986 -0.0205
17746W        W33555  16.579  18.930   1.613  0.0509 -0.1260  0.0266
17747W        W33556  18.281   3.943  13.467  0.1973  0.2332 -0.1767
17748W        W33557  18.947  14.571   0.727  0.0274  0.0400  0.0940
17749W        W33558  10.965   9.203  14.393  0.3067 -0.1629  0.3317
17750W        W33559  17.089   2.111  12.333 -0.1519 -0.2514 -0.1457
17751W        W33560  11.916  14.327  10.791  0.1578  0.1845 -0.3995
17752W        W33561   5.523   0.326  12.317  0.3424  0.1496 -0.0367
17753W        W33562  12.973   6.490  14.014  0.2898  0.2920 -0.3178
17754W        W33563  18.110   5.770   4.251  0.0715  0.1751 -0.1848
17755W        W33564   6.764   5.796   2.638 -0.1562  0.2576 -0.3669
17756W        W33565  14.238   3.513  12.082  0.0520 -0.1414  0.0174
17757W        W33566  10.871   1.958   2.986 -0.5819  0.2482  0.0505
17758W        W33567  14.211   8.111  14.859  0.3879 -0.2268 -0.0638
17759W        W33568  14.236   7.831   3.375 -0.0760  0.0394 -0.0725
17760W        W33569  15.425   0.390   5.025  0.2691 -0.1094 -0.0545
17761W        W33570  13.963   1.753  11.807 -0.3881 -0.0225  0.0067
17762W        W33571  18.531   9.601  15.182  0.3472 -0.1229 -0.0291
17763W        W33572   2.733  16.329   3.074  0.2533  0.0730 -0.3966
17764W        W33573   3.144   5.171   1.569  0.4031  0.0104 -0.1190
17765W        W33574  13.721  12.342   3.463  0.2923 -0.1893 -0.1918
17766W        W33575   9.484  11.904   0.936  0.0245 -0.1107 -0.1560
17767W        W33576  18.035  17.598   4.417  0.2057 -0.0616  0.1007
17768W        W33577   3.409  15.368   4.036 -0.1444 -0.1064  0.5655
17769W        W33578   5.409   1.467   1.705  0.1270 -0.0951 -0.0364
17770W        W33579  11.116   0.414   5.176 -0.2703  0.0419 -0.0399
17771W        W33580  14.873  17.970   1.544 -0.0774  0.0782  0.0755
17772W        W33581   1.806  15.577  10.961  0.0529 -0.0787  0.1190
17773W        W33582  18.753   3.931  13.169 -0.0235  0.1773  0.0529
17774W        W33583   5.363  16.048  14.883  0.1066 -0.0447 -0.0506
17775W        W33584  15.419   9.476  12.586  0.1442 -0.1871  0.2431
17776W        W33585   0.013  12.504   2.249  0.2078  0.2654 -0.1926
17777W        W33586  15.395  14.064  12.663 -0.0319  0.2309  0.4155
17778W        W33587  13.655   5.099  13.627  0.0376  0.2058  0.2588
17779W        W33588  16.803  17.646  12.656  0.2545  0.1428  0.0758
17780W        W33589   2.217   6.854   9.258 -0.2412  0.0989 -0.1350
17781W        W33590  16.119   0.906   5.048 -0.4016 -0.0562 -0.0234
17782W        W33591   8.752   5.565  10.896  0.2702 -0.0763  0.0213
17783W        W33592   9.977   7.976   2.584 -0.0909  0.1142  0.1215
17784W        W33593  18.333  14.125   5.487  0.4223  0.1988  0.0383
17785W        W33594   9.316   9.886   4.374  0.0710 -0.2066 -0.0442
17786W        W33595   0.924  15.987   3.878 -0.3042 -0.0938  0.0568
17787W        W33596  14.074  17.854   0.129  0.1537  0.0830  0.1986
17788W        W33597  18.297   8.740   0.879 -0.2222  0.1947 -0.2646
17789W        W33598  11.737  17.943   0.686  0.0217  0.0848 -0.1632
17790W        W33599  18.877   2.875   2.858  0.1325 -0.0883  0.0289
17791W        W33600   4.243   0.419   1.559 -0.3697  0.1044 -0.1197
17792W        W33601  15.225   7.105   1.701  0.1270  0.0901  0.1512
17793W        W33602   5.236   9.971  10.397  0.1699  0.1918  0.0227
17794W        W33603   6.422   2.217   1.488 -0.1249  0.2597  0.0536
17795W        W33604  17.685  11.627   3.821  0.1978 -0.0031  0.0619
17796W        W33605  13.185   4.545  13.164  0.2035 -0.4226 -0.0903
17797W        W33606   8.818  12.857   2.838 -0.2207  0.0928 -0.2447
17798W        W33607  16.093  12.758   2.013 -0.0817 -0.3998  0.0697
17799W        W33608   7.622  12.651  12.113  0.2909  0.1164  0.0757
17800W        W33609   1.413   0.229   3.247  0.1276  0.1117 -0.3896
17801W        W33610   5.297   7.708  13.031  0.2391  0.2812  0.0289
17802W        W33611   2.218  10.789   2.357  0.1671 -0.0859  0.2289
17803W        W33612   7.464  13.890   1.695  0.0544  0.2330 -0.2744
17804W        W33613  18.008   8.081  10.977 -0.0964 -0.0044 -0.1348
17805W        W33614   9.464   1.749  14.983  0.2758 -0.1601  0.2726
17806W        W33615  10.334   3.378   1.394  0.3973 -0.1817  0.0172
17807W        W33616  10.838   6.960  10.453  0.0370 -0.2415  0.2260
17808W        W33617   4.855   4.662   1.173  0.1192 -0.1385 -0.0256
17809W        W33618   4.133  10.310   9.833 -0.1237 -0.2004  0.1078
17810W        W33619   4.929   4.127   0.337  0.1364 -0.1172  0.1423
17811W        W33620   4.776   6.352   5.736  0.0069  0.0662 -0.2348
17812W        W33621   7.491   0.450   0.085 -0.0036 -0.6603  0.3485
17813W        W33622  15.682  10.242  10.103 -0.0168 -0.0699 -0.2430
17814W        W33623  15.715  12.792   9.670 -0.1539 -0.3474  0.0845
17815W        W33624  10.800  10.197   0.187 -0.1820  0.2167 -0.2584
17816W        W33625   9.431   2.686   4.894 -0.2876  0.1578 -0.2954
17817W        W33626   8.834   7.446  12.404  0.0651 -0.2792  0.1897
17818W        W33627   9.564   1.480   1.727  0.0680  0.0031 -0.0636
17819W        W33628  17.426   4.661   1.334  0.1734 -0.0221 -0.2611
17820W        W33629   2.995   7.040   3.356  0.0762 -0.0450 -0.0570
17821W        W33630   6.661  17.938  14.040 -0.2517 -0.0674 -0.1376
17822W        W33631   4.243   0.371  14.154  0.1528  0.4035 -0.3051
17823W        W33632   6.574   8.661  13.930 -0.2292  0.1077 -0.1090
17824W        W33633  17.020   3.892   3.647  0.2523 -0.0542  0.0831
17825W        W33634  16.063   6.648   2.054  0.3623  0.1640 -0.3255
17826W        W33635  17.028  11.054   4.219 -0.0053 -0.2493  0.1577
17827W        W33636  13.249  15.807   5.848 -0.0655  0.1843  0.1387
17828W        W33637  16.589   0.598   0.870 -0.0619  0.0088  0.0842
17829W        W33638   1.945   5.784  14.478  0.0484 -0.1627 -0.2101
17830W        W33639   0.740   8.869   5.407  0.0327 -0.0326 -0.3362
17831W        W33640   1.817   6.346   0.377  0.2759  0.0555 -0.2953
17832W        W33641  13.435  15.949  13.427  0.0500 -0.0563 -0.2939
17833W        W33642   4.437  10.981  11.419 -0.1033  0.3191  0.1758
17834W        W33643  15.719   0.560   1.762 -0.3520 -0.2634  0.1473
17835W        W33644   9.473  18.231   2.180  0.0107  0.0062  0.2730
17836W        W33645   3.049  15.925   2.999 -0.1127  0.2643 -0.1103
17837W        W33646   5.119  11.954   9.153 -0.0475 -0.2789 -0.0638
17838W        W33647  18.025  18.342  10.471  0.1305  0.0797  0.0899
17839W        W33648   5.720  10.219   2.074  0.1042  0.4470  0.0044
17840W        W33649  18.411  11.642  14.452 -0.2079 -0.0114  0.3409
17841W        W33650   9.130  11.146   1.771 -0.3076 -0.1331 -0.2733
17842W        W33651  15.468  17.739  12.153 -0.0803  0.1978  0.3354
17843W        W33652   0.648   0.522   3.426  0.0895 -0.0817  0.1326
17844W        W33653   6.210  14.840   0.317  0.0916 -0.3334  0.2639
17845W        W33654   4.997   0.114   1.910 -0.1359 -0.1478  0.1015
17846W        W33655   8.502   0.706   0.539  0.2556 -0.2084 -0.4153
17847W        W33656   4.976   2.707   1.356 -0.1671 -0.0288 -0.1334
17848W        W33657  14.116   0.914   1.926  0.1977  0.3991 -0.0762
17849W        W33658   1.333  10.595  12.873  0.3105  0.1433 -0.0922
17850W        W33659  16.664  13.086  14.299 -0.2994 -0.3322 -0.1954
17851W        W33660   4.056  14.108  14.314  0.0308  0.2474 -0.0332
17852W        W33661  10.508   2.782   0.305  0.2227 -0.2318 -0.3501
17853W        W33662   1.047   7.938  11.917  0.1378 -0.1297  0.2280
17854W        W33663  15.662   4.466   5.085 -0.1554 -0.0525 -0.1029
17855W        W33664  13.684   7.163   0.270 -0.1152 -0.0124  0.1779
17856W        W33665   9.550   5.378   4.915 -0.1316 -0.2183  0.1377
17857W        W33666  14.210  10.645   0.406 -0.2074 -0.4901 -0.3154
17858W        W33667   9.547  16.292   5.230  0.2565 -0.3637 -0.1749
17859W        W33668  10.844   6.521   1.187  0.0732  0.0246 -0.2232
17860W        W33669   9.655   3.108  15.288  0.1986 -0.0615  0.0679
17861W        W33670   2.320   5.784   2.686  0.1382  0.2712  0.0267
17862W        W33671   8.052   1.979   5.346  0.1547  0.2647  0.3012
17863W        W33672  14.206  12.282  13.130  0.4034 -0.2058  0.0787
17864W        W33673   8.658   2.862  12.910  0.3453 -0.0746 -0.2912
17865W        W33674   6.743   1.391   1.175  0.3011  0.0862  0.2682
17866W        W33675   8.868  18.386   2.797 -0.1192  0.1521  0.1588
17867W        W33676   9.415   4.931  15.062  0.2733  0.0461 -0.2778
17868W        W33677   1.748  13.026   5.638  0.0078 -0.1294  0.0345
17869W        W33678  18.796   9.856   0.322 -0.1531  0.0892 -0.2352
17870W        W33679   4.098  16.193  11.534 -0.1921 -0.1907  0.1708
17871W        W33680   6.616  12.136  13.530  0.1823 -0.4739  0.1236
17872W        W33681   4.631  12.330  11.180 -0.2952  0.2720 -0.0868
17873W        W33682   7.223  10.882  11.015  0.2853  0.3593 -0.3288
17874W        W33683  16.459   1.358   2.371  0.2729 -0.1061  0.2515
17875W        W33684   7.205   6.663   4.375 -0.3407 -0.1377  0.0495
17876W        W33685  18.916   6.932   2.307 -0.3592 -0.1606 -0.0936
17877W        W33686  14.678   8.334  12.550 -0.0907  0.0945 -0.0303
17878W        W33687   0.259   4.971  13.961 -0.0673  0.1313 -0.2292
17879W        W33688   3.723  10.242   1.592  0.0181 -0.1717  0.0836
17880W        W33689  12.423  17.913  11.205 -0.2015 -0.0716 -0.0826
17881W        W33690  12.038  11.873  13.553 -0.2249  0.1243  0.0653
17882W        W33691  15.955   6.144  12.990  0.0743 -0.1717  0.0838
17883W        W33692   7.734  11.141   1.017 -0.1157 -0.1988  0.1582
17884W        W33693  16.653   2.785  13.738  0.1241 -0.1364 -0.1183
17885W        W33694   7.650  16.344  12.938  0.1500 -0.2292  0.0268
17886W        W33695   3.150   1.355   0.672 -0.0263  0.2360  0.5053
17887W        W33696   0.926  12.257  11.748 -0.0119  0.2118 -0.1645
17888W        W33697   8.905   8.034  11.707 -0.2620 -0.0586  0.1600
17889W        W33698   2.242   4.160  14.386 -0.2526 -0.2082 -0.0783
17890W        W33699   6.541   8.767   3.080 -0.0764  0.2646 -0.2290
17891W        W33700  11.062   5.647   5.140  0.1206 -0.1613  0.0721
17892W        W33701   6.483  10.402  15.189  0.0968 -0.0590  0.1331
17893W        W33702   0.500  17.027   1.329  0.2147 -0.0048  0.2832
17894W        W33703   5.467  18.099  14.726 -0.3668 -0.1572 -0.0214
17895W        W33704   5.172   7.190  14.903 -0.2698 -0.0716 -0.2598
17896W        W33705   5.591  18.896   1.475 -0.0701  0.3099 -0.1040
17897W        W33706  16.441  11.643   2.528  0.2505 -0.3363  0.0562
17898W        W33707  18.723  16.795   0.720 -0.0102  0.2387  0.2385
17899W        W33708  16.822   2.993   4.460 -0.3415  0.1709 -0.1102
17900W        W33709   6.215   8.464  15.034  0.2811 -0.0168  0.0617
17901W        W33710   8.410  15.580  15.272 -0.1408 -0.0591  0.1484
17902W        W33711  11.221  18.497  12.062 -0.0464  0.1915 -0.1536
17903W        W33712  14.895   5.399  10.357  0.3538 -0.0106  0.0868
17904W        W33713  15.232   3.835   3.998 -0.1307 -0.0022  0.0562
17905W        W33714  17.345  15.332  12.147 -0.3278 -0.0974 -0.0035
17906W        W33715  17.272   9.715   0.729 -0.0727  0.1387  0.3040
17907W        W33716  13.520  17.631  12.252 -0.3006 -0.0903  0.1790
17908W        W33717   7.404   6.331  10.986  0.2281 -0.1125 -0.2221
17909W        W33718  12.909   2.807   4.982 -0.1735  0.3967  0.0714
17910W        W33719  17.006   1.836  11.157 -0.0837 -0.1566 -0.0967
17911W        W33720   0.262  14.599   4.311 -0.1940 -0.3326  0.4642
17912W        W33721  15.193  13.536  13.032 -0.2398 -0.1066  0.1717
17913W        W33722   9.552   7.112  12.635 -0.2595 -0.2746  0.5615
17914W        W33723   1.960  17.860   4.544 -0.0721  0.1621 -0.3285
17915W        W33724  10.024   3.478   4.757  0.0061 -0.2082  0.3264
17916W        W33725   1.285  15.509   1.711 -0.0462 -0.3286  0.0385
17917W        W33726  13.809   9.976   5.715  0.0212  0.1551  0.2062
17918W        W33727  15.490  14.990   2.049  0.0192 -0.1692  0.1126
17919W        W33728  11.347   7.531  10.312  0.2713 -0.4987 -0.2104
17920W        W33729   8.415   6.111  15.066 -0.0817  0.0114  0.0140
17921W        W33730  15.940  11.943  12.618 -0.0820  0.2196  0.1481
17922W        W33731   5.456   6.245   3.072  0.2640 -0.0489 -0.2191
17923W        W33732   7.687  15.639   3.746  0.1462  0.1316 -0.2484
17924W        W33733  12.041  13.617   3.253 -0.1737 -0.2280 -0.2170
17925W        W33734   1.077  13.741  10.092  0.1920 -0.1023 -0.0655
17926W        W33735   4.795   9.555  14.313 -0.1003 -0.0037 -0.2704
17927W        W33736  17.058   8.952  14.221 -0.3056 -0.2263 -0.0033
17928W        W33737  12.238  18.677  11.259 -0.1022  0.2084 -0.1647
17929W        W33738   6.256   3.605   0.926  0.0701 -0.0369 -0.1540
17930W        W33739  10.847  17.119   3.818 -0.0563  0.1085  0.4863
17931W        W33740   6.663   5.011  11.084 -0.0667  0.4211  0.0518
17932W        W33741   3.457   9.361   2.394  0.0630 -0.0468  0.0090
17933W        W33742   6.262   1.598   8.845  0.0070 -0.3048 -0.0363
17934W        W33743  14.905  13.168  10.731  0.1770 -0.0947  0.1526
17935W        W33744  18.186   7.571  14.808 -0.0878  0.0907 -0.1440
17936W        W33745  13.029   2.115   2.614  0.0087 -0.2916  0.0431
17937W        W33746   0.200  18.336  15.012  0.0308  0.0077  0.0898
17938W        W33747   3.951   4.926   3.849 -0.2247 -0.0714 -0.0844
17939W        W33748   6.557  16.853   2.047 -0.0671  0.0200  0.0499
17940W        W33749  14.199   6.565   3.258  0.3062  0.1156  0.1270
17941W        W33750  12.990  17.025  14.507  0.2238  0.1801 -0.0732
17942W        W33751   4.853   5.297  10.172 -0.3494 -0.0212  0.0453
17943W        W33752   4.471   4.962   0.836 -0.0486 -0.0586 -0.1595
17944W        W33753   8.261   2.844   2.379  0.1138 -0.2573 -0.2590
17945W        W33754  17.239   2.964   3.722 -0.3183 -0.0098  0.1895
17946W        W33755  12.545   3.689   3.973 -0.4929  0.4217 -0.0793
17947W        W33756  10.769  18.932   0.941  0.2837 -0.0172  0.1644
17948W        W33757   4.392   2.846  11.399  0.0551  0.2238 -0.2299
17949W        W33758   7.587  12.413  10.834 -0.1699 -0.0585  0.2856
17950W        W33759  14.913   1.460   0.571  0.1528  0.1833 -0.3502
17951W        W33760   9.943   5.086   4.694  0.0785 -0.3551 -0.1598
17952W        W33761  13.820   3.318  13.291 -0.0486 -0.2084 -0.0693
17953W        W33762   5.209  11.256  13.791  0.0112  0.0959  0.0110
17954W        W33763   2.302  14.010  15.085  0.1162 -0.3087  0.2312
17955W        W33764  11.580  10.790  11.865  0.3232 -0.0047 -0.2841
17956W        W33765  18.755   6.725   4.571  0.3946 -0.0896 -0.0555
17957W        W33766   2.556  14.480  10.591 -0.4429 -0.0151 -0.1288
17958W        W33767  16.480   3.002   3.140 -0.0097  0.0779 -0.0094
17959W        W33768   9.775  16.355   2.681  0.0320 -0.2432  0.2786
17960W        W33769   5.055   2.445   0.572  0.1408  0.0251 -0.0932
17961W        W33770  16.126  10.444   4.323 -0.0037  0.3647  0.2343
17962W        W33771   7.739   0.965  12.269  0.2343  0.0934 -0.0609
17963W        W33772   7.218   5.184   3.004  0.5393 -0.4431 -0.1519
17964W        W33773   7.128   1.302  11.406  0.0998  0.2235  0.0899
17965W        W33774   9.526  16.376  14.635  0.1471 -0.0481 -0.0118
17966W        W33775  15.300   4.601  14.470 -0.2813  0.0465 -0.2451
17967W        W33776  16.098   0.903   2.333 -0.2909  0.1543  0.0607
17968W        W33777  17.914  13.487   5.619  0.1096 -0.3957  0.0926
17969W        W33778  12.609   6.071  11.651 -0.1811  0.0124  0.2420
17970W        W33779   3.641  13.336  12.215  0.0185  0.0568  0.1899
17971W        W33780  18.841   9.895   5.077 -0.0372  0.1974  0.0580
17972W        W33781   7.548  14.825  11.177  0.0369 -0.0054  0.2081
17973W        W33782  10.514   6.522  14.805  0.2703 -0.3468  0.1334
17974W        W33783  18.298   3.268  10.143 -0.2418 -0.2258  0.0362
17975W        W33784   2.920  11.630  12.973  0.3811 -0.0380  0.2391
17976W        W33785   3.360   4.874  15.176 -0.3420 -0.0280  0.1987
17977W        W33786  13.845  14.127  15.192  0.1435 -0.1352  0.0247
17978W        W33787   2.194  18.899   3.361 -0.1150 -0.2977 -0.0596
17979W        W33788   3.869   3.527  11.693 -0.1631  0.1512 -0.2444
17980W        W33789  11.458  18.683   4.678  0.3317  0.2270  0.4394
17981W        W33790  17.061  11.734   5.880  0.0622 -0.0102  0.0622
17982W        W33791   9.889   4.713   3.627  0.2033 -0.3686  0.1384
17983W        W33792   8.037   8.683   5.329 -0.1676  0.0876  0.0253
17984W        W33793   3.117   6.412   3.936 -0.1452 -0.0190  0.1594
17985W        W33794  16.281  14.077   4.066  0.0362 -0.2785 -0.1877
17986W        W33795  17.398   4.322   5.356  0.1502 -0.1699 -0.0794
17987W        W33796   3.675  12.560  10.725 -0.1987  0.1994  0.3274
17988W        W33797   5.221   0.476  13.050  0.4327 -0.0403  0.0052
17989W        W33798   6.600  17.473  15.049 -0.0635 -0.1815 -0.0338
17990W        W33799  11.892  16.867   3.565  0.0881  0.1596 -0.0985
17991W        W33800   3.256  17.097   3.033 -0.1093  0.0481  0.2603
17992W        W33801   1.279  11.634  10.520  0.1249  0.3853  0.0048
17993W        W33802  12.843  18.160   0.715  0.0660  0.0210 -0.1839
17994W        W33803  13.333   3.338  11.459  0.0111  0.1131  0.0823
17995W        W33804  18.342   5.337   3.390  0.0806 -0.2561  0.0795
17996W        W33805  15.503  12.631   3.631 -0.1028 -0.1269 -0.0447
17997W        W33806   1.894  11.612  13.253 -0.0385  0.2004 -0.0206
17998W        W33807   3.118  10.784  12.677  0.0263  0.1442 -0.2173
17999W        W33808   6.824   2.170  12.897  0.1034  0.1398  0.0592
18000W        W33809   5.818  14.500  15.196  0.0472 -0.1964  0.3545
18001W        W33810   7.743  13.175   3.437  0.0422  0.2981 -0.1484
18002W        W33811  12.103   2.674  10.696 -0.0512  0.2138  0.2245
18003W        W33812  10.202  11.317  14.015 -0.2996  0.0140 -0.0491
18004W        W33813  12.384   7.962   4.377  0.1443 -0.1306  0.3127
18005W        W33814  11.177   9.915  13.231  0.2425 -0.2174  0.5671
18006W        W33815  14.774   1.727   3.296  0.2156 -0.0950  0.1330
18007W        W33816   0.544   7.980   4.505  0.0950  0.4491 -0.2827
18008W        W33817  10.268   6.483   1.699 -0.1642  0.1331 -0.1087
18009W        W33818  12.343   5.520   5.356  0.1215  0.0478  0.0437
18010W        W33819   6.404   6.782  14.063 -0.0315 -0.1559 -0.1424
18011W        W33820  17.131   1.994  10.678  0.0966 -0.2448 -0.1051
18012W        W33821  12.270   1.155  12.107  0.0310  0.0520  0.3480
18013W        W33822   6.557  18.625  11.778  0.1859  0.0187  0.5559
18014W        W33823  18.054  16.458  14.581 -0.1345  0.1821  0.2066
18015W        W33824   2.313  10.015  14.448  0.0721 -0.3340 -0.1666
18016W        W33825   3.517   3.377  12.089 -0.4778 -0.1214  0.1438
18017W        W33826   4.182  11.547  12.346  0.0629  0.3664  0.0257
18018W        W33827   2.818   5.103   3.237 -0.1252  0.1892  0.1752
18019W        W33828   2.568   9.377   3.765 -0.3000 -0.0119  0.3180
18020W        W33829   7.405  16.522  10.421  0.0001 -0.1793  0.4351
18021W        W33830   2.272   8.778   3.939 -0.1401  0.0824 -0.1134
18022W        W33831   5.145   6.655  14.191  0.2106  0.1321 -0.2425
18023W        W33832   5.979   1.753   2.039 -0.1991 -0.0792  0.4092
18024W        W33833   2.949   7.026   4.381 -0.1113  0.2521 -0.1666
18025W        W33834  12.280   9.714   5.044  0.1381  0.2754 -0.1100
18026W        W33835  11.458  15.645   2.425  0.1298 -0.3629 -0.1331
18027W        W33836   7.322   7.095   2.079 -0.1721 -0.1359  0.0010
18028W        W33837   3.518  11.340   2.601  0.2454 -0.1173  0.1913
18029W        W33838   2.361   5.475  14.407  0.2267  0.3581  0.0634
18030W        W33839   7.502  16.349  15.164 -0.2255  0.1914 -0.0855
18031W        W33840   4.810  13.821   0.479 -0.0352 -0.0600  0.0128
18032W        W33841   3.708  15.166   0.541 -0.0817 -0.2492 -0.2545
18033W        W33842   9.357   4.945  13.819  0.2279 -0.1456  0.2658
18034W        W33843  15.267  18.509  15.031 -0.0829  0.1838 -0.1257
18035W        W33844   9.788  12.288   4.591  0.1575  0.0457 -0.2671
18036W        W33845  13.396   8.763   2.336  0.1442  0.1195  0.1607
18037W        W33846   6.904   5.464  13.607  0.2088 -0.2803 -0.0023
18038W        W33847  17.915   7.189  14.792 -0.1079  0.1139 -0.1717
18039W        W33848   0.800  15.625   1.901 -0.1300  0.2844  0.0012
18040W        W33849  18.489   0.561   1.749  0.0560  0.0422 -0.1929
18041W        W33850   1.346   1.021  14.782  0.4148 -0.1223  0.3567
18042W        W33851  15.655  15.525   2.791 -0.2468  0.0581 -0.3122
18043W        W33852  17.054  14.002  11.802  0.0305  0.0118  0.1353
18044W        W33853   3.755   7.225  10.020  0.0404 -0.0059  0.3375
18045W        W33854   2.688   3.852  11.242  0.3922 -0.0042 -0.4154
18046W        W33855   5.136  12.786   2.235  0.0284 -0.0044  0.0654
18047W        W33856  11.735  11.960  12.652  0.3420  0.0155  0.1631
18048W        W33857  11.481  11.689  11.832 -0.1111 -0.1884  0.0538
18049W        W33858  12.309   9.119   3.873  0.0245  0.0687  0.5854
18050W        W33859   9.278   7.476  11.571  0.0927 -0.0563 -0.1464
18051W        W33860   6.866  15.270   3.890  0.0245 -0.0490 -0.0692
18052W        W33861   1.973   2.967  10.570 -0.5262 -0.1243  0.0824
18053W        W33862   2.398  12.153  14.049  0.5490 -0.1870 -0.0045
18054W        W33863  17.398   3.393   2.118 -0.3603  0.0827  0.1190
18055W        W33864  13.111  17.306   0.841 -0.1754 -0.0142  0.0236
18056W        W33865  13.463   2.723  14.420  0.0167 -0.2076 -0.2645
18057W        W33866   7.563  11.084   2.617 -0.2487  0.3115 -0.2106
18058W        W33867  12.684   4.698   1.343 -0.2461  0.0711  0.1762
18059W        W33868   8.607  10.403   0.403 -0.1197 -0.0861  0.0020
18060W        W33869   7.009   9.396  12.429  0.2082  0.2090  0.0527
18061W        W33870   6.459  15.416   1.090 -0.0304  0.1486 -0.0093
18062W        W33871  16.255   1.697  12.834  0.0020 -0.0685 -0.1837
18063W        W33872   3.506   0.602  10.906 -0.0659 -0.0658 -0.2247
18064W        W33873   5.086  15.346   1.066  0.0672  0.0209  0.0789
18065W        W33874   8.859   1.414   0.605 -0.1284  0.4096 -0.1316
18066W        W33875   4.895   8.644  15.185  0.1821  0.1745  0.1120
18067W        W33876   3.835   3.561  14.201 -0.1114 -0.1853 -0.0459
18068W        W33877   3.036   0.943  11.800 -0.3005  0.1421  0.1888
18069W        W33878   7.066   4.736   1.774  0.1174 -0.0774  0.1540
18070W        W33879   9.392   2.165   2.950  0.5282 -0.0714 -0.4693
18071W        W33880   7.602   4.607   4.174 -0.1204 -0.2199 -0.2134
18072W        W33881  18.652   1.947  11.974 -0.1572  0.0044 -0.3246
18073W        W33882   8.974   8.956  11.450 -0.1240 -0.0240  0.0660
18074W        W33883  14.899   4.725  13.911  0.3102  0.2465  0.0657
18075W        W33884   7.102   6.714  15.070 -0.1487 -0.1391 -0.0258
18076W        W33885  10.318  15.365   1.590  0.2780 -0.0554  0.0874
18077W        W33886  16.502  13.359   0.701 -0.0127 -0.2862  0.1543
18078W        W33887  10.260   8.712   3.274  0.1349  0.1026 -0.0481
18079W        W33888   1.733  14.956   0.246  0.0608 -0.2682 -0.0856
18080W        W33889  10.428  16.623  14.831 -0.0876  0.0319  0.0410
18081W        W33890  11.129   8.720  14.269  0.0398  0.2374  0.1522
18082W        W33891  12.837   8.207  12.044 -0.3396  0.2188  0.1662
18083W        W33892  10.256   2.085   5.087  0.2508 -0.3660 -0.0330
18084W        W33893   1.068  12.256   3.692  0.1861  0.2024  0.0605
18085W        W33894  15.969   9.548  12.394 -0.1370  0.1536  0.0447
18086W        W33895   8.681  17.456  12.969  0.0548 -0.0805 -0.0480
18087W        W33896   7.945   8.651  10.139 -0.0994 -0.1611  0.0851
18088W        W33897  18.314   3.143   9.649 -0.3094  0.1642  0.0646
18089W        W33898  14.319   6.017  12.199  0.4190  0.0587  0.0326
18090W        W33899  11.916  12.731   3.758 -0.2321  0.1043  0.0476
18091W        W33900   9.818  10.009  15.158  0.3027 -0.0994 -0.0785
18092W        W33901  11.229  17.605   4.198  0.0554 -0.1155 -0.0487
18093W        W33902  10.109  10.763   0.156  0.0840  0.1395  0.1800
18094W        W33903   4.814  15.621  14.640  0.0800  0.0290  0.0880
18095W        W33904   7.780  13.188   4.351 -0.0888 -0.3134  0.0273
18096W        W33905   6.082  12.623   0.342  0.0727 -0.0087  0.1205
18097W        W33906   4.142   2.410  13.523  0.1983 -0.0773  0.0257
18098W        W33907   9.931   8.466  12.008  0.0133  0.2121  0.2452
18099W        W33908   6.466   5.137   2.617  0.0547 -0.0644 -0.1010
18100W        W33909   9.170   2.689   0.698 -0.0574  0.1333  0.3539
18101W        W33910  10.020   7.392   3.887  0.3095 -0.2069 -0.0003
18102W        W33911   4.142   4.321   4.946  0.1784 -0.1347  0.3747
18103W        W33912   9.448   1.196   2.808  0.0902 -0.1201  0.2949
18104W        W33913   4.571   0.864   0.895  0.0169 -0.1890 -0.3410
18105W        W33914   8.446  15.463   3.399  0.0617 -0.1406 -0.0528
18106W        W33915  18.130   8.063  11.565  0.0247  0.1614  0.0433
18107W        W33916  18.819  12.749  12.005 -0.1514 -0.0686  0.0606
18108W        W33917   3.837   1.385  10.770 -0.0083  0.0158  0.0251
18109W        W33918   0.203   7.709  11.568  0.0353  0.1436  0.1371
18110W        W33919  14.131  13.779  11.496 -0.2391  0.1729  0.0177
18111W        W33920  13.595   4.891  11.002 -0.1111  0.1293 -0.0818
18112W        W33921  13.518   5.467  11.621 -0.3770  0.2544 -0.2216
18113W        W33922   0.439  15.213   5.181 -0.1875  0.1455  0.0460
18114W        W33923   2.894   8.514  14.193 -0.0551  0.1903  0.1073
18115W        W33924   4.648   9.504   1.912  0.0813  0.1545 -0.3474
18116W        W33925   5.243  16.492  14.609  0.0492 -0.4532  0.1052
18117W        W33926   8.114  10.468   1.608 -0.1036  0.1720  0.1353
18118W        W33927   1.608  15.014   2.097  0.0556  0.0929  0.3416
18119W        W33928  17.838   1.247   4.827 -0.0382  0.2206 -0.1400
18120W        W33929   9.850   0.908   3.753 -0.0145  0.1181 -0.0896
18121W        W33930   6.919   2.098  11.248  0.2278  0.1446 -0.0020
18122W        W33931   3.237  14.919  11.537  0.2840  0.0636 -0.3042
18123W        W33932   2.136   6.519  13.997  0.3346  0.0490 -0.0186
18124W        W33933   5.369  14.347  14.241 -0.1183 -0.1085  0.1816
18125W        W33934  14.096   3.419   3.879  0.0993 -0.2401  0.1858
18126W        W33935   5.024  11.848   4.858  0.1757 -0.2662  0.1501
18127W        W33936  10.739   1.205   4.619  0.2213  0.1155  0.0675
18128W        W33937  10.596  14.642   5.132  0.3812 -0.0635  0.4442
18129W        W33938   9.639  14.799  11.022 -0.0280  0.3345 -0.1960
18130W        W33939   1.285   2.456  11.484  0.0668  0.0755 -0.0084
18131W        W33940   6.107   0.158  13.933 -0.4410  0.2651  0.1094
18132W        W33941  13.351  18.267   0.541  0.0223  0.1823  0.0022
18133W        W33942   6.367   9.752   4.360  0.0346  0.5328  0.3081
18134W        W33943  14.722   4.402  14.782  0.0007  0.0602 -0.0842
18135W        W33944  11.386  18.083   4.262  0.1720 -0.0085 -0.1583
18136W        W33945   4.358  18.848  14.134 -0.1606 -0.0608  0.2587
18137W        W33946   3.194  11.679  13.731 -0.0587  0.4309 -0.1533
18138W        W33947  14.567   9.421   2.355  0.0212  0.0690 -0.0186
18139W        W33948   1.186  12.684   3.963  0.0972  0.1300  0.2779
18140W        W33949  10.657   1.138   1.444 -0.3309 -0.5589 -0.0720
18141W        W33950  10.556   4.321   9.910  0.2652 -0.3119  0.3193
18142W        W33951  14.430  18.692  10.359  0.0259  0.0841  0.0442
18143W        W33952  16.734   9.554  10.887 -0.1335  0.4146 -0.1962
18144W        W33953   2.058  17.823   0.276 -0.4152 -0.0288  0.0938
18145W        W33954  14.647  18.863  10.758 -0.1335 -0.1252 -0.1457
18146W        W33955  16.424   5.540  12.471 -0.0792 -0.1055  0.1974
18147W        W33956   4.232   0.039  10.476 -0.3087  0.0642 -0.2005
18148W        W33957  10.821  12.100   4.453 -0.3097  0.2139 -0.1477
18149W        W33958  12.546   6.945   0.941 -0.1513 -0.2569 -0.0949
18150W        W33959   9.019  14.449   2.825  0.0468 -0.1284  0.2630
18151W        W33960   5.975  13.265   1.081  0.2925  0.2351 -0.0670
18152W        W33961  12.948   4.371   1.712 -0.1551  0.1154  0.0471
18153W        W33962  17.239   9.889   2.544  0.2336  0.0013  0.4401
18154W        W33963  14.937   7.645   2.612 -0.1142 -0.0667  0.0628
18155W        W33964   2.252  13.764  13.801 -0.2207  0.2165 -0.4088
18156W        W33965  15.589  18.489  11.740 -0.0039 -0.0926 -0.0359
18157W        W33966  11.578   2.938  13.350  0.1456 -0.1715 -0.3893
18158W        W33967  15.789   9.531  10.109 -0.1327 -0.2060  0.1653
18159W        W33968  16.962  15.588  13.718  0.0484 -0.0099  0.0368
18160W        W33969   7.245   6.165  13.287  0.0095  0.0228  0.2050
18161W        W33970  10.202   0.830   5.604  0.0703 -0.0109  0.0116
18162W        W33971   7.731   1.425   2.655 -0.2469  0.0810 -0.1826
18163W        W33972  11.243   5.509  15.023  0.0607  0.2689  0.1770
18164W        W33973  14.611   9.624  13.015 -0.3889 -0.4387  0.0147
18165W        W33974   3.371   6.680   1.485  0.2631  0.1797  0.2562
18166W        W33975   1.772  12.642   1.639  0.0296 -0.1052  0.0962
18167W        W33976  15.602   0.898  13.740 -0.0358  0.1735 -0.3190
18168W        W33977   2.627   5.398   9.917  0.3083 -0.0556  0.0592
18169W        W33978   5.052   0.306   1.377  0.0584  0.1974 -0.1716
18170W        W33979   5.264  13.003   2.777  0.0130 -0.1677 -0.0005
18171W        W33980   8.212   0.991  10.004  0.0095  0.3580 -0.2163
18172W        W33981  16.682   6.396   1.095  0.0717 -0.0053  0.1714
18173W        W33982   8.703   4.744  14.933  0.3818 -0.1002  0.4215
18174W        W33983  10.521   0.456  14.823  0.0356 -0.0049 -0.1985
18175W        W33984  16.839  16.405   3.377 -0.1120 -0.0828 -0.1417
18176W        W33985   0.403  12.983  12.924  0.1703  0.0377  0.0972
18177W        W33986  14.020   5.566   3.205  0.2388  0.0931 -0.3601
18178W        W33987  10.066  16.796   0.871  0.2071 -0.1406 -0.0350
18179W        W33988   3.725  11.995   2.646  0.2164 -0.0298  0.0917
18180W        W33989  16.472  12.188   2.146  0.2543 -0.1821 -0.1527
18181W        W33990   8.617   4.808  13.173  0.0509  0.2365  0.2204
18182W        W33991  15.528   2.199  12.622 -0.0113  0.1093 -0.1075
18183W        W33992   3.623  10.910  11.223 -0.0433  0.0718 -0.1402
18184W        W33993  16.254   1.453   5.219 -0.0525 -0.2190 -0.0127
18185W        W33994   3.950  10.908  13.330 -0.0568 -0.0615  0.5001
18186W        W33995   5.956  11.700  15.152 -0.0174 -0.2076 -0.0515
18187W        W33996  18.236  13.537  14.234  0.0893  0.1479 -0.1871
18188W        W33997   3.695  12.288  11.161  0.1888 -0.3488  0.1202
18189W        W33998  12.373  11.996   4.218  0.1719 -0.1174  0.0245
18190W        W33999   6.548   0.403   4.816 -0.0951 -0.1258 -0.1693
18191W        W34000  17.953  15.426   0.322 -0.0862  0.2227  0.1753
18192W        W34001  16.789  15.799  13.238 -0.1077 -0.1924 -0.0318
18193W        W34002  14.533  10.197  10.933  0.0652  0.0046 -0.1487
18194W        W34003  11.879   9.524   0.301 -0.1904 -0.2649  0.0015
18195W        W34004  10.355  18.107  10.316 -0.1065 -0.0756 -0.1760
18196W        W34005  13.840  16.351  13.176  0.4281 -0.5219 -0.2863
18197W        W34006  14.840  15.250  15.163  0.0019  0.1833  0.4276
18198W        W34007   6.703  18.124   1.864  0.4689  0.1398  0.0729
18199W        W34008  13.275  12.135  11.681  0.0618  0.3249 -0.3341
18200W        W34009   2.150   2.602  12.199  0.0372 -0.0064 -0.5100
18201W        W34010  17.209   7.652  15.130  0.0655 -0.0953 -0.0847
18202W        W34011  10.539   1.072  10.944 -0.0525 -0.1981  0.0701
18203W        W34012   1.955  15.689   1.725 -0.2344 -0.0124  0.2274
18204W        W34013   0.751   6.339  14.918 -0.2287  0.0959 -0.0415
18205W        W34014   1.137  13.164  10.880 -0.1282 -0.1973  0.2855
18206W        W34015  18.729  11.787  14.865  0.1616 -0.0461  0.3414
18207W        W34016  17.196   0.900  12.816 -0.0975 -0.0365 -0.3175
18208W        W34017   3.416  13.441   3.932  0.2243 -0.1388  0.0673
18209W        W34018   1.885  11.004  14.488 -0.1363  0.3186 -0.3239
18210W        W34019  17.955  10.929   5.014  0.1013 -0.1044 -0.2084
18211W        W34020  11.134   9.798  10.378  0.0294  0.2319 -0.0602
18212W        W34021   7.788  15.513   2.169 -0.0812 -0.2479 -0.0115
18213W        W34022  13.668  18.053  11.556  0.0860  0.0480  0.0937
18214W        W34023  15.370  12.082  13.802 -0.1007  0.1052  0.1484
18215W        W34024   3.451  12.185   4.569  0.0658  0.1693  0.2870
18216W        W34025  10.791  17.516   1.967 -0.0978  0.0612  0.1687
18217W        W34026   4.335   3.966  12.243 -0.2227 -0.0565  0.0860
18218W        W34027  13.581  14.166   1.152 -0.0574  0.2483  0.0149
18219W        W34028  12.543  14.941   3.231  0.1216  0.0036 -0.1163
18220W        W34029  12.033   2.331   1.811 -0.0385  0.1827 -0.0562
18221W        W34030   6.245   8.120  11.162 -0.3234 -0.3116  0.1379
18222W        W34031  14.834   5.299   3.728  0.2093  0.0143  0.0075
18223W        W34032   7.521  12.241  12.380  0.1266 -0.0945  0.2771
18224W        W34033   7.245   6.150  11.821 -0.2597  0.0916 -0.2053
18225W        W34034   2.746   2.595   2.202  0.0871 -0.0401 -0.0171
18226W        W34035   9.539  13.682   9.208 -0.1726  0.0552  0.1447
18227W        W34036  18.206   5.681  11.241  0.1804 -0.0268  0.0222
18228W        W34037  11.491  16.328  15.003  0.0321  0.1855  0.1635
18229W        W34038  18.786   4.577   4.800 -0.0524  0.0424  0.1025
18230W        W34039  13.762   1.992  12.164 -0.1544  0.0226  0.2345
18231W        W34040  15.320   4.565  11.238 -0.0212  0.1743 -0.1123
18232W        W34041   8.958   9.334   3.071 -0.0706  0.1115  0.0562
18233W        W34042  18.811  14.496   9.921  0.0577 -0.0437  0.0306
18234W        W34043  10.876   0.411  15.213 -0.0676 -0.0280  0.0154
18235W        W34044  16.748  13.316  10.774 -0.1161  0.1308 -0.3137
18236W        W34045   4.249  11.758   1.576 -0.2163 -0.0346  0.1990
18237W        W34046   5.273   7.009   3.312  0.0570  0.4144 -0.0807
18238W        W34047  14.631   4.645   3.218 -0.2803  0.0801  0.2327
18239W        W34048  11.007  14.348  14.459  0.0865  0.0075 -0.0094
18240W        W34049   5.269  16.949  14.856  0.2249 -0.1799  0.1426
18241W        W34050   6.051  14.289  12.543 -0.2825  0.0121 -0.1050
18242W        W34051  10.749  12.159  14.328  0.2341 -0.2598  0.1902
18243W        W34052   8.563   1.169   3.769  0.0265 -0.4047 -0.0957
18244W        W34053  17.215   8.788  10.704  0.0232  0.0409 -0.0379
18245W        W34054  15.878   7.650   5.439 -0.3127  0.1764  0.0192
18246W        W34055  16.977  14.549   3.681  0.0256  0.0020 -0.1297
18247W        W34056   6.844  11.249  12.036  0.1454  0.0808 -0.1372
18248W        W34057  11.060  17.740   3.600  0.1107  0.1293 -0.1276
18249W        W34058  17.488  13.926  14.800 -0.3131  0.2259 -0.0902
18250W        W34059  17.354   4.784  15.107 -0.2647  0.1220 -0.0594
18251W        W34060  11.941   6.321   9.948 -0.0625  0.1924  0.0941
18252W        W34061  18.477   3.987   2.814 -0.1867 -0.4697  0.1666
18253W        W34062   5.978   0.701  13.949  0.0011 -0.0035 -0.2469
18254W        W34063  15.970  12.967   3.034 -0.1364 -0.0862  0.0944
18255W        W34064  13.477   9.978   1.090 -0.1632 -0.0390  0.4641
18256W        W34065  15.064   0.923   2.128 -0.0436 -0.0825  0.0398
18257W        W34066   6.622   0.774  15.033  0.1648  0.0566 -0.4539
18258W        W34067  14.704  17.560  10.935 -0.0201  0.1328 -0.3575
18259W        W34068   0.994  16.717   9.932  0.0868 -0.0200  0.0540
18260W        W34069  15.368   7.979  10.673  0.1601 -0.3096 -0.0112
18261W        W34070   8.961  17.676  15.128  0.3472 -0.0600  0.0932
18262W        W34071  16.897   9.947  14.858  0.1791 -0.2166 -0.0255
18263W        W34072   9.711  10.061  13.649 -0.1959  0.2864 -0.0549
18264W        W34073  13.632  13.137   1.292  0.0447  0.1116 -0.0697
18265W        W34074  12.375   7.564   0.014  0.1014 -0.0211 -0.0950
18266W        W34075   5.532   5.313  10.992  0.0321  0.2863 -0.5043
18267W        W34076   9.270   6.893  13.115  0.3017 -0.0556 -0.2803
18268W        W34077   2.977  14.006   5.447 -0.3148 -0.2134 -0.0048
18269W        W34078  16.895  16.144   5.920 -0.0343 -0.0111  0.0917
18270W        W34079  13.683  10.900   1.748  0.2769  0.1026  0.0082
18271W        W34080  10.303   8.563  13.806 -0.1884  0.1472 -0.0777
18272W        W34081   6.712   4.907  10.399 -0.2971  0.4304 -0.3027
18273W        W34082   6.866  11.518  15.116  0.1907  0.0018  0.1730
18274W        W34083  12.413  15.447  12.932  0.1212 -0.3903  0.0529
18275W        W34084  16.684  16.221   0.319 -0.2620 -0.0146 -0.3489
18276W        W34085  18.356   7.697  11.783  0.2152 -0.0242  0.2448
18277W        W34086   7.593  17.651  14.920  0.2322  0.0049 -0.3394
18278W        W34087   1.801  10.446   0.850 -0.1269 -0.1406  0.1152
18279W        W34088  15.977   1.570   1.057 -0.2045 -0.2608 -0.0626
18280W        W34089  16.972   7.332   9.856 -0.2041  0.2639 -0.1792
18281W        W34090  12.896  18.819  10.208 -0.0483  0.1231  0.3280
18282W        W34091   0.998   3.685  12.756  0.2479  0.1991 -0.2441
18283W        W34092   2.818  18.184   1.878 -0.1739  0.1364  0.2843
18284W        W34093   3.501   2.776   3.295 -0.0495  0.2533  0.0392
18285W        W34094   6.141   2.631  14.687  0.3265 -0.0443  0.0726
18286W        W34095  11.375  12.718   3.839  0.0207 -0.1126 -0.2265
18287W        W34096   8.915   8.583   1.619  0.0790  0.1493  0.3273
18288W        W34097  16.451  12.938  10.627  0.0091 -0.2252  0.1375
18289W        W34098  18.115  11.623   1.012 -0.1008 -0.1897  0.1976
18290W        W34099   6.442   4.866   3.117 -0.1536 -0.0466 -0.1674
18291W        W34100   4.356   0.624   9.266  0.4246 -0.3324 -0.0452
18292W        W34101  11.930   6.243   4.096 -0.1172  0.1624 -0.1807
18293W        W34102   7.432   5.202  15.268 -0.1941 -0.0080 -0.0487
18294W        W34103  10.423  14.008   9.876  0.0345  0.0736  0.0866
18295W        W34104   8.629   6.942   1.432  0.0563  0.2051  0.0548
18296W        W34105   8.113   0.021  11.039 -0.0063  0.0529  0.0159
18297W        W34106   6.313   0.608   0.868  0.1430  0.2457  0.0026
18298W        W34107   0.475  13.570   4.690  0.0988 -0.2535 -0.0273
18299W        W34108  14.815   5.293   0.042  0.3641 -0.0316  0.0926
18300W        W34109   9.921  18.578  10.922  0.2145 -0.2124 -0.3236
18301W        W34110   5.857  17.870  13.772 -0.3413  0.0002  0.1833
18302W        W34111   6.486  18.605   1.363  0.2981  0.3439 -0.0804
18303W        W34112   0.722   7.591  11.808  0.1222  0.1179  0.2799
18304W        W34113   9.537   3.171  13.882  0.2243 -0.0657  0.1549
18305W        W34114  10.170   1.406   2.332  0.0046  0.0191 -0.0515
18306W        W34115  10.350   8.370   2.432  0.0676 -0.0510 -0.1105
18307W        W34116   1.688   7.209   0.640  0.2593 -0.2165 -0.3001
18308W        W34117  18.383  11.848  11.321  0.2553 -0.1709  0.0851
18309W        W34118   8.461   4.590   0.194  0.0475  0.1452 -0.4509
18310W        W34119   0.334  15.648   3.028 -0.1520  0.0711  0.1237
18311W        W34120  10.024  15.848   1.830  0.0400 -0.2091  0.0142
18312W        W34121  13.863   9.521  11.631  0.0602 -0.1020  0.1914
18313W        W34122   7.093  12.199  12.149  0.0097  0.0998  0.1456
18314W        W34123   6.057  13.259  14.162  0.1203  0.3658 -0.0419
18315W        W34124  12.607  15.583   2.413  0.2066 -0.0424  0.0179
18316W        W34125  15.969  17.118  11.548  0.0039  0.2617  0.0208
18317W        W34126  14.606   0.840   1.893 -0.1083  0.1800 -0.2418
18318W        W34127   5.565  13.515  14.308  0.3527 -0.1179 -0.1641
18319W        W34128  13.667  17.427  14.250 -0.0254 -0.0051 -0.3517
18320W        W34129  13.575  12.233  13.957  0.0834 -0.3920 -0.0193
18321W        W34130   2.156   9.035   3.499  0.0865  0.1355  0.1610
18322W        W34131  14.400   4.223   4.318  0.0971  0.0281 -0.0017
18323W        W34132  11.244   1.043  13.113  0.0115 -0.0461  0.0015
18324W        W34133  17.805   3.098   6.152 -0.0205  0.0633  0.1472
18325W        W34134   5.860   0.525  14.422  0.0170  0.2460  0.0136
18326W        W34135   0.382  14.906  15.089  0.0114  0.0010  0.0189
18327W        W34136   0.898   5.418  13.035 -0.1380 -0.1057  0.1915
18328W        W34137   0.102   2.424   0.721 -0.2040  0.1387 -0.3218
18329W        W34138  16.861  15.334   2.305  0.1538  0.3243 -0.1205
18330W        W34139   2.366  18.065   1.301 -0.2798 -0.2355  0.1447
18331W        W34140  10.573   4.137  15.180 -0.1701 -0.3427  0.1669
18332W        W34141  18.754   3.870   3.600  0.0049  0.0318  0.0712
18333W        W34142  12.334  15.017  11.420 -0.1399  0.0529  0.1032
18334W        W34143  11.967  14.493  14.970 -0.0427 -0.3580 -0.5262
18335W        W34144   7.510  18.840   0.869 -0.1385 -0.0309 -0.0902
18336W        W34145  10.451   7.506  14.812  0.0525  0.0615  0.1588
18337W        W34146   4.176  18.250   4.904 -0.2323 -0.3184 -0.1222
18338W        W34147   9.363  17.047   5.083  0.1814 -0.1419  0.3324
18339W        W34148  18.423   7.954  14.439 -0.0732  0.0642  0.2148
18340W        W34149  17.716   7.057   3.514 -0.1461  0.1782  0.0980
18341W        W34150   7.840   0.274   2.564 -0.0964 -0.0619 -0.0665
18342W        W34151   1.985  13.237  11.198  0.0474 -0.2730  0.1295
18343W        W34152   4.235   7.312  11.629 -0.2763  0.1446 -0.2321
18344W        W34153   1.057   5.869   0.390 -0.1732 -0.2160 -0.0988
18345W        W34154   8.243  11.612   1.677 -0.2711 -0.1065  0.0243
18346W        W34155  15.094  17.603  11.778 -0.2996 -0.1574  0.3241
18347W        W34156   6.950   5.630  11.949 -0.1449  0.0774 -0.0358
18348W        W34157  13.323  18.812  12.362  0.1057  0.2666 -0.2750
18349W        W34158   1.626  10.225   2.760  0.1175 -0.1055  0.3080
18350W        W34159  16.130  11.797  10.737 -0.2721  0.1810 -0.0171
18351W        W34160  17.017  12.308   1.827 -0.0539  0.2475 -0.1970
18352W        W34161  15.902   6.672   4.825  0.2422  0.0757  0.0049
18353W        W34162   6.180  17.449  12.254 -0.1345 -0.0033 -0.0235
18354W        W34163   7.387   3.972   2.805  0.1525  0.0205 -0.4773
18355W        W34164  17.818   5.429  10.606  0.2165 -0.0255  0.2043
18356W        W34165  16.829   6.395  15.000 -0.4021 -0.2446 -0.0828
18357W        W34166  18.187   4.561   3.952 -0.1978 -0.1948  0.0522
18358W        W34167  15.079   7.503   2.028  0.0758 -0.0317 -0.2735
18359W        W34168   9.358   7.800   9.344  0.2521 -0.1512 -0.1628
18360W        W34169   6.812   2.708  12.958 -0.1197 -0.0012  0.0005
18361W        W34170  13.393   1.539  14.540  0.0046 -0.1087  0.2331
18362W        W34171   2.081  17.975   0.847  0.1993 -0.0596 -0.0028
18363W        W34172   3.647   6.667   3.055 -0.0338  0.1631  0.1391
18364W        W34173  10.824  17.359   4.526 -0.1025  0.0870 -0.1869
18365W        W34174   8.213   2.944  12.145  0.1657  0.2715 -0.0218
18366W        W34175   3.107   7.647  14.280  0.1044 -0.3290  0.1733
18367W        W34176  10.702   4.317  10.627  0.2376  0.1459  0.0923
18368W        W34177  10.809  13.653   2.437 -0.0187 -0.3168  0.3077
18369W        W34178   5.024  13.339   5.310  0.2056 -0.0320 -0.1998
18370W        W34179   2.817   0.592   3.967 -0.0603 -0.0190  0.0132
18371W        W34180   7.020   3.914  12.198 -0.0704 -0.3936 -0.1503
18372W        W34181   7.143  16.190  11.403 -0.3231  0.0302  0.1922
18373W        W34182  13.863   1.928   3.406 -0.0007  0.2339  0.1107
18374W        W34183   7.403  14.406  14.340 -0.1415  0.0703  0.3373
18375W        W34184  15.905  10.441  12.197  0.0564 -0.1870 -0.1286
18376W        W34185  11.319   5.578   1.847 -0.2063 -0.1382  0.3554
18377W        W34186   9.466  13.271  11.906 -0.0323 -0.0685  0.1634
18378W        W34187   5.491  18.872   1.986  0.1207  0.0241 -0.0004
18379W        W34188  12.622  15.125   4.943  0.2377  0.0817 -0.2549
18380W        W34189   1.205  12.684  11.601 -0.2329  0.0345  0.1408
18381W        W34190  13.536  15.744  14.584 -0.1837 -0.3212 -0.2665
18382W        W34191  12.935   7.760   1.674  0.0520  0.2376 -0.2337
18383W        W34192  11.155  17.923   0.627 -0.2427  0.2502 -0.1417
18384W        W34193  12.389  10.130  12.366  0.1447  0.1489 -0.0371
18385W        W34194   2.835   9.179   0.932  0.1279  0.1238  0.0415
18386W        W34195  18.289   6.313  12.404 -0.0335 -0.1663 -0.2255
18387W        W34196   1.292  12.610   2.621  0.0657  0.2266 -0.0007
18388W        W34197  16.050   8.453   3.059 -0.1778 -0.0893 -0.0670
18389W        W34198  14.810  16.910   1.791  0.1787 -0.0788 -0.0088
18390W        W34199   1.205   2.283   2.217  0.1455  0.2458 -0.0592
18391W        W34200  17.657   6.516   0.990  0.3246 -0.1154 -0.0703
18392W        W34201   2.749   5.543  11.024  0.0820 -0.1574 -0.0460
18393W        W34202  18.754   8.796   1.142  0.4323  0.1463 -0.0617
18394W        W34203   6.973   8.493  14.858 -0.1667  0.0168 -0.1918
18395W        W34204   0.943  12.797   2.164  0.3372  0.5677  0.2310
18396W        W34205  15.168   1.965   4.482 -0.0586 -0.0850  0.0296
18397W        W34206   8.884   0.038   0.531 -0.4138 -0.1768 -0.2675
18398W        W34207  17.751   7.598  13.413 -0.0577  0.0827 -0.0462
18399W        W34208  11.882   1.729  13.350 -0.1895 -0.4262  0.1582
18400W        W34209  17.832   6.829   2.557  0.2322 -0.0820  0.3371
18401W        W34210  16.692   4.073  12.345  0.0217 -0.0006 -0.1778
18402W        W34211   8.276   5.506  14.823 -0.0650 -0.2029 -0.1991
18403W        W34212   9.308  17.226  15.074 -0.2621 -0.1170 -0.1614
18404W        W34213  14.267  14.688   1.483 -0.0611  0.1539  0.0067
18405W        W34214  17.762   4.956  10.784  0.1433 -0.2412 -0.0347
18406W        W34215   5.702  13.217  12.093  0.0186 -0.1419 -0.4440
18407W        W34216  16.595   4.612   3.424  0.0366 -0.0657 -0.0955
18408W        W34217  12.924   6.415   2.116  0.0099 -0.1436 -0.0994
18409W        W34218  15.224  15.952  11.337 -0.0560 -0.1258 -0.2412
18410W        W34219  17.479   8.522   2.410 -0.1364  0.5757  0.1746
18411W        W34220  16.723   5.467   0.198  0.1773  0.3715 -0.0572
18412W        W34221  12.638   3.108   0.350 -0.1789  0.0246  0.2284
18413W        W34222   8.185  10.571  10.879  0.0575  0.0223 -0.1240
18414W        W34223   5.618  18.499  11.450  0.2972  0.0252  0.0472
18415W        W34224   9.749  11.160   0.555  0.0521 -0.1563  0.0984
18416W        W34225  16.669   9.463   4.772 -0.0650 -0.0657 -0.3842
18417W        W34226  11.544   3.364  13.857  0.0041  0.0184 -0.2313
18418W        W34227   5.151   6.984   1.276 -0.1513  0.1708  0.1308
18419W        W34228  16.411   6.953  11.098  0.2186  0.1308  0.0010
18420W        W34229   1.114   0.900  11.733  0.2802 -0.2761 -0.1494
18421W        W34230  15.012  12.835   2.983 -0.0514 -0.0640 -0.1175
18422W        W34231  12.963  12.388   9.680  0.2996 -0.0387 -0.0843
18423W        W34232  14.402  18.235   3.181  0.1290  0.0809  0.1096
18424W        W34233  17.601  13.032  14.811 -0.1354  0.1406  0.1089
18425W        W34234  17.124   4.436  11.633 -0.0237  0.1967 -0.2545
18426W        W34235  11.758   5.915  12.325  0.0632  0.1954  0.1179
18427W        W34236  11.091   3.193  13.704  0.0996  0.3939 -0.4389
18428W        W34237   8.106  18.877   2.555 -0.2080  0.1543 -0.1436
18429W        W34238  10.052  14.388   4.520 -0.2356 -0.3229  0.2286
18430W        W34239  13.174  18.089   5.561 -0.3352 -0.2796 -0.0274
18431W        W34240  15.356   1.141  14.953  0.0867  0.3458 -0.2213
18432W        W34241   5.471  15.903   2.759  0.0182 -0.2560 -0.1397
18433W        W34242  15.878   3.818   1.341  0.2577 -0.1835 -0.2386
18434W        W34243  13.896   4.351  15.250  0.0309  0.3542  0.0145
18435W        W34244   9.286   4.308  12.451  0.1731  0.3473 -0.0942
18436W        W34245  18.012   5.605  12.653 -0.2827 -0.4728  0.1703
18437W        W34246  10.944  12.518   0.241  0.1116 -0.4325 -0.0952
18438W        W34247  15.916   5.201   2.524 -0.1620  0.0800  0.2025
18439W        W34248   3.533   0.575   0.769 -0.3029 -0.1136 -0.0497
18440W        W34249   7.283   7.384  13.649 -0.1650 -0.2835 -0.0070
18441W        W34250   3.132  12.368   1.362 -0.1011 -0.0640 -0.0184
18442W        W34251   8.377   9.953  13.373  0.0854 -0.2181  0.1157
18443W        W34252  11.155  14.546   9.281  0.3510  0.0290 -0.3560
18444W        W34253   0.724  10.907  11.297 -0.0537 -0.2441  0.1689
18445W        W34254  10.048  11.552   3.937  0.3086  0.1117 -0.0046
18446W        W34255  10.016  16.470  13.248  0.1295  0.3259 -0.0456
18447W        W34256   5.622   4.271   0.991 -0.2551  0.1427 -0.2176
18448W        W34257   4.926  13.224   4.458  0.1833  0.3754  0.0623
18449W        W34258   8.085  16.317  13.224 -0.0373 -0.1162  0.1043
18450W        W34259   3.126   3.453   5.795  0.1047  0.0342 -0.2032
18451W        W34260  13.501   9.781   4.969 -0.0442  0.1068 -0.1152
18452W        W34261   4.516  16.434  13.237 -0.1167  0.2705 -0.1799
18453W        W34262   7.412  11.485  15.049  0.2076  0.0869 -0.0330
18454W        W34263   0.698   7.957   0.322  0.1730 -0.0793 -0.0369
18455W        W34264   2.344   8.180  14.986  0.1878 -0.0916  0.1712
18456W        W34265  10.491  10.520   0.452 -0.1496  0.0049  0.0877
18457W        W34266  14.058  18.951   5.421  0.2501 -0.1456 -0.1835
18458W        W34267   2.131   1.470   1.725  0.0930  0.4309  0.0142
18459W        W34268   8.660   5.137  14.627 -0.2344  0.2154 -0.0515
18460W        W34269  18.601   1.834   4.155  0.2405  0.0838  0.1694
18461W        W34270   0.350   4.236   0.626  0.2974 -0.1308  0.0329
18462W        W34271   5.575   7.523   2.117 -0.1637 -0.1558 -0.1606
18463W        W34272   7.244  11.411  14.013 -0.1472 -0.0655  0.4603
18464W        W34273   4.785   3.296   1.820  0.3701 -0.1344  0.0963
18465W        W34274   6.764   9.097  12.103  0.3216 -0.1244  0.3029
18466W        W34275   2.963   5.142  10.639  0.1530 -0.4247  0.0470
18467W        W34276  18.069   7.476  12.197  0.1854  0.0496  0.1589
18468W        W34277   4.687  17.655  14.532 -0.0829 -0.0580  0.3671
18469W        W34278  10.568   2.913   1.308  0.1098  0.0956  0.0802
18470W        W34279   3.071   0.048  13.544  0.2370  0.0427  0.0159
18471W        W34280   1.808  11.012   1.637  0.1286  0.5386 -0.0970
18472W        W34281  18.909   2.306   2.849 -0.0020 -0.1616 -0.0684
18473W        W34282  12.493  18.880   5.366  0.3497 -0.3363  0.1687
18474W        W34283  11.284   3.989   2.271  0.1386 -0.0014  0.2777
18475W        W34284   8.310  15.134  13.013  0.2344  0.0467  0.3455
18476W        W34285   5.375   1.564   3.267  0.0305  0.2790  0.0336
18477W        W34286  18.094  12.625  12.997 -0.0226  0.1113 -0.2288
18478W        W34287  10.648  15.048  13.965 -0.1599  0.1429  0.2181
18479W        W34288   6.918  12.974  10.543 -0.0099 -0.0489 -0.0577
18480W        W34289  18.592  18.424   1.336  0.4178 -0.1579 -0.0931
18481W        W34290  11.845   0.227   5.791 -0.1810 -0.0016  0.0999
18482W        W34291  16.916   9.000  13.292 -0.0908 -0.0205 -0.1032
18483W        W34292   8.235  18.551  14.618  0.0163 -0.0634 -0.0111
18484W        W34293  10.044  12.555   2.297  0.1230  0.0719  0.1410
18485W        W34294  16.263   5.727   1.374  0.0860 -0.0596  0.1912
18486W        W34295  13.808   4.410   4.935 -0.0397 -0.0609 -0.1567
18487W        W34296   3.326   7.566  11.239  0.1747  0.3260  0.1266
18488W        W34297   4.305  14.905   1.088  0.0892 -0.0036  0.0443
18489W        W34298  15.047   2.207  12.854  0.2927  0.2113 -0.1254
18490W        W34299  10.104   9.758   2.898  0.1021 -0.3367 -0.1307
18491W        W34300  18.971  11.026  12.241  0.0808 -0.1073 -0.0969
18492W        W34301   8.758  10.315  11.221  0.3236 -0.0636  0.0284
18493W        W34302  13.241   5.992   2.141 -0.2867  0.0597  0.5365
18494W        W34303  15.204   4.146   3.582  0.2058 -0.2892  0.0273
18495W        W34304   5.609  17.467   1.202  0.1050 -0.1878  0.4037
18496W        W34305   7.785  10.795  11.284  0.1624 -0.2138  0.2860
18497W        W34306   1.560   0.184  14.842  0.1243 -0.0064  0.1157
18498W        W34307   0.099  15.056   3.750 -0.0799  0.0959 -0.4233
18499W        W34308   0.472  12.103  14.002  0.1393 -0.4733  0.0705
18500W        W34309   4.818  14.885   1.201  0.0299  0.0651  0.1155
18501W        W34310  16.772  10.662   2.224  0.2544 -0.1769  0.2028
18502W        W34311   2.602   4.582   2.177  0.1050  0.0985  0.3249
18503W        W34312   7.133  10.674  12.695  0.0320  0.2134 -0.1064
18504W        W34313  16.949   4.915   3.168 -0.1823  0.1843  0.2963
18505W        W34314  12.522  13.955  10.228  0.0744 -0.1128  0.0566
18506W        W34315  12.500   1.994   0.035 -0.1360  0.0537  0.0508
18507W        W34316  11.863  10.755  11.095 -0.0784  0.1274 -0.1080
18508W        W34317   6.463   1.850   4.990  0.0694 -0.1620 -0.0916
18509W        W34318   0.472   0.716   4.682 -0.0333 -0.0379 -0.0763
18510W        W34319   0.197   3.189  12.146  0.0883  0.0032 -0.3736
18511W        W34320  10.196   8.487   2.009 -0.3189  0.0933  0.1851
18512W        W34321   9.341  16.683  14.996 -0.1844  0.2115 -0.0528
18513W        W34322   1.974   2.559  14.043  0.2644  0.0855 -0.1133
18514W        W34323  10.174  18.584  10.505 -0.1073 -0.2928  0.2973
18515W        W34324   6.175   5.674   4.060  0.0070 -0.0425  0.0025
18516W        W34325   9.782   7.193   0.797  0.2558 -0.0968  0.2507
18517W        W34326  16.204  14.634   2.914 -0.1070 -0.1959 -0.0149
18518W        W34327   3.356  15.246  13.232  0.0651 -0.0460  0.0462
18519W        W34328  15.307   3.674  13.749 -0.0431 -0.1410  0.0610
18520W        W34329   4.439   0.731   2.814 -0.2845  0.0185  0.0496
18521W        W34330   5.119   5.641  15.229 -0.1731  0.3623 -0.1438
18522W        W34331  16.743  12.523  12.770 -0.0742  0.0548  0.0274
18523W        W34332   7.639  10.525  12.024  0.3221 -0.0697  0.1170
18524W        W34333   6.935  11.432   0.738  0.0591 -0.2862  0.2507
18525W        W34334   6.498  13.742  10.715 -0.3566 -0.0794 -0.0954
18526W        W34335   9.865   1.537  14.676 -0.1771 -0.3087  0.0113
18527W        W34336  12.703  17.241  13.295 -0.3345 -0.0863  0.0571
18528W        W34337   0.289   3.236   1.961 -0.0319  0.0084 -0.1783
18529W        W34338   5.680  14.047  14.993 -0.0977  0.1014 -0.1343
18530W        W34339  10.776  16.268  13.895  0.0679 -0.0716  0.1545
18531W        W34340  16.176  16.024   2.721 -0.0482  0.0668 -0.2809
18532W        W34341   2.020   4.469  13.561  0.0316 -0.0530  0.2534
18533W        W34342  10.757   8.481  11.125  0.3875  0.2860  0.0499
18534W        W34343   0.387  15.573   4.168 -0.0573  0.1113 -0.2389
18535W        W34344   1.382  10.086  14.633  0.0758 -0.2579 -0.0857
18536W        W34345   3.209  17.895   1.747  0.0474 -0.0884  0.1392
18537W        W34346  12.177   8.940  12.013 -0.1035  0.1820 -0.4157
18538W        W34347   9.482  17.220   4.166  0.1921 -0.3005 -0.1026
18539W        W34348  13.500  11.132  12.654 -0.0138  0.0292  0.1089
18540W        W34349  10.276   7.732  10.249 -0.3070  0.0241  0.0935
18541W        W34350  12.626   6.195   1.777  0.0867 -0.3158 -0.0057
18542W        W34351  10.092   8.964  11.854 -0.0729 -0.0679 -0.1445
18543W        W34352   3.817   1.344   3.230  0.1669  0.1313 -0.1862
18544W        W34353  17.323   0.882   4.496 -0.3517 -0.0977 -0.0350
18545W        W34354  10.255   9.154   3.550  0.0059  0.2021  0.1173
18546W        W34355   8.274   9.197  10.931 -0.2426  0.0049 -0.0068
18547W        W34356  15.445   7.376   2.326  0.0958  0.0569  0.1613
18548W        W34357   9.729  15.427   3.167 -0.2229  0.3706 -0.2724
18549W        W34358  14.761  12.839   1.703 -0.0938 -0.0758  0.0264
18550W        W34359   4.514   7.095   1.960 -0.1772 -0.6353  0.1610
18551W        W34360  10.889   0.409  12.210  0.1990 -0.1038  0.4294
18552W        W34361  13.269  15.301   0.998  0.0667  0.3629 -0.0146
18553W        W34362   3.394   5.051  14.435 -0.0342 -0.1995  0.0466
18554W        W34363   5.749   3.377   2.028 -0.0348 -0.1556  0.0488
18555W        W34364   1.827   9.642  10.849 -0.1477 -0.0666  0.1296
18556W        W34365  12.588   7.243  14.926 -0.0402 -0.0709  0.1270
18557W        W34366  13.695   5.146  12.144 -0.0529  0.0490 -0.1597
18558W        W34367  17.271   7.673  12.687  0.0014  0.1301  0.1614
18559W        W34368   6.576  12.643   0.403 -0.1895 -0.1546 -0.0420
18560W        W34369   1.593  10.863   4.333 -0.1252 -0.0626  0.2357
18561W        W34370   2.183   8.653  13.583  0.1387 -0.1138 -0.1302
18562W        W34371   5.052   0.943   9.726 -0.0117 -0.0134 -0.0921
18563W        W34372  12.207  16.064   0.275 -0.0266  0.0662  0.3114
18564W        W34373   9.399  17.721   3.451  0.0936  0.1165  0.0036
18565W        W34374   8.148   2.741  13.912  0.2812 -0.2602 -0.0958
18566W        W34375  10.544  14.317  11.584  0.1613  0.0477 -0.0312
18567W        W34376   6.182   8.852   0.840  0.1185  0.2426 -0.0930
18568W        W34377  17.874  15.291  13.810 -0.1080 -0.3261 -0.0041
18569W        W34378   3.604  18.969   3.300  0.1185 -0.2738 -0.0206
18570W        W34379  14.485  15.995  12.299 -0.0330 -0.0192  0.1917
18571W        W34380   1.164   6.951   2.458 -0.0619 -0.0936  0.1771
18572W        W34381  18.666  10.970   0.771 -0.1438 -0.2792  0.2871
18573W        W34382  14.593  18.311  13.882 -0.1125  0.2571 -0.1934
18574W        W34383   1.755   0.671  14.139  0.0706  0.0139  0.2171
18575W        W34384   8.938  14.179   3.253 -0.2668  0.0356  0.4719
18576W        W34385  14.258  15.434  14.027 -0.0610  0.4322 -0.4335
18577W        W34386   7.206   2.226   0.812 -0.2325 -0.1111  0.1657
18578W        W34387   7.882  14.952   2.371  0.2187  0.1466  0.0780
18579W        W34388  10.910   9.478   0.833  0.1074  0.4628  0.1015
18580W        W34389   2.811  18.669  12.050  0.0490 -0.1447 -0.1175
18581W        W34390  17.253   9.189   0.715  0.0341  0.0103  0.0882
18582W        W34391   5.605   6.082   0.961 -0.0889 -0.1173 -0.1670
18583W        W34392   6.527  14.387   3.880  0.1871 -0.1623  0.1674
18584W        W34393  15.780  17.449  12.400  0.0166  0.0970  0.1657
18585W        W34394  14.506   2.514   1.323  0.0118 -0.0772  0.0068
18586W        W34395   7.401   9.480   2.192  0.0759  0.1617  0.2706
18587W        W34396   6.291  18.173   1.597 -0.1514 -0.1594  0.0839
18588W        W34397   1.348  13.716  12.539 -0.2197 -0.0834 -0.1020
18589W        W34398  14.182  14.472  13.155  0.2201  0.3375  0.1647
18590W        W34399  10.398   5.331  10.922  0.0192 -0.0036  0.2871
18591W        W34400   9.470   4.541   1.634 -0.1743 -0.1486 -0.1806
18592W        W34401  17.667  18.528  13.140 -0.0430 -0.1631 -0.3173
18593W        W34402  16.427  17.052   0.288 -0.1236  0.2944  0.0482
18594W        W34403   3.623   9.532   4.417  0.2319  0.1607  0.3576
18595W        W34404   4.817   7.773  15.254  0.0471  0.3899 -0.1406
18596W        W34405   2.146  17.303  14.716  0.1133  0.1439  0.0620
18597W        W34406   7.989   8.038  11.437  0.0202  0.1469 -0.2147
18598W        W34407  14.537   2.139   0.378 -0.1712  0.2389  0.1498
18599W        W34408  16.911  12.616  11.990  0.1651  0.0231  0.1938
18600W        W34409  19.021  10.680  14.872  0.0931  0.1230  0.3279
18601W        W34410   3.902   4.148   0.202 -0.2713  0.2753  0.0234
18602W        W34411   4.020  14.690  13.310  0.3465 -0.0230 -0.4540
18603W        W34412  19.025   1.733   4.460  0.1632  0.3038  0.3955
18604W        W34413   3.824  14.356  14.729  0.1915 -0.1824 -0.0289
18605W        W34414   4.214   4.659   2.113 -0.1840  0.0556  0.0431
18606W        W34415  10.821   4.036   4.192 -0.3237  0.1343 -0.1026
18607W        W34416   4.302  16.275   4.773  0.1888  0.4072 -0.0795
18608W        W34417   8.058  18.098  14.348  0.1322  0.1427  0.1203
18609W        W34418   3.964  12.515  13.925 -0.2376 -0.0030  0.0091
18610W        W34419  11.792   2.525   4.708  0.2851 -0.0103  0.2020
18611W        W34420   7.256   2.851   3.736 -0.2874 -0.0926 -0.1313
18612W        W34421   1.641   3.849  12.194 -0.2011 -0.0485  0.1346
18613W        W34422  18.511   8.931  13.038  0.3845  0.1201  0.0791
18614W        W34423  10.006   7.530  12.055 -0.1170  0.1899  0.2210
18615W        W34424   7.323  15.085  12.136  0.0155  0.0004 -0.2970
18616W        W34425  18.899   6.504   9.985 -0.1409  0.1387  0.1893
18617W        W34426   8.730  15.696  14.465 -0.0761 -0.3508  0.0030
18618W        W34427   8.408  15.093  15.031 -0.3845  0.1794 -0.2324
18619W        W34428  14.022   2.218   5.240 -0.1235  0.0292 -0.2278
18620W        W34429  10.755   6.938   5.068 -0.0268 -0.1650 -0.3206
18621W        W34430  16.004  16.176  13.052 -0.3563 -0.0851 -0.1422
18622W        W34431   2.586   9.885  11.581  0.1282 -0.0072  0.0104
18623W        W34432   2.136  10.781  14.019 -0.1557  0.1144 -0.2103
18624W        W34433  17.669  15.262   5.198  0.0468  0.1309  0.0027
18625W        W34434   7.945   6.754   3.729 -0.0135 -0.1358 -0.0516
18626W        W34435   9.278   6.856  14.614  0.1949  0.0299  0.0372
18627W        W34436  16.521  10.628  11.433  0.2426 -0.1418 -0.1273
18628W        W34437   2.174   8.016   2.549 -0.0134  0.1984 -0.0959
18629W        W34438   2.102  17.869   4.076  0.1406  0.0314  0.0199
18630W        W34439   9.341  18.583  14.307  0.0795  0.3495 -0.2653
18631W        W34440  15.240  12.093   0.167 -0.0263  0.0802  0.0837
18632W        W34441   4.969   0.353  14.041  0.1064  0.2557  0.1304
18633W        W34442  17.326  13.095   5.272 -0.2553 -0.0540  0.1782
18634W        W34443  15.652  13.971  15.023 -0.1975 -0.0184  0.2465
18635W        W34444  14.629   6.480   5.307  0.2025 -0.0284  0.0711
18636W        W34445   0.878   9.353   1.304  0.1385 -0.0258  0.1749
18637W        W34446  15.085  13.223   4.056  0.1832  0.0769 -0.1042
18638W        W34447   5.841   6.235  11.981 -0.1249 -0.0661  0.0001
18639W        W34448   5.926   4.600  11.130 -0.3749  0.0584  0.1653
18640W        W34449  12.798  18.233   1.992  0.0710  0.2311 -0.1242
18641W        W34450   8.248   4.539  14.554 -0.0270 -0.0444 -0.1493
18642W        W34451   2.403   4.766  10.603 -0.2209  0.2802  0.0784
18643W        W34452  14.998  14.780  12.882 -0.3007  0.0513 -0.2577
18644W        W34453   8.619  11.060   2.482 -0.1008  0.1405  0.1725
18645W        W34454  15.279  12.560   1.377 -0.1661 -0.1165  0.1293
18646W        W34455  13.885  13.154  12.504 -0.1904 -0.1451  0.4003
18647W        W34456  16.317  15.327  14.121 -0.1836  0.0615 -0.1485
18648W        W34457  11.006   5.466   0.219 -0.0126 -0.1572 -0.1324
18649W        W34458  16.602  16.229  12.390  0.2728  0.2204 -0.2357
18650W        W34459  16.583  18.342   4.148  0.0888  0.0986  0.4543
18651W        W34460   4.782  14.918  10.765 -0.4850  0.0492  0.3121
18652W        W34461   1.257   2.117  13.068  0.1038  0.0653 -0.0225
18653W        W34462   8.705   6.691   3.154 -0.1212  0.0577  0.1584
18654W        W34463   9.736   4.135  12.789  0.2357  0.1893  0.0386
18655W        W34464   7.795   7.815   1.556 -0.1199  0.1775 -0.1154
18656W        W34465   3.519  16.850  12.407  0.4220 -0.2819 -0.2558
18657W        W34466  16.223  12.859  14.925  0.2430  0.1070 -0.2200
18658W        W34467  11.765  15.521  11.533  0.3418 -0.0577 -0.0915
18659W        W34468  14.395  10.596  12.383  0.0891 -0.2669  0.1418
18660W        W34469   8.728   6.679  10.548 -0.2278 -0.2239 -0.4697
18661W        W34470  17.628  12.978  11.569 -0.0907 -0.5119  0.1429
18662W        W34471  17.449   0.954  13.945 -0.0086  0.0008  0.0339
18663W        W34472  18.325   1.557   3.795 -0.0747  0.2667 -0.0499
18664W        W34473   6.262  17.597  10.792  0.2414  0.1894  0.0467
18665W        W34474  12.241  15.548  14.935  0.2651 -0.3051 -0.0568
18666W        W34475   6.802  18.186   1.256  0.2898 -0.1371 -0.2776
18667W        W34476  14.686   0.067   9.922 -0.2411 -0.0497  0.0119
18668W        W34477   7.445  18.602   4.052 -0.2988 -0.0735  0.2548
18669W        W34478  10.239   2.437  11.583  0.1960  0.1377 -0.0463
18670W        W34479  14.387   6.895  11.887  0.3458  0.0947 -0.2247
18671W        W34480  11.896  15.963   5.564 -0.0918  0.0674  0.1063
18672W        W34481   1.333   8.411   2.706  0.0529  0.0684 -0.3945
18673W        W34482   0.964   3.388   2.326  0.1596  0.0650  0.0919
18674W        W34483  10.091  16.624  13.842 -0.2997  0.3326 -0.1062
18675W        W34484  18.609  14.229   4.605 -0.0506  0.0227  0.1211
18676W        W34485   2.160   8.006  12.442 -0.2350 -0.0905  0.0753
18677W        W34486   0.257  14.839  13.727 -0.0668 -0.1510 -0.4624
18678W        W34487  14.996  12.862  14.242  0.3043 -0.0165 -0.2519
18679W        W34488  13.019   0.221   4.732  0.0822 -0.1591 -0.1200
18680W        W34489   8.052   8.375   2.183 -0.1743 -0.2880  0.0310
18681W        W34490   5.374  11.121   4.611 -0.1785  0.0264 -0.0226
18682W        W34491   8.152   4.035  11.109 -0.1916 -0.0644  0.1270
18683W        W34492   3.497  13.847   5.397  0.3209 -0.2283  0.2588
18684W        W34493   3.572   5.336   1.771  0.0821 -0.2388 -0.3238
18685W        W34494   1.782  17.060  14.243  0.0696  0.3030  0.2123
18686W        W34495   5.087   0.590   2.131 -0.0522  0.1778  0.2254
18687W        W34496   7.917   2.380   0.207  0.0690  0.0538 -0.1957
18688W        W34497  14.898   4.124   2.884  0.2317  0.0148 -0.0132
18689W        W34498  16.768  14.339  12.833 -0.0691 -0.0432  0.1565
18690W        W34499   3.049  12.674   4.356  0.0461 -0.0816  0.3241
18691W        W34500   9.590   5.470   2.029 -0.0812 -0.0511 -0.2114
18692W        W34501   3.134   9.485   0.377  0.1898 -0.1375  0.2250
18693W        W34502  13.902   8.340   1.007 -0.0706 -0.0021  0.0602
18694W        W34503   9.964   1.023  12.419  0.0567  0.0025 -0.0091
18695W        W34504   4.742  10.758  14.533 -0.0218  0.2115  0.1209
18696W        W34505  14.866   8.565  14.590 -0.1342  0.0713 -0.2564
18697W        W34506  13.090   3.507   4.318 -0.1231 -0.0500  0.0212
18698W        W34507   7.357  15.880  12.112 -0.0401  0.0168 -0.4121
18699W        W34508  18.381   6.856  13.179  0.0418  0.3332 -0.0583
18700W        W34509  12.543   7.896   3.446  0.0716  0.0426 -0.0963
18701W        W34510   4.962  11.392   4.934 -0.0556 -0.2285  0.0361
18702W        W34511   2.429  15.572  14.747  0.1661  0.0693  0.0389
18703W        W34512  16.718  11.730   2.082  0.2306 -0.1706  0.0857
18704W        W34513   6.811   0.465  14.162  0.2935 -0.1169 -0.0502
18705W        W34514  18.161  10.453   1.996 -0.1403 -0.0082 -0.0492
18706W        W34515   2.144   2.375  13.575 -0.3555  0.1466  0.2910
18707W        W34516  15.600   5.392  13.138  0.0281 -0.1394 -0.0027
18708W        W34517  13.624   7.758   3.917 -0.0338  0.1237 -0.0652
18709W        W34518  17.325  14.916   5.352  0.2040  0.0683  0.0664
18710W        W34519   6.074  13.075   3.116  0.2057 -0.0345  0.2001
18711W        W34520  14.352   2.599   4.979 -0.2890 -0.0821  0.0846
18712W        W34521   6.967   0.808   4.074 -0.0020 -0.0848 -0.2701
18713W        W34522   0.005   7.992  15.208  0.0868  0.0348 -0.1573
18714W        W34523   1.632   5.660   0.484 -0.1058  0.2580 -0.0563
18715W        W34524   6.476  11.704  12.096 -0.1224  0.1109 -0.0378
18716W        W34525  16.510  14.884   2.201 -0.1250 -0.1044  0.1883
18717W        W34526  13.370  12.921  13.323  0.2138 -0.0096 -0.3332
18718W        W34527  17.014   7.993   5.095  0.0608  0.3122  0.3768
18719W        W34528  15.542   1.931  13.550  0.0480 -0.0338  0.3079
18720W        W34529   0.366  10.239   1.651  0.4228  0.1754  0.1457
18721W        W34530   0.967  14.257   3.609  0.0407 -0.0916  0.0203
18722W        W34531   4.158   5.488   2.628 -0.0939 -0.1716 -0.0770
18723W        W34532  11.049   9.869  10.925  0.0472  0.2459 -0.0246
18724W        W34533   0.383   7.038  11.576  0.1094 -0.1730  0.0040
18725W        W34534  10.169  18.189  12.278 -0.0525 -0.1494 -0.1300
18726W        W34535   5.520   4.835  10.873 -0.4013  0.0436 -0.2006
18727W        W34536   3.782  13.960   1.171 -0.0778 -0.2756 -0.0602
18728W        W34537  17.404  13.824   3.946 -0.1450  0.0140  0.0328
18729W        W34538   1.877   1.621   2.132  0.0277  0.1501 -0.3500
18730W        W34539  10.735  11.658   1.413 -0.1057 -0.2985 -0.1234
18731W        W34540  18.422   0.968   2.981  0.0630 -0.1738 -0.2612
18732W        W34541   8.917   8.744   3.083 -0.4359 -0.1004 -0.3333
18733W        W34542  18.493  16.966   1.741 -0.2344 -0.1114 -0.0369
18734W        W34543   0.304  11.251   3.212 -0.0413 -0.1433  0.0184
18735W        W34544   4.636   0.749  14.300  0.1480 -0.0555  0.1377
18736W        W34545  11.350   7.093   9.982 -0.3908 -0.0877 -0.1769
18737W        W34546   3.566  12.282  12.545 -0.0956  0.2012 -0.1111
18738W        W34547   5.960   7.629  13.952  0.1444 -0.0487 -0.0267
18739W        W34548  13.479   8.410  12.473 -0.0114  0.0554 -0.1222
18740W        W34549   2.771   3.080  13.627  0.0932 -0.0188  0.3003
18741W        W34550   2.657   9.371   1.695 -0.2029  0.2374 -0.0108
18742W        W34551   7.474   2.498   4.100 -0.2497 -0.0004 -0.0927
18743W        W34552  13.048   7.410   1.150 -0.1689 -0.0143 -0.0973
18744W        W34553   2.742   5.680  14.124  0.2240 -0.1483 -0.0840
18745W        W34554  14.071  18.033   5.121 -0.0812 -0.2992  0.0349
18746W        W34555   9.046   4.722   4.444  0.0247 -0.2399 -0.1235
18747W        W34556  15.847  18.382  14.358 -0.1175  0.0632 -0.1779
18748W        W34557   9.472   5.135  11.266  0.1000  0.0323 -0.0853
18749W        W34558  14.640   1.713   4.678 -0.1211  0.0430 -0.2092
18750W        W34559   0.682  17.430  13.727 -0.0408  0.0485  0.0397
18751W        W34560   1.410   0.413  10.867 -0.0541 -0.1074  0.1770
18752W        W34561   8.490  18.404   5.177 -0.1489 -0.2582 -0.2666
18753W        W34562   7.293  17.934  10.837  0.2705  0.0559 -0.1012
18754W        W34563   4.089  11.509  13.427  0.0060  0.2312  0.0732
18755W        W34564  18.558   6.108   1.706  0.0254  0.1070 -0.0675
18756W        W34565  13.632  18.301   5.946  0.0781  0.2790 -0.1576
18757W        W34566  14.014  18.376   4.151 -0.4980  0.1722  0.2100
18758W        W34567  12.797   2.788   1.247 -0.1021  0.0742 -0.0473
18759W        W34568  12.828  16.769   0.272 -0.1781 -0.1313 -0.0743
18760W        W34569   3.279  12.868  10.539 -0.3100  0.1683  0.3106
18761W        W34570   4.160   5.422  12.349  0.1036 -0.1414  0.1273
18762W        W34571   2.279   0.544  11.128 -0.0272 -0.0529  0.2439
18763W        W34572   8.010  17.427   3.615  0.0628 -0.0936  0.0927
18764W        W34573   9.842  13.586   3.582  0.3243 -0.3062 -0.3718
18765W        W34574   1.341   5.396  12.653  0.1327  0.2438 -0.0183
18766W        W34575   0.715   5.570   0.636  0.0894  0.2310 -0.3459
18767W        W34576  16.044   1.250   3.651 -0.0563  0.1559  0.1870
18768W        W34577   8.020  18.108   0.659 -0.0882 -0.0579 -0.2516
18769W        W34578  15.684   1.559  14.976  0.2249 -0.0812  0.0863
18770W        W34579  12.599   4.719  14.885 -0.1986 -0.1271  0.1869
18771W        W34580  13.347   5.106   4.077  0.1738  0.0141  0.1078
18772W        W34581   5.110   9.955  11.143 -0.5488 -0.1380  0.4080
18773W        W34582   6.880  12.480  10.315  0.0898  0.1695 -0.1051
18774W        W34583   7.007   6.622  13.014  0.0713  0.0912  0.3751
18775W        W34584  13.601  14.308   2.636  0.0919 -0.2557  0.2588
18776W        W34585  13.565   6.132   4.431  0.0128  0.0393  0.1413
18777W        W34586   3.383  13.733   4.357 -0.0729  0.2182 -0.1925
18778W        W34587   6.184   8.125   0.148  0.1585  0.2634  0.0571
18779W        W34588  15.402  17.274  13.656  0.3197  0.0811  0.1463
18780W        W34589  18.635   5.244   2.981 -0.2151  0.0982  0.2076
18781W        W34590   7.040  17.400   3.619  0.0317 -0.0205 -0.0422
18782W        W34591  16.842  17.667  11.593  0.1564 -0.1394  0.0912
18783W        W34592   9.614   1.388  12.415  0.1898 -0.0839 -0.0022
18784W        W34593   8.671  13.907   0.150  0.1267 -0.0560 -0.0166
18785W        W34594  17.919   4.236   2.615 -0.1912 -0.2541 -0.0275
18786W        W34595  15.725  17.453  12.907 -0.3685  0.1987  0.1370
18787W        W34596   8.436   7.235   0.661 -0.1989  0.0505  0.1524
18788W        W34597  12.712  11.639   3.300  0.1723  0.1436 -0.2243
18789W        W34598   6.930   3.744  12.977  0.0992  0.0966 -0.1550
18790W        W34599  13.121   1.762  15.018  0.0318  0.1355  0.0424
18791W        W34600  17.518  10.511  12.225  0.0429 -0.0382  0.2736
18792W        W34601  13.542   4.243   2.173 -0.0420  0.1491 -0.3239
18793W        W34602   3.774  12.343   3.100 -0.3406  0.0099  0.1145
18794W        W34603  10.510  10.454   5.294  0.0784 -0.1427 -0.3126
18795W        W34604  18.694  15.831  13.344 -0.1656 -0.0186  0.2298
18796W        W34605  18.115   7.430   3.464  0.2263  0.2355 -0.2013
18797W        W34606  14.783  14.985  12.269 -0.1023  0.1674  0.1868
18798W        W34607   4.182  12.399   0.410  0.3184  0.1985 -0.1364
18799W        W34608  16.870  12.700   1.383 -0.1535  0.2759 -0.0343
18800W        W34609  15.458   2.532  12.213  0.1008  0.0018  0.1004
18801W        W34610   3.619   1.848  11.773  0.2736  0.0177 -0.0118
18802W        W34611  18.823  18.366  11.601 -0.0726 -0.3921  0.2342
18803W        W34612  17.785  17.174  12.628 -0.1309  0.0182 -0.2812
18804W        W34613   6.021  13.123  10.213  0.2536 -0.0958 -0.0553
18805W        W34614  11.564   7.061   5.582  0.2017 -0.4249  0.0713
18806W        W34615  18.657   3.516   3.143 -0.2005  0.1498  0.2522
18807W        W34616  12.236   6.469  10.349  0.1412  0.0478  0.0455
18808W        W34617  13.691   4.655   2.495  0.1325 -0.0484  0.2223
18809W        W34618  11.148  17.676   1.566 -0.1376 -0.2212  0.1987
18810W        W34619   2.546  15.284  14.388 -0.2790  0.0261 -0.0842
18811W        W34620  14.629   7.878   9.661  0.0771 -0.0619 -0.0863
18812W        W34621   0.428   3.691  13.353 -0.2291  0.0607 -0.0845
18813W        W34622  12.649  16.849   3.372 -0.1861 -0.1135 -0.0711
18814W        W34623  17.057   2.470   3.570  0.0266 -0.0551 -0.1169
18815W        W34624  12.563   7.779   5.379  0.1010  0.1925  0.2050
18816W        W34625   5.488  17.935   1.414 -0.0392  0.3534 -0.3056
18817W        W34626  12.273   7.758   5.792  0.3709  0.2222 -0.1970
18818W        W34627  14.430   4.839   2.755 -0.3700  0.2326 -0.1156
18819W        W34628   8.195   5.347   4.205  0.2785  0.0795  0.2024
18820W        W34629   2.697   2.612  12.870  0.1163 -0.0744  0.2940
18821W        W34630   5.058   5.974   3.259  0.0210 -0.2274  0.2624
18822W        W34631   1.146  18.129  10.914 -0.0594  0.2856  0.2584
18823W        W34632  18.231   5.666   5.665 -0.2220  0.1756  0.1262
18824W        W34633   5.187  12.372   1.126  0.1540 -0.2633  0.1406
18825W        W34634  13.203  16.859   1.228  0.2578 -0.1156  0.1430
18826W        W34635   9.043   2.658  13.951 -0.1808  0.0310  0.3421
18827W        W34636  17.817  13.646   1.566  0.0983  0.1703 -0.0869
18828W        W34637  17.724  15.485   3.646 -0.0477 -0.1206  0.0460
18829W        W34638  16.557   6.858  14.203  0.2698 -0.0148 -0.2706
18830W        W34639   3.682   8.546  10.770 -0.1734  0.2678 -0.0050
18831W        W34640   8.359   5.948   3.217 -0.0536 -0.0672  0.0268
18832W        W34641  13.730  18.228   3.019  0.1844 -0.1037 -0.0743
18833W        W34642  14.644  14.740   0.177  0.0396  0.0210  0.1115
18834W        W34643   4.174  13.854   0.607  0.2071  0.1912  0.2540
18835W        W34644   3.720   2.300   2.893 -0.0389 -0.1938 -0.1235
18836W        W34645   5.306  15.151   4.552 -0.1721 -0.0221  0.1279
18837W        W34646   2.696   3.835   1.946  0.1045 -0.0190  0.2169
18838W        W34647  15.850   7.416   1.066 -0.4392  0.2498  0.0839
18839W        W34648   4.452  10.710  13.381 -0.1689  0.1622  0.2487
18840W        W34649   0.594   6.919  12.969  0.0840  0.2387  0.1066
18841W        W34650   1.105   7.731  10.232 -0.3701  0.0699 -0.1140
18842W        W34651   0.036   8.667  14.372  0.0296  0.1977 -0.1668
18843W        W34652  15.517   5.487  14.602 -0.0662  0.1002  0.0396
18844W        W34653  12.152   6.238   0.070  0.1573 -0.0006  0.1357
18845W        W34654   6.687  11.774  14.650  0.2187 -0.0174  0.0370
18846W        W34655   0.783   8.632  10.080  0.3267  0.1271 -0.1156
18847W        W34656  17.167   1.844  10.223 -0.0838  0.4598 -0.0955
18848W        W34657   9.883  12.778   1.434  0.2873 -0.0533 -0.2801
18849W        W34658  11.672   4.308   0.138  0.2085  0.1765  0.1581
18850W        W34659  17.203   6.436   4.599  0.0470  0.1115 -0.0505
18851W        W34660   9.065   7.348  12.916 -0.2666  0.2849 -0.2219
18852W        W34661   8.029   8.155   3.599 -0.0893 -0.1160  0.2480
18853W        W34662   6.201   5.269  10.244  0.0372 -0.0584  0.1932
18854W        W34663   0.653   3.433  12.281  0.1348 -0.1362 -0.1357
18855W        W34664   4.139   2.389   8.967  0.1737  0.1257 -0.0864
18856W        W34665  16.134   3.700   2.673 -0.0368 -0.0752  0.0736
18857W        W34666   7.324   1.699   0.564  0.1515  0.3041  0.1726
18858W        W34667   6.241   6.081  10.909 -0.2660  0.1761 -0.0485
18859W        W34668  18.441   1.237  14.705 -0.1004  0.1801  0.1153
18860W        W34669  12.850  17.471  10.859 -0.1627 -0.0052 -0.1587
18861W        W34670  15.787  12.739  15.194  0.1937 -0.3693  0.0338
18862W        W34671   6.441   2.766  10.872 -0.1711  0.1698 -0.0875
18863W        W34672  11.113  17.063   4.256 -0.1148  0.0642  0.0195
18864W        W34673   5.806   1.694   1.563 -0.3476  0.1673 -0.1783
18865W        W34674  10.801   3.103   3.445 -0.0145  0.0438  0.0309
18866W        W34675   8.949  13.105   1.428  0.1740 -0.1950 -0.0110
18867W        W34676  16.671   8.463   3.009  0.0384  0.0035 -0.0820
18868W        W34677  14.151   1.520   3.929  0.1237 -0.0878 -0.1669
18869W        W34678   6.619   0.680   0.423  0.2361  0.1027  0.0156
18870W        W34679   3.200   7.378   2.158  0.0197  0.0871 -0.0213
18871W        W34680   6.493  13.895  11.834  0.0819  0.0581  0.4241
18872W        W34681  18.718  10.500   4.453  0.1339  0.2149 -0.2767
18873W        W34682  16.009   6.550   3.939  0.5205  0.2014  0.1952
18874W        W34683  17.005   0.443   3.586 -0.0996  0.0184 -0.3206
18875W        W34684   8.529  10.559  12.116  0.2241 -0.2960 -0.0413
18876W        W34685   3.726  11.940  10.728  0.2655 -0.3415  0.0565
18877W        W34686  16.070   8.681   5.007 -0.0142 -0.3728  0.2124
18878W        W34687  18.362   0.284  13.277 -0.4624 -0.1208 -0.3293
18879W        W34688  17.281  11.073  13.149 -0.1918 -0.1950  0.2239
18880W        W34689   8.178   0.388   3.041 -0.0571 -0.0088  0.0763
18881W        W34690   3.578   3.873  15.217 -0.1031  0.2475 -0.1373
18882W        W34691  17.500   2.817   1.708  0.1038  0.2369  0.2768
18883W        W34692  16.048   1.524  14.638 -0.0373 -0.3585  0.0345
18884W        W34693   1.631  18.464   0.122  0.0810 -0.0580  0.0374
18885W        W34694   8.522   9.553  12.146  0.0181  0.1085  0.2031
18886W        W34695   2.368  12.270  11.123 -0.2174  0.1438 -0.0406
18887W        W34696   9.010  13.193  12.937 -0.2187 -0.2555 -0.1844
18888W        W34697  13.296   4.396   5.875  0.0235  0.1506 -0.3787
18889W        W34698  10.526   0.051   4.579 -0.3081  0.0946 -0.0501
18890W        W34699  10.699  14.668   3.415  0.0128  0.0230  0.2120
18891W        W34700   2.215   1.021  14.930 -0.1054 -0.2916  0.1706
18892W        W34701  13.162  17.448  14.182  0.2285 -0.0638 -0.0102
18893W        W34702  16.664   3.213  12.132 -0.1559  0.2038 -0.0118
18894W        W34703   5.623   7.052  13.487  0.2911  0.0561  0.4487
18895W        W34704   1.317   5.594  11.360 -0.1035  0.0777 -0.4473
18896W        W34705  14.120   9.450   2.577 -0.0035 -0.4097  0.2717
18897W        W34706   9.281  14.095   1.508 -0.1046 -0.0806  0.0137
18898W        W34707  15.986   8.395  14.906 -0.1462 -0.0795 -0.1986
18899W        W34708  15.538   3.397   1.505 -0.0724 -0.0085 -0.1475
18900W        W34709  15.635  12.436   1.790  0.1089 -0.2596 -0.1753
18901W        W34710   4.012   3.784  12.600  0.1019 -0.0333 -0.1640
18902W        W34711  10.806   6.838   1.581 -0.1188 -0.2223 -0.0373
18903W        W34712   2.562   3.415   3.380  0.1103 -0.0299  0.0437
18904W        W34713  11.539  16.986   2.424 -0.0956  0.0686 -0.5167
18905W        W34714   7.595   4.610   2.193  0.0865  0.1882  0.2987
18906W        W34715  18.757   0.124  10.335 -0.0116  0.1918 -0.0746
18907W        W34716   1.701  15.984   0.076  0.0485 -0.3814 -0.2161
18908W        W34717  11.835  16.858   4.404 -0.2038 -0.2103 -0.0791
18909W        W34718  14.004   5.052   1.529 -0.1977 -0.2416 -0.1300
18910W        W34719  11.366  10.250  11.094 -0.1342 -0.0435  0.1497
18911W        W34720  16.932  14.461   0.990  0.1217 -0.0536  0.0070
18912W        W34721  17.223  15.630   4.603 -0.0450  0.2377 -0.2890
18913W        W34722  15.048  18.536  13.804 -0.1637  0.1456 -0.4009
18914W        W34723  16.624  12.892   4.782  0.1757  0.1350  0.0177
18915W        W34724  14.195  11.135  10.703 -0.3580  0.0381 -0.1546
18916W        W34725  18.926  13.375  14.390  0.2716  0.5164  0.0505
18917W        W34726  17.971  11.908  13.654  0.0249 -0.1757  0.1918
18918W        W34727   9.682  13.765   3.195 -0.1445 -0.1508 -0.1377
18919W        W34728  16.027   7.662   2.767 -0.1378  0.0784  0.0727
18920W        W34729  18.676  12.289  14.721 -0.0729  0.1201 -0.0713
18921W        W34730   8.249   0.161  11.823  0.1308  0.2293  0.1425
18922W        W34731   7.994  17.928   4.322  0.1134 -0.6289  0.0317
18923W        W34732  12.542  18.449  14.038  0.1440 -0.0286  0.2081
18924W        W34733   1.649   6.121  14.749  0.1664 -0.2020  0.3165
18925W        W34734   1.447  13.796  14.447  0.1385 -0.1376 -0.2680
18926W        W34735   8.804  12.587  10.819 -0.1974  0.0984  0.1149
18927W        W34736   6.384  10.263  12.160  0.2252  0.0312  0.0802
18928W        W34737  14.258   7.699   5.096  0.2326  0.2285  0.0549
18929W        W34738   6.532   6.305  14.112  0.0170 -0.0181  0.0344
18930W        W34739  13.812  17.439   0.309 -0.1841  0.2417  0.0463
18931W        W34740   6.436  14.918   2.824 -0.0996  0.1300 -0.1101
18932W        W34741  18.412  12.034  15.145 -0.0211  0.2649  0.0246
18933W        W34742   6.754   9.008  12.750 -0.2447 -0.2155  0.1401
18934W        W34743   6.132   7.110   4.104  0.0615 -0.2213 -0.1734
18935W        W34744   9.848   6.161   1.698  0.1920 -0.2366 -0.0438
18936W        W34745  14.004   3.329  15.023  0.2774 -0.1030 -0.0038
18937W        W34746   4.651   5.506  13.760  0.1413  0.0665  0.1945
18938W        W34747  12.862   1.727   2.032  0.0139 -0.2689  0.1271
18939W        W34748  10.070   4.749  14.907 -0.0808 -0.3112  0.3375
18940W        W34749  16.353  10.010   4.048  0.0004 -0.2547 -0.0942
18941W        W34750   0.795  12.619   3.494  0.1971 -0.0862 -0.1309
18942W        W34751  14.177  15.993   5.657  0.3498  0.2048  0.0313
18943W        W34752   0.032  12.132   1.910  0.0495  0.1990 -0.0438
18944W        W34753   4.534   6.786  12.122 -0.3156 -0.1405  0.2392
18945W        W34754  14.617   1.241  14.855 -0.1421  0.0511 -0.0289
18946W        W34755   0.176  13.744   5.466 -0.2998 -0.0553 -0.0525
18947W        W34756   6.114   5.004   4.267  0.2731 -0.2660 -0.1430
18948W        W34757   2.368   5.107  11.980 -0.1345  0.2796 -0.0356
18949W        W34758  15.223   7.947   4.252  0.0326 -0.3282 -0.0641
18950W        W34759   3.207   7.167  14.136  0.1270 -0.0580 -0.0522
18951W        W34760   1.310   4.308   0.849  0.1902 -0.2737  0.0717
18952W        W34761  17.467  17.360  13.989  0.1925 -0.0683 -0.2654
18953W        W34762  11.824   0.349   4.286 -0.4154 -0.2348 -0.0695
18954W        W34763   1.803  13.493  12.515  0.2340  0.3031  0.0738
18955W        W34764  13.921  11.890   4.661 -0.3082  0.1024 -0.2449
18956W        W34765   5.574  15.840   1.683 -0.2744  0.3725  0.2023
18957W        W34766  13.983  10.629  13.502  0.2666 -0.0098  0.2005
18958W        W34767  17.807   8.710  14.029  0.0046 -0.1951  0.2607
18959W        W34768   9.141  18.115   3.112  0.1024 -0.2143  0.2254
18960W        W34769   3.275  13.928   9.850  0.1394  0.1937  0.2668
18961W        W34770   3.167  16.770  13.280  0.2596 -0.4557  0.1173
18962W        W34771  14.911   3.037   3.599 -0.1555  0.1204 -0.0459
18963W        W34772   7.314  18.519  11.093 -0.0988  0.2786 -0.0177
18964W        W34773  15.671  17.714   1.599 -0.1702 -0.0970 -0.1237
18965W        W34774   6.135  14.778   1.214 -0.0635  0.0176  0.1304
18966W        W34775   7.833  12.572  14.872 -0.1545  0.0348  0.0464
18967W        W34776   5.717  17.990   4.657 -0.1033 -0.3153  0.1818
18968W        W34777   7.362   9.899  12.109 -0.0661 -0.1374 -0.0710
18969W        W34778  11.170  13.782   4.386  0.0988  0.0906  0.0223
18970W        W34779   8.375  10.845   1.528  0.1040 -0.0731 -0.0855
18971W        W34780  10.284   1.319   3.211  0.2015  0.1925 -0.0608
18972W        W34781  14.535  14.949   1.847  0.1724 -0.2364  0.0786
18973W        W34782   7.491   0.742   4.949 -0.0604 -0.0525  0.1373
18974W        W34783  10.569  14.282   3.726  0.0090  0.1150 -0.2686
18975W        W34784  10.975   8.719  11.639 -0.2420 -0.1133 -0.1465
18976W        W34785   4.617   0.944  12.476 -0.0626 -0.1031 -0.0633
18977W        W34786  18.451   7.570   1.903 -0.1176  0.0665 -0.1052
18978W        W34787  15.667   0.477  12.794  0.2090 -0.0287  0.1997
18979W        W34788  18.827  12.092  12.708 -0.0509 -0.0601  0.1066
18980W        W34789   5.522   2.804   3.492 -0.2449 -0.1861  0.1120
18981W        W34790  10.877  16.770  13.270  0.0194 -0.3013 -0.3618
18982W        W34791  11.523   3.681  12.577  0.0250  0.4309 -0.0098
18983W        W34792   2.082   0.333   4.401 -0.1233  0.2423 -0.3696
18984W        W34793  18.134  17.302   3.426  0.1606  0.0088 -0.0227
18985W        W34794  13.164  13.921   1.447  0.0993  0.0001  0.1711
18986W        W34795   0.734   2.017   4.580 -0.1524 -0.0669  0.3148
18987W        W34796  15.285   2.813  14.863  0.0318 -0.1932 -0.2543
18988W        W34797   5.834  16.781  12.840 -0.0719  0.2172  0.1606
18989W        W34798  15.769   9.927   3.926 -0.1461  0.0790  0.0445
18990W        W34799  13.497   2.280  14.794  0.0410  0.1964  0.0754
18991W        W34800  14.472   5.841  11.362  0.1558  0.0671 -0.1545
18992W        W34801  17.315   3.941   0.594  0.2166  0.3080  0.1187
18993W        W34802   0.467   5.424  13.687  0.0783  0.0910 -0.1530
18994W        W34803  18.502  15.687  12.365 -0.1222 -0.0974  0.0012
18995W        W34804  15.788  17.847  10.797  0.0999  0.0347  0.0471
18996W        W34805   1.281   0.722   0.872  0.0547  0.0891  0.1692
18997W        W34806   5.783  13.817   3.546 -0.1291 -0.2876 -0.1931
18998W        W34807  17.085  17.267   1.802  0.1237 -0.0459  0.0638
18999W        W34808  11.723  13.973   3.347 -0.0731 -0.1360 -0.0752
19000W        W34809   7.184  11.918  14.866 -0.4016 -0.1259 -0.2961
19001W        W34810   1.669   2.497  13.625  0.0243 -0.0278 -0.0286
19002W        W34811   0.046   9.795   3.130 -0.2685 -0.2266 -0.0604
19003W        W34812  12.399  14.159  14.681  0.0722  0.4471  0.0250
19004W        W34813   1.298   1.791   5.343 -0.1021  0.0004  0.0327
19005W        W34814  14.040  17.391   2.365 -0.1646  0.3496  0.2822
19006W        W34815  13.435  12.687   9.609 -0.0059  0.3125 -0.0795
19007W        W34816  11.247  11.491  10.781  0.0188 -0.2659 -0.2820
19008W        W34817  14.386   2.514  13.064  0.0388 -0.0210 -0.3355
19009W        W34818  12.033   3.693   2.813  0.0618 -0.1568  0.0519
19010W        W34819   7.109   1.688   1.544  0.2497  0.0826 -0.1140
19011W        W34820   3.954  13.854   1.618 -0.1724 -0.3144  0.0002
19012W        W34821  18.884   4.981   0.079  0.2690  0.0802 -0.0809
19013W        W34822   9.522   6.104  11.383  0.2309  0.1776  0.2736
19014W        W34823  15.311  16.096   4.564  0.1569  0.2378 -0.2083
19015W        W34824  14.653   7.280   2.456 -0.0883  0.0060  0.1258
19016W        W34825   3.196   8.797   3.886  0.1852 -0.1089  0.1550
19017W        W34826  13.342   3.887   3.383 -0.4931 -0.0384 -0.0843
19018W        W34827  17.540   6.559  11.741 -0.2166 -0.0286  0.0895
19019W        W34828  12.253   5.183  13.878 -0.0825  0.2556  0.0251
19020W        W34829   4.077  16.911   5.395  0.0889  0.2323 -0.0199
19021W        W34830  15.809   1.219  14.056 -0.4296 -0.0352  0.1417
19022W        W34831   6.941  13.748   0.816 -0.1478 -0.1191  0.2522
19023W        W34832   5.140  15.008   2.496  0.0644 -0.0172 -0.2123
19024W        W34833   7.512  18.297   1.510 -0.1224 -0.2710  0.0067
19025W        W34834   2.551  10.920  13.532 -0.0761  0.1978 -0.2194
19026W        W34835  18.936  17.343  15.107 -0.0861 -0.1040 -0.1989
19027W        W34836  18.664  11.561   5.381  0.3790  0.2452  0.2488
19028W        W34837  15.146   3.269  12.902 -0.0672 -0.2512  0.0188
19029W        W34838  14.750   7.927   1.612  0.0391  0.0163  0.1404
19030W        W34839  11.793   5.573  11.098 -0.0773  0.0433  0.2292
19031W        W34840   0.153  15.090  11.115 -0.0444  0.1656  0.1024
19032W        W34841  16.594   7.380  11.982 -0.0399 -0.0822 -0.0907
19033W        W34842   4.848   6.743  11.184 -0.2335 -0.0997 -0.0908
19034W        W34843  13.148   6.820   0.833 -0.1267  0.0569 -0.3381
19035W        W34844  17.383  11.348  10.224  0.2291  0.0612  0.0168
19036W        W34845   0.418  10.733   2.586 -0.1479 -0.3449 -0.0441
19037W        W34846  10.550   9.747   1.102  0.0925  0.0810 -0.2552
19038W        W34847  13.871  18.086  10.639  0.2200 -0.0278  0.1799
19039W        W34848  10.348   2.719  13.602  0.0582 -0.2521  0.1458
19040W        W34849  10.869  16.540   4.775 -0.0793  0.1228  0.0552
19041W        W34850  15.466  18.418   5.902  0.2547 -0.2275 -0.1516
19042W        W34851   2.481   8.801   0.215 -0.2883 -0.0380 -0.0774
19043W        W34852  12.095  11.749   3.833  0.2315  0.0273  0.0729
19044W        W34853  15.415  10.528   3.756  0.1344 -0.1296  0.1446
19045W        W34854  16.774   5.509  14.542 -0.0642 -0.1130  0.4225
19046W        W34855   9.217  16.919   2.636  0.0316 -0.1425 -0.0137
19047W        W34856  15.999  11.337  13.753  0.5357  0.4492 -0.1446
19048W        W34857  16.135   9.470   2.502 -0.0593  0.0639  0.2891
19049W        W34858   4.406   5.681   3.831 -0.0527  0.0842  0.2436
19050W        W34859  18.648   6.471  14.099 -0.0118 -0.2337 -0.0416
19051W        W34860  18.447   2.826  15.191 -0.1337  0.2284  0.1010
19052W        W34861   6.043  14.789   2.469 -0.2961 -0.1128 -0.2074
19053W        W34862   7.401  13.585   0.930  0.0448  0.0409 -0.0252
19054W        W34863   1.266  15.814   4.813 -0.0516  0.2541  0.1034
19055W        W34864  10.385  10.243   1.506  0.1500  0.0711  0.3168
19056W        W34865   2.856   4.545  14.911  0.0764  0.0574  0.1223
19057W        W34866  11.085  15.371   5.303 -0.0497  0.1374 -0.0502
19058W        W34867   6.049  14.268  14.751  0.0779  0.0163 -0.0199
19059W        W34868  17.739   0.380   5.195 -0.1088  0.2332  0.0253
19060W        W34869  15.745  12.719  14.241 -0.2359  0.1044  0.1070
19061W        W34870   8.153   0.423   0.872 -0.1375  0.0377 -0.0861
19062W        W34871   0.778  15.765   0.147 -0.2527  0.1908  0.0025
19063W        W34872   2.200  14.161   4.413 -0.0725  0.1803  0.1290
19064W        W34873  16.279   7.559  11.608  0.3237  0.0281  0.0617
19065W        W34874   5.192   9.499   2.005  0.2723  0.1482 -0.1885
19066W        W34875  10.923  12.011   3.925 -0.0217 -0.1265  0.4398
19067W        W34876   9.604   6.758   0.409  0.1850  0.1324 -0.4655
19068W        W34877  18.628  14.486   3.831  0.0006 -0.0722 -0.0389
19069W        W34878   6.714  14.290  14.903  0.1856 -0.1103  0.1205
19070W        W34879  17.211   9.296  15.064 -0.2334  0.0866  0.2824
19071W        W34880  12.164  15.382  12.166  0.1063 -0.2052  0.0259
19072W        W34881  12.876   2.089  12.966 -0.0683 -0.1768  0.1800
19073W        W34882   5.715  11.644  14.708 -0.1904 -0.1116  0.0096
19074W        W34883   7.313  16.093   4.595  0.0954 -0.0669 -0.0654
19075W        W34884  10.500  11.551   5.304  0.1446  0.1508 -0.0286
19076W        W34885  16.436   3.333   0.197 -0.1910 -0.0936  0.0813
19077W        W34886   1.933  14.937  10.663 -0.1951 -0.0007  0.2937
19078W        W34887  18.058   6.302   0.925 -0.4027 -0.0461  0.0197
19079W        W34888   3.666  10.143   0.758  0.0837  0.1575  0.1414
19080W        W34889  10.170  15.013  12.701 -0.0889 -0.0774  0.3516
19081W        W34890   4.133  11.081  10.960 -0.4084  0.1712 -0.0121
19082W        W34891  16.472   3.427   1.293 -0.0335  0.0241 -0.1702
19083W        W34892   1.573   2.419   0.307 -0.1444 -0.1694 -0.0174
19084W        W34893   9.687   4.426  10.828 -0.0138  0.1287 -0.0853
19085W        W34894   2.770  18.771   4.489 -0.0831  0.2327 -0.0052
19086W        W34895   1.104   7.406   3.122 -0.3188 -0.0884 -0.1158
19087W        W34896  11.141  14.070   2.112  0.0815 -0.4155  0.1247
19088W        W34897   4.240   7.925   2.127 -0.0331 -0.2049  0.2994
19089W        W34898   8.051  15.590  11.048 -0.2102 -0.2052 -0.0169
19090W        W34899  10.083  14.296  11.793 -0.0358  0.0308  0.0123
19091W        W34900  15.506  13.979   2.149 -0.0630  0.2133 -0.0592
19092W        W34901   4.946   2.033   5.200 -0.1207 -0.1801 -0.0803
19093W        W34902   2.779  13.419  14.689 -0.4731 -0.2140  0.1469
19094W        W34903   3.953   8.482   3.526  0.2345  0.2443 -0.0644
19095W        W34904   6.680   6.254   1.669 -0.0169 -0.0933 -0.2670
19096W        W34905   2.657  15.578  13.975 -0.1403 -0.0153 -0.0017
19097W        W34906  13.421  14.370  11.247  0.2535  0.0103  0.1012
19098W        W34907  12.756   5.040   3.062  0.2807 -0.1349 -0.2369
19099W        W34908  15.343   6.740  14.063 -0.0664  0.1197  0.2515
19100W        W34909   4.816  17.322  14.088  0.1185 -0.0821  0.0360
19101W        W34910  12.778  14.400  13.037  0.0623 -0.0994 -0.0615
19102W        W34911  15.346  17.255   1.819 -0.0439  0.2750  0.1465
19103W        W34912   4.832   7.542   2.835  0.0464 -0.0786  0.1869
19104W        W34913  18.807  15.558   5.383  0.2094  0.0406  0.0146
19105W        W34914   1.300  10.806   1.503  0.4639  0.3162 -0.1559
19106W        W34915   5.550  11.967   1.318  0.0872  0.0682 -0.0296
19107W        W34916   7.545  11.856   2.004  0.1709 -0.1016 -0.0385
19108W        W34917  12.560   0.863  11.531  0.0720 -0.1382  0.2552
19109W        W34918  13.403   2.603   3.283  0.2592 -0.1865  0.0953
19110W        W34919   5.240   7.442   0.074  0.4610  0.1181 -0.2091
19111W        W34920   9.989  13.602   4.527  0.1808  0.1843  0.0105
19112W        W34921   8.200  10.772   4.328 -0.0596  0.1028 -0.0816
19113W        W34922   1.534  14.875   4.315 -0.0827 -0.3294 -0.0388
19114W        W34923   4.271   9.175   2.102  0.2806 -0.1492 -0.1456
19115W        W34924   6.051  13.863  13.579 -0.2541 -0.2310 -0.1007
19116W        W34925  10.592   2.430  14.109 -0.1397  0.0295 -0.0170
19117W        W34926   7.836   1.612  14.513  0.2924  0.1511  0.0057
19118W        W34927   7.606   4.101   3.825  0.2656 -0.1382 -0.1421
19119W        W34928  16.446   8.267   5.251  0.1424 -0.1113  0.3331
19120W        W34929   0.612  13.866  10.858  0.0909  0.0439 -0.1697
19121W        W34930  15.357  11.466   1.552  0.1846 -0.1377 -0.1925
19122W        W34931  13.143  17.836   5.058  0.2587 -0.2173 -0.0447
19123W        W34932  16.267  13.396  11.574 -0.0411  0.1799  0.0235
19124W        W34933  15.109  14.422   4.683  0.1289  0.1931  0.0698
19125W        W34934  16.341  18.088  13.505  0.3037  0.3316 -0.1359
19126W        W34935   6.330  15.893  11.203 -0.1950  0.0594 -0.0094
19127W        W34936   0.902  12.688  12.069  0.0822  0.0782 -0.2677
19128W        W34937  12.112   3.660  14.249  0.2422 -0.1730 -0.1574
19129W        W34938   6.770  10.408   4.117  0.2059  0.1682 -0.2525
19130W        W34939  15.710  18.548  12.599 -0.0274  0.3104  0.0592
19131W        W34940  10.270  12.099   3.047  0.0618  0.1295 -0.0637
19132W        W34941   7.193   3.033  13.674  0.0703 -0.2495 -0.2989
19133W        W34942   5.807   0.713   0.324 -0.0142  0.1997  0.0217
19134W        W34943  18.483   4.350   1.379  0.0485  0.0899  0.0357
19135W        W34944  18.681   1.882  15.010 -0.1437  0.0199  0.0230
19136W        W34945   4.716   4.009  14.404 -0.0340  0.3482  0.0011
19137W        W34946   7.601   7.726  15.084  0.2813  0.3238  0.0776
19138W        W34947  16.726  11.639  11.896 -0.0841 -0.3457  0.1070
19139W        W34948  13.809   3.805  14.782 -0.1168 -0.0231 -0.4116
19140W        W34949   6.709  10.061   2.032  0.0642  0.1564 -0.0027
19141W        W34950   1.277  14.630   5.157  0.1399 -0.3673  0.3155
19142W        W34951  13.371   9.300  10.396 -0.4360  0.2633 -0.0454
19143W        W34952  15.315   2.146  14.450 -0.1493 -0.2592 -0.0505
19144W        W34953  11.114  12.220   5.192 -0.0552 -0.3521  0.1695
19145W        W34954   4.260  13.187   3.913  0.2827  0.1314  0.0843
19146W        W34955   8.853  16.468   2.513  0.0497  0.3196 -0.1549
19147W        W34956  18.179   6.366  13.992 -0.1169 -0.0815  0.1516
19148W        W34957  15.517   1.373   2.062 -0.0892  0.0412  0.0265
19149W        W34958   1.531   2.058   2.584  0.1399  0.1262 -0.0531
19150W        W34959  12.026  16.942  12.043 -0.2525  0.2342 -0.0081
19151W        W34960   1.912   8.944   2.466  0.2014  0.1931  0.0165
19152W        W34961   1.386   3.754  13.491 -0.2123 -0.1151  0.0103
19153W        W34962  13.654  14.162  12.622  0.3174 -0.0482  0.2368
19154W        W34963   1.352  16.680  13.592  0.1922 -0.0647  0.2061
19155W        W34964   0.972  18.795   4.062 -0.0727  0.0793  0.1379
19156W        W34965   4.526   8.716   0.257 -0.1039 -0.0114  0.4228
19157W        W34966  16.203  18.204   0.079 -0.0726  0.6517  0.3950
19158W        W34967  11.488  13.262   5.010  0.3098  0.0261  0.2448
19159W        W34968  17.525   2.351   3.777  0.0489 -0.0774 -0.3168
19160W        W34969  17.739   1.913   9.732 -0.1244 -0.2027  0.1665
19161W        W34970  12.907  16.473   1.225  0.5138 -0.0834 -0.1589
19162W        W34971   7.628  16.027   2.293 -0.0285  0.1087 -0.1997
19163W        W34972   2.803   0.477   4.876 -0.3196 -0.1612 -0.1326
19164W        W34973   6.551  18.470  10.263  0.2309  0.0499  0.3405
19165W        W34974  16.918  18.559  10.075 -0.0229 -0.0180 -0.0230
19166W        W34975  17.297   1.380  11.134 -0.2059  0.1406 -0.1196
19167W        W34976   9.581   3.553   2.872 -0.1269 -0.0820  0.1519
19168W        W34977   2.501  10.366   4.624  0.1709  0.1845  0.1000
19169W        W34978   5.472   0.606   1.289 -0.0480 -0.1286  0.2862
19170W        W34979  13.415  13.277   0.818 -0.3493  0.0351 -0.1017
19171W        W34980  14.066   1.671   0.515 -0.0009 -0.2528 -0.2680
19172W        W34981   2.621  16.526  11.674 -0.3103 -0.3833  0.0384
19173W        W34982  15.264   6.078  11.092 -0.4584 -0.0420  0.4164
19174W        W34983   0.053   1.143  14.741  0.1900  0.0505 -0.0798
19175W        W34984  13.432   1.242   1.830 -0.0369 -0.0271 -0.2425
19176W        W34985  11.678   2.433   2.234 -0.1929  0.0674 -0.1050
19177W        W34986  16.169  17.949  14.627  0.1131  0.0169 -0.0268
19178W        W34987   5.218  14.407   1.740  0.1384  0.0634  0.1309
19179W        W34988   5.651  10.430  14.915 -0.2676  0.0136 -0.0572
19180W        W34989  18.745   0.525  12.587 -0.3253  0.1403 -0.3576
19181W        W34990  18.205  14.303   0.598  0.0352  0.1957  0.2515
19182W        W34991  15.588   6.012   3.690 -0.1357 -0.2380  0.0279
19183W        W34992  13.281   3.978   1.662  0.1755  0.0469  0.0275
19184W        W34993   6.863   6.018  11.038 -0.0241  0.2631  0.2556
19185W        W34994   6.208  12.367  12.690  0.2004 -0.0548  0.0217
19186W        W34995   4.780  17.426   9.733 -0.0252 -0.0067  0.0921
19187W        W34996   8.648   5.099   1.856 -0.4171  0.1101  0.0195
19188W        W34997   2.452  17.605   0.959  0.0648 -0.0186  0.2732
19189W        W34998  16.555  15.650  14.996  0.2528 -0.0708  0.1594
19190W        W34999   5.855   3.206  12.363  0.1027 -0.0329 -0.2357
19191W        W35000   1.546  12.042   9.968  0.1986 -0.0825  0.3997
19192W        W35001   8.986   6.231   0.526 -0.3434 -0.0678 -0.2381
19193W        W35002  12.638   1.707   5.365  0.0027  0.1169 -0.0244
19194W        W35003  10.063  10.121   3.858  0.1765 -0.1960  0.1430
19195W        W35004  18.975  15.830   3.943  0.2508 -0.1165 -0.1135
19196W        W35005   8.378  14.581   1.001  0.0196  0.1669  0.1240
19197W        W35006   1.695  15.436   2.951  0.0376  0.1599 -0.1583
19198W        W35007   0.994   3.139   4.214  0.3487 -0.2498 -0.0259
19199W        W35008  13.033   1.428   5.309 -0.3574 -0.2559  0.1748
19200W        W35009   2.148   4.950   0.730  0.0008 -0.2984  0.1224
19201W        W35010  17.778  13.084   3.335 -0.1416  0.1695  0.0269
19202W        W35011   7.768  13.463   1.559 -0.2319 -0.2149  0.0742
19203W        W35012   5.151   1.750  12.627 -0.1822  0.0758  0.0687
19204W        W35013  13.264  16.497  10.767 -0.2061 -0.0084  0.0540
19205W        W35014   7.165   5.451  14.527  0.1595  0.2751 -0.3674
19206W        W35015   4.768  13.489  11.922  0.1290  0.0678  0.0371
19207W        W35016   2.726   1.616   4.334 -0.1276 -0.3937 -0.2628
19208W        W35017   2.533  11.998   3.503  0.0070  0.0302 -0.0577
19209W        W35018  12.410   0.626  10.275  0.3078  0.2727 -0.3341
19210W        W35019   5.949   3.642   3.993  0.1590 -0.2282  0.3108
19211W        W35020  16.174   7.889  13.938 -0.3241 -0.0990 -0.2925
19212W        W35021  15.694   4.479   1.010  0.2840 -0.4289  0.2183
19213W        W35022  16.205  15.029   0.848 -0.3274 -0.0376  0.4037
19214W        W35023  15.511   7.387   0.443  0.3187 -0.0621 -0.1531
19215W        W35024  13.572  10.488  13.738 -0.2714  0.1706 -0.2054
19216W        W35025   1.700  16.717  12.238 -0.1689 -0.2130  0.2264
19217W        W35026   7.987   5.325   4.772 -0.4654  0.1915 -0.0230
19218W        W35027  18.010   0.659   3.877 -0.0925 -0.3146  0.4704
19219W        W35028   9.614   0.105   4.512  0.1091 -0.0156  0.0551
19220W        W35029  12.808  12.087   3.428 -0.2100 -0.1979  0.0275
19221W        W35030  10.573  14.578   0.028  0.0015 -0.2402  0.1399
19222W        W35031   0.196  13.222   5.380 -0.2116  0.0713 -0.0094
19223W        W35032  16.862   7.583  13.712  0.2251 -0.0845  0.1756
19224W        W35033   0.619  16.735   5.554  0.0165 -0.2387  0.0932
19225W        W35034   1.285  16.887   2.792 -0.0107  0.1603  0.1387
19226W        W35035  16.173   5.137   0.527 -0.0382  0.0286  0.0308
19227W        W35036  18.683  11.221   2.565  0.1692  0.0394  0.1048
19228W        W35037   0.824  12.374   4.123  0.2078  0.0982  0.0917
19229W        W35038  13.163   8.417  10.963  0.1805 -0.1163  0.1664
19230W        W35039  13.910  10.752  13.004 -0.0669  0.0413 -0.1062
19231W        W35040  14.887   0.740  11.903 -0.0457 -0.0560  0.0506
19232W        W35041  10.368   6.057   1.960  0.0084  0.0624 -0.1261
19233W        W35042   0.108  10.308   3.373  0.1700 -0.1835 -0.0974
19234W        W35043  16.286  17.461  14.749  0.0563  0.0163 -0.1029
19235W        W35044  13.935   6.184   4.792  0.1042  0.3614 -0.3861
19236W        W35045  16.086   7.909   5.916  0.0060  0.0153 -0.0186
19237W        W35046  17.141  13.891   1.970  0.0873  0.0469  0.0792
19238W        W35047  15.895   9.698   3.489  0.0288  0.3621  0.0515
19239W        W35048  10.389  19.026   3.846  0.0010  0.2977 -0.1308
19240W        W35049   5.947   2.462   1.854 -0.3641 -0.1104  0.2411
19241W        W35050  17.538  18.164  13.440  0.4101  0.2089  0.2639
19242W        W35051   5.322  16.284   1.850 -0.0616  0.0348 -0.1420
19243W        W35052  11.374  15.563   2.950 -0.1155 -0.1290  0.3151
19244W        W35053  10.417   5.315  10.256 -0.0799  0.0221  0.0164
19245W        W35054  12.136   5.878  10.358  0.2015  0.1912 -0.3860
19246W        W35055   3.153  10.062   5.289 -0.1057  0.0662  0.0719
19247W        W35056  13.886  14.043   4.574 -0.0149  0.0859 -0.0569
19248W        W35057   7.654  10.830  13.321  0.2490  0.0629  0.1270
19249W        W35058  10.229   0.533   3.697 -0.0541  0.0301  0.2203
19250W        W35059  10.463   9.528  10.287 -0.0718  0.1245 -0.3301
19251W        W35060   2.386  16.007   2.755  0.2721  0.0895  0.0286
19252W        W35061   5.739   5.649   2.176 -0.1714  0.2055 -0.1650
19253W        W35062  12.234  17.514  11.372  0.0034  0.0020 -0.0305
19254W        W35063  15.220  10.661   1.267  0.0217 -0.0979  0.2051
19255W        W35064   6.510   6.224  14.913  0.0914 -0.1364  0.0768
19256W        W35065   4.698   8.593  14.005  0.1876 -0.0909  0.0700
19257W        W35066  16.094   2.665   4.160 -0.1705 -0.1394 -0.3032
19258W        W35067   6.641  12.620  13.191  0.1060 -0.0024 -0.2041
19259W        W35068  14.416  15.431   2.080 -0.0003 -0.0512  0.1156
19260W        W35069  10.146   1.160  13.613 -0.3613 -0.0755  0.0630
19261W        W35070  10.654   3.780  13.718 -0.0258  0.2084  0.1655
19262W        W35071   3.141  18.224  12.784 -0.2939 -0.0413 -0.1368
19263W        W35072  15.177   2.275   4.004 -0.2369  0.3394  0.2418
19264W        W35073  11.838   7.061   4.698 -0.2515  0.0030 -0.2753
19265W        W35074   1.902  14.870  14.773  0.1815 -0.1054  0.1061
19266W        W35075   1.286  13.156   1.833 -0.1146  0.0585 -0.1472
19267W        W35076   7.419  15.258   2.650  0.2580  0.1463  0.2816
19268W        W35077   8.176  14.938   3.328 -0.2603 -0.1887 -0.1484
19269W        W35078   7.258  16.439  11.984  0.2720 -0.4011 -0.2755
19270W        W35079   1.911   3.264   4.610  0.3835  0.0349 -0.4523
19271W        W35080   6.189   5.819   0.308 -0.2497 -0.0690 -0.3617
19272W        W35081  15.628   9.852  12.899  0.4365  0.2797 -0.2262
19273W        W35082   9.783  18.889   0.500 -0.5182  0.1402  0.1435
19274W        W35083   8.992   2.503   5.134 -0.0528  0.2853  0.2464
19275W        W35084  13.458   8.854  14.826  0.2154  0.3874  0.2414
19276W        W35085  10.367   8.263  12.347  0.0646  0.2793  0.1798
19277W        W35086  15.547  11.020  13.788 -0.2359 -0.2521  0.0505
19278W        W35087  15.992   1.793   4.307 -0.3059  0.2455  0.3048
19279W        W35088   6.678   2.160  13.375  0.0876 -0.1562 -0.3254
19280W        W35089   0.861  12.531  14.787 -0.3416  0.2546 -0.1622
19281W        W35090  16.909  12.590  11.454 -0.0079 -0.1221  0.2022
19282W        W35091  16.304   0.957   4.553 -0.0801 -0.1278 -0.0699
19283W        W35092   3.394  14.662  14.624 -0.2551 -0.0116 -0.1709
19284W        W35093  16.693  17.850   5.983 -0.1158 -0.0291  0.2239
19285W        W35094  14.292  16.803  11.766  0.5975 -0.1384 -0.1124
19286W        W35095   0.897  15.019  14.312  0.0230 -0.1300  0.1764
19287W        W35096   5.843  17.712  13.205  0.0952  0.1359 -0.0893
19288W        W35097   7.164   5.361  11.126  0.0709  0.2684  0.3237
19289W        W35098   4.500   9.526   4.896  0.0624  0.1760  0.0093
19290W        W35099  14.040  12.443   1.485  0.0015 -0.1509 -0.0755
19291W        W35100   0.270  15.089  10.597  0.2964  0.0838 -0.1319
19292W        W35101  17.063  13.853  11.285  0.3598 -0.0322 -0.4588
19293W        W35102  16.257  13.782   3.489 -0.0342 -0.2259  0.0217
19294W        W35103  12.408   9.875  11.131  0.0951 -0.3993  0.0823
19295W        W35104   5.999   9.790  11.222  0.0714 -0.1371  0.2596
19296W        W35105  12.948   5.363   2.772  0.0683 -0.0924 -0.0049
19297W        W35106   9.375  18.239   4.339 -0.3290  0.1562  0.0661
19298W        W35107   3.784   0.477  11.315  0.2892  0.0853  0.1450
19299W        W35108  11.303  10.102   0.420  0.0974 -0.1481 -0.2580
19300W        W35109   1.005   5.348   3.339 -0.0611  0.2566  0.2032
19301W        W35110  18.818  12.463   4.910  0.1469 -0.1348  0.1563
19302W        W35111   8.609  17.125   0.926  0.3412  0.1309  0.0365
19303W        W35112   8.727   5.146   5.510  0.0198  0.2005 -0.2960
19304W        W35113   1.409  14.550  12.926  0.1999 -0.3356 -0.1078
19305W        W35114   9.878   3.674  12.599  0.1678 -0.0292  0.0209
19306W        W35115   9.519  17.635  12.749 -0.0606  0.0701  0.3987
19307W        W35116   4.352  11.440  10.069 -0.0115  0.1486  0.1644
19308W        W35117  12.269   2.683  11.212 -0.0512 -0.3612 -0.0227
19309W        W35118  16.433   4.218   0.696  0.1069 -0.0260  0.0822
19310W        W35119  16.328  14.259   0.381 -0.0376 -0.2509 -0.2629
19311W        W35120  11.683   4.228  13.425 -0.2437  0.1395 -0.1974
19312W        W35121  15.434   4.110   1.210  0.0781  0.0647 -0.0512
19313W        W35122   7.935  10.702  10.218 -0.1816  0.2243  0.2091
19314W        W35123   6.685  15.594   0.700 -0.0404  0.1457  0.1769
19315W        W35124   9.770  14.380  14.411  0.1201 -0.1827  0.3209
19316W        W35125  12.875  10.654   1.708  0.1246  0.3521  0.0944
19317W        W35126   7.493   4.826   2.789  0.3357  0.1741 -0.2846
19318W        W35127   3.578   3.003  13.957  0.1838 -0.0986  0.0481
19319W        W35128   1.429  14.472  11.525  0.0544  0.4106 -0.3295
19320W        W35129   5.506  17.479  13.567  0.2476  0.3428 -0.0612
19321W        W35130  12.846  11.643  15.209 -0.3968 -0.0191  0.4366
19322W        W35131  10.210   3.285   1.922  0.0954 -0.2742  0.2950
19323W        W35132  14.423  11.508   5.223 -0.3467 -0.0899  0.0651
19324W        W35133   2.800  17.314  14.751 -0.1673 -0.0593  0.0080
19325W        W35134  15.570   9.782  11.920 -0.2478  0.1332 -0.0072
19326W        W35135  14.491  11.031   1.652 -0.1035 -0.1122  0.2964
19327W        W35136  14.545  14.944   2.847 -0.0150 -0.1073 -0.3235
19328W        W35137   6.296  18.143  11.539 -0.3009 -0.2986 -0.4261
19329W        W35138   2.307   7.036   5.025 -0.3244 -0.1630 -0.0082
19330W        W35139   4.292   0.338   3.130  0.1396 -0.2525  0.0548
19331W        W35140  11.449  17.649   5.483 -0.0354 -0.2029  0.2960
19332W        W35141  15.595   2.709   4.150  0.2062 -0.2762  0.2707
19333W        W35142  16.762   3.343  14.949  0.1175 -0.1002 -0.1175
19334W        W35143  18.913  18.305   3.425 -0.2195  0.1296 -0.0577
19335W        W35144  10.015   9.465   0.995 -0.3803  0.1154 -0.1174
19336W        W35145   0.458  14.297   5.111  0.1511  0.0185  0.1407
19337W        W35146  16.320  14.507  12.629  0.3392 -0.1697  0.4940
19338W        W35147   4.455   0.826   3.295 -0.2477  0.0399  0.0719
19339W        W35148  15.433   6.626   0.015 -0.0134  0.1799  0.3524
19340W        W35149  14.879  15.785   4.830  0.0516  0.2379 -0.0505
19341W        W35150   9.652  13.564   0.364 -0.2167 -0.1705 -0.2515
19342W        W35151  18.546   5.015   4.423  0.0227 -0.0690 -0.0631
19343W        W35152   5.834   8.157  14.197 -0.3573 -0.0088  0.0682
19344W        W35153  17.755   0.696  13.494  0.0493  0.0809  0.0664
19345W        W35154   4.938   5.403  11.930 -0.1220  0.2069 -0.0343
19346W        W35155  17.748   9.677   2.342  0.1260  0.0100  0.0632
19347W        W35156  11.655   5.658   4.355 -0.2049 -0.2544 -0.1438
19348W        W35157   3.458  12.890   2.977 -0.1394  0.1089 -0.0701
19349W        W35158   4.301  15.634   3.289  0.2121  0.2710  0.0089
19350W        W35159   7.324  16.870  12.284 -0.0079 -0.1258 -0.0413
19351W        W35160  15.619  16.876  13.461 -0.2802  0.2385  0.0156
19352W        W35161   8.115   9.089   3.564  0.1038 -0.1062  0.2238
19353W        W35162  18.010   6.914  11.984 -0.1121  0.0644 -0.3435
19354W        W35163   3.512   4.424  13.735  0.2000 -0.3517 -0.0903
19355W        W35164   2.094   2.162   0.121  0.2253  0.1957  0.1948
19356W        W35165  10.142   8.072  13.903 -0.0260  0.1591  0.1898
19357W        W35166  15.685   8.677  14.116  0.1177  0.0031  0.1564
19358W        W35167  13.004   9.741   4.836 -0.2960 -0.2514 -0.1623
19359W        W35168   3.801   8.064   2.312 -0.2612 -0.1568  0.2818
19360W        W35169  14.793   1.310  10.863 -0.0641  0.1443  0.1751
19361W        W35170  13.464   4.127  10.936  0.1621 -0.2532  0.2500
19362W        W35171   1.958   3.166   3.096 -0.3196  0.2253  0.0569
19363W        W35172  10.008  14.855  10.091  0.1304  0.2285 -0.0113
19364W        W35173  17.640   6.647  12.263  0.5633  0.0184  0.1108
19365W        W35174  14.261   7.260  14.693 -0.0574 -0.2447  0.2072
19366W        W35175  14.418  18.422  14.371 -0.2740  0.1178  0.1196
19367W        W35176   0.821   0.406  11.183  0.3342  0.0096  0.1520
19368W        W35177  11.219   2.320  13.116 -0.0291 -0.2460  0.5113
19369W        W35178   2.610  15.473   2.853  0.1912  0.1749  0.1793
19370W        W35179  12.204   6.502   6.116  0.1118  0.3618  0.1054
19371W        W35180   6.258   5.205  11.549 -0.1342 -0.0303  0.2632
19372W        W35181  12.279  17.773  13.833  0.0486 -0.0881  0.0894
19373W        W35182   8.702   6.110  10.620 -0.0586 -0.0001 -0.1524
19374W        W35183   1.240   3.903   0.259  0.3701  0.1406  0.2255
19375W        W35184  17.293   1.257   1.369 -0.2504  0.0404 -0.1258
19376W        W35185   3.788   4.098  12.318  0.0305  0.1508  0.1462
19377W        W35186  14.129   4.147   1.884 -0.0137 -0.1178  0.2412
19378W        W35187   9.181   7.348   1.936  0.1947 -0.3450 -0.1512
19379W        W35188   3.054  14.930  13.484  0.0859 -0.1975 -0.2259
19380W        W35189   5.184  15.650   3.633 -0.3976 -0.1811  0.0492
19381W        W35190   3.817   1.297  13.491  0.0308  0.0185  0.0752
19382W        W35191   3.716   9.588   2.732  0.3789  0.1445  0.0475
19383W        W35192  16.476   3.484   4.485 -0.3298  0.1574  0.1550
19384W        W35193  15.933   5.553   3.648  0.1160  0.1483  0.1133
19385W        W35194   2.138  17.394  13.357  0.3953 -0.0926 -0.0083
19386W        W35195   4.471   2.801  13.228  0.1745 -0.1798  0.0027
19387W        W35196   7.582   9.605  12.453 -0.0032  0.0148 -0.0551
19388W        W35197  18.036   2.250  14.302  0.3084 -0.0610 -0.1854
19389W        W35198   5.935   4.096   3.617  0.1489  0.1111  0.0149
19390W        W35199  16.313  12.138   5.184  0.1564 -0.1518 -0.1578
19391W        W35200  12.653  18.810  12.081 -0.1646 -0.0406  0.1989
19392W        W35201  16.025   1.017  11.111 -0.7095  0.1162 -0.0318
19393W        W35202  13.486   4.853   4.953  0.0126 -0.0115 -0.3561
19394W        W35203   7.248  12.298   1.958 -0.1131  0.1207 -0.0316
19395W        W35204   5.294  14.466  11.318  0.4413 -0.2235 -0.1264
19396W        W35205   9.302   3.339  11.566 -0.1487 -0.0228  0.1464
19397W        W35206  15.531  12.956  11.569  0.0783  0.3993  0.2091
19398W        W35207   2.643   5.757   3.781 -0.0527 -0.0320  0.0458
19399W        W35208   0.577  14.770  10.929  0.0294  0.2052  0.0297
19400W        W35209   1.056  11.626   4.351  0.0683 -0.4033  0.2352
19401W        W35210   4.097  17.491   0.160 -0.1208 -0.0594  0.1914
19402W        W35211   1.375   7.963  10.632 -0.1402 -0.6226 -0.1490
19403W        W35212   5.053   3.988   2.797  0.2738  0.0286 -0.2230
19404W        W35213   0.733  18.846  11.129  0.0911  0.2323  0.1036
19405W        W35214   2.040   3.020  14.428 -0.3474 -0.0822 -0.1548
19406W        W35215   7.317   1.691  13.571 -0.0082  0.2356 -0.0125
19407W        W35216  16.861  10.274  11.292 -0.0156  0.2150  0.1455
19408W        W35217   0.705  15.583   5.080  0.0627  0.0633 -0.0653
19409W        W35218  11.246   1.447  12.146  0.1585  0.1688  0.1924
19410W        W35219  17.015  13.971   1.136  0.2295  0.1131  0.0150
19411W        W35220   8.103  16.554   2.747  0.0431 -0.1259  0.0908
19412W        W35221   1.765   7.057  12.272 -0.0457 -0.4549 -0.1909
19413W        W35222   2.917   9.990   2.792  0.0920 -0.3062 -0.1049
19414W        W35223  16.316   1.440   4.350  0.2151  0.1876 -0.3330
19415W        W35224   5.084   9.634   1.491  0.2942  0.2045  0.1143
19416W        W35225   6.590   1.440  14.105 -0.5034 -0.3772  0.0924
19417W        W35226  17.637   0.410   2.175 -0.1550 -0.0854  0.1389
19418W        W35227  15.597   0.882   3.973 -0.0593  0.1309 -0.0237
19419W        W35228  17.845   4.109  12.385  0.1482 -0.3961  0.2217
19420W        W35229   3.048  12.158  13.706  0.0880  0.0609 -0.0286
19421W        W35230  18.446   1.377   1.583 -0.2996  0.0240 -0.1546
19422W        W35231   9.910  17.331   9.930 -0.3532 -0.1822  0.1258
19423W        W35232  11.538  10.464   3.683  0.0692  0.0589 -0.0810
19424W        W35233   1.426  17.903  12.821 -0.1067 -0.0915 -0.3334
19425W        W35234  10.847  18.443   2.570  0.1731  0.2060  0.3469
19426W        W35235  16.946   5.503  10.804 -0.2264  0.0211  0.0740
19427W        W35236  18.579   6.830  10.200  0.0043  0.2876  0.1113
19428W        W35237   8.302  12.904  13.419  0.1598 -0.1679 -0.0862
19429W        W35238   9.502  13.226   1.485 -0.2475 -0.1602 -0.2081
19430W        W35239   4.887  16.241  14.857  0.0771 -0.1031  0.2412
19431W        W35240  14.050  17.580   2.889 -0.1186  0.3006 -0.5637
19432W        W35241   6.263   2.306   4.834 -0.2274 -0.1028  0.0463
19433W        W35242   7.603   2.702   9.904  0.0447 -0.4532 -0.1649
19434W        W35243   8.734   1.414   2.188 -0.0834 -0.0451  0.0822
19435W        W35244  18.936  16.275  14.381  0.1890 -0.0370  0.1312
19436W        W35245  14.450   0.994   4.031 -0.1670  0.2481  0.0957
19437W        W35246   8.144   4.058  14.823 -0.2043  0.2139  0.1227
19438W        W35247   4.354  13.452  12.890  0.2276 -0.3678 -0.2202
19439W        W35248  17.614   6.926   1.364 -0.0906  0.0162 -0.0327
19440W        W35249   1.734   4.694   0.536 -0.1281  0.2613  0.4045
19441W        W35250  10.594  16.613   2.111  0.1170 -0.1374  0.1165
19442W        W35251   9.495  10.402   1.522 -0.0627  0.0039  0.3614
19443W        W35252  15.509  11.232  10.835  0.0916  0.2594 -0.1075
19444W        W35253   3.114   3.946  11.644 -0.1056 -0.0208  0.2679
19445W        W35254  12.537  16.519  15.184  0.2968 -0.1346  0.2566
19446W        W35255  16.180  11.535  12.856 -0.5202 -0.0197 -0.1528
19447W        W35256   4.352  17.583   9.530 -0.1722  0.0331 -0.0056
19448W        W35257   5.823  11.694   2.141  0.1047  0.0138  0.2916
19449W        W35258  14.669  12.735  14.732  0.0604  0.1088 -0.1792
19450W        W35259  16.393   9.072   4.845 -0.0516  0.2333 -0.3822
19451W        W35260   8.771  16.310   1.419  0.1064 -0.2925 -0.3162
19452W        W35261   8.371  14.809   1.688  0.1496 -0.0028 -0.0077
19453W        W35262   7.289   0.415   1.713 -0.0752  0.1155  0.0762
19454W        W35263  15.600  17.716   1.068 -0.1846 -0.2383 -0.1745
19455W        W35264   0.578  14.999   0.676 -0.2926  0.3219 -0.0713
19456W        W35265  14.827  14.373  11.426  0.2439  0.0134  0.0730
19457W        W35266  10.907   8.175   4.789 -0.1803  0.1166 -0.2803
19458W        W35267  16.520  11.412  11.527  0.1019 -0.0568  0.1115
19459W        W35268   2.977  13.620   3.103 -0.0621  0.0082 -0.2173
19460W        W35269   9.375  15.700  11.935 -0.1529  0.0597  0.1742
19461W        W35270   1.774  14.205  10.462  0.3296 -0.1362  0.2657
19462W        W35271   2.233   7.394  15.058  0.0072  0.2519  0.1526
19463W        W35272   5.900   7.171   4.760 -0.0911  0.0194 -0.4692
19464W        W35273  15.343   9.038   2.748  0.1606 -0.0913  0.0301
19465W        W35274   8.151  15.280   0.460  0.0407  0.1401 -0.0131
19466W        W35275  15.741  17.392  14.940  0.1289 -0.0147 -0.0452
19467W        W35276   6.414   6.850  12.149 -0.0334 -0.0626 -0.1759
19468W        W35277   6.487  13.516   4.775 -0.3556 -0.1301  0.0229
19469W        W35278  16.184   7.814  13.179  0.0733 -0.0377 -0.1666
19470W        W35279  10.302  17.519  14.680 -0.0937 -0.4894  0.0837
19471W        W35280  11.643   6.339   1.712  0.2304  0.0226 -0.1271
19472W        W35281  14.272   8.355   1.345  0.3215 -0.0801  0.2432
19473W        W35282   0.080  13.769  10.989 -0.1038  0.2270 -0.1510
19474W        W35283  16.510   9.794  13.945 -0.2103 -0.1997  0.0453
19475W        W35284   8.416   1.154   0.699  0.2197  0.1676  0.1621
19476W        W35285   3.058  17.949   0.461 -0.1016 -0.5277  0.0620
19477W        W35286  11.116   3.679  13.550 -0.0890  0.2544  0.6261
19478W        W35287   4.632   3.785  13.316  0.4015 -0.1836 -0.0430
19479W        W35288  16.820  12.071   4.652 -0.1610 -0.0842 -0.1717
19480W        W35289   6.291   3.611  10.699 -0.0256 -0.0551 -0.1827
19481W        W35290   1.649   9.765   5.527  0.1034 -0.1200  0.0486
19482W        W35291   7.859  13.945   0.856  0.2618  0.0991 -0.2120
19483W        W35292  18.698   6.756  12.418  0.1809 -0.2283  0.3899
19484W        W35293  14.693   1.687  14.988 -0.0375  0.0297 -0.0135
19485W        W35294  14.145  11.065   2.007 -0.2454 -0.1526  0.2647
19486W        W35295  16.131  15.225   2.738 -0.0690 -0.0610  0.0317
19487W        W35296  12.192   2.096  14.051  0.0698 -0.1368  0.1057
19488W        W35297  15.243  14.790   2.977  0.1012  0.1426  0.0543
19489W        W35298   3.212   5.606   2.189 -0.1972  0.1655 -0.1376
19490W        W35299   5.394   0.996   2.962  0.0697  0.1043  0.0740
19491W        W35300  14.357   8.260  13.744 -0.0394 -0.0155  0.1079
19492W        W35301  10.591   7.796  12.233 -0.0621 -0.0558 -0.0468
19493W        W35302   5.883   8.045   1.288  0.0962 -0.2852 -0.0910
19494W        W35303   3.845  13.759  12.088 -0.0252  0.0605 -0.1031
19495W        W35304   1.296   9.134   3.568  0.3950 -0.4367  0.1259
19496W        W35305  17.608  16.109  11.709 -0.2134 -0.0390 -0.0348
19497W        W35306   4.718  11.871  10.303  0.0058 -0.0245  0.2690
19498W        W35307  15.216  14.102   4.320 -0.1015  0.1147 -0.4996
19499W        W35308   3.070   8.044   4.990  0.2144  0.0948 -0.0206
19500W        W35309  11.977  17.809   2.547  0.0591 -0.1184 -0.1199
19501W        W35310   0.515   2.223  13.709 -0.3611 -0.3958 -0.1531
19502W        W35311  15.052   3.287   0.205  0.0977  0.1782 -0.3427
19503W        W35312  12.916   1.672  14.560 -0.3746  0.1129  0.1762
19504W        W35313  16.000  12.500  11.591 -0.0392 -0.0143 -0.0448
19505W        W35314  13.100   9.885   3.984  0.0849 -0.2373  0.0689
19506W        W35315  15.115   6.353  12.588  0.4439 -0.2168  0.0140
19507W        W35316  18.645   6.481   2.014  0.1919 -0.0703 -0.1962
19508W        W35317  14.037   2.803  10.857  0.2539  0.0687 -0.1468
19509W        W35318   5.259  18.435   3.614  0.3164 -0.5045 -0.1884
19510W        W35319   5.177   6.638  13.718 -0.1347  0.2170  0.2315
19511W        W35320   5.864  11.271  10.804 -0.0059  0.1746  0.0046
19512W        W35321  12.821  15.438   3.721  0.1473 -0.2148  0.2316
19513W        W35322  14.957  18.107   5.190 -0.0421  0.0600  0.1404
19514W        W35323  15.387   0.003   4.124  0.0287  0.1795  0.0720
19515W        W35324   4.792   1.576   5.087  0.0606 -0.1906 -0.1519
19516W        W35325   4.432   8.655  13.455 -0.1043  0.0623  0.1217
19517W        W35326  14.401  14.953   5.557 -0.1100  0.2958 -0.0739
19518W        W35327  12.175  13.517  10.198  0.2078  0.2041  0.2508
19519W        W35328   0.183   3.465  11.211  0.1832  0.0666  0.0186
19520W        W35329   6.397   8.674  12.936 -0.3037 -0.1331 -0.2335
19521W        W35330   8.443  15.801   2.833 -0.1273  0.3191 -0.1063
19522W        W35331  15.879   5.635   2.214 -0.2028 -0.1779 -0.1268
19523W        W35332   3.339   0.686   1.868  0.0298  0.0321 -0.2455
19524W        W35333   9.644   3.240  14.774 -0.4892 -0.0851 -0.0191
19525W        W35334  14.068   7.825  12.018 -0.0566 -0.0413 -0.1046
19526W        W35335   8.203   5.978  12.352 -0.0706 -0.0927  0.3060
19527W        W35336  10.931   7.078   4.174 -0.2081  0.2424  0.0121
19528W        W35337   9.993  16.295   1.035  0.0649  0.0388  0.0974
19529W        W35338  11.333   4.275  11.493 -0.0590  0.0787 -0.4262
19530W        W35339   9.416  13.592  11.525 -0.2194 -0.1676  0.3119
19531W        W35340  12.921   4.254   0.041  0.1234 -0.1594  0.0495
19532W        W35341   7.638  10.349   9.961  0.3391  0.3351  0.1210
19533W        W35342  14.066   6.193  14.463  0.0509 -0.3294  0.1141
19534W        W35343   2.614  18.662   2.151 -0.1960 -0.0221 -0.2893
19535W        W35344   0.019  11.694   0.614  0.1481 -0.1566 -0.6275
19536W        W35345   0.904   5.890  10.414  0.0332 -0.1063 -0.0092
19537W        W35346   3.397  16.240  13.865  0.4022  0.0247  0.2069
19538W        W35347   8.021   4.923  10.291 -0.0168  0.3302 -0.2666
19539W        W35348   8.953  17.887   4.395  0.0130 -0.1075  0.1905
19540W        W35349  13.790  12.886  14.494  0.2648  0.0896  0.1507
19541W        W35350  12.331   1.574   4.219  0.2896 -0.1143  0.2650
19542W        W35351  18.400  11.368   1.944  0.1301  0.1892  0.0626
19543W        W35352   9.854   9.408  12.058  0.1981  0.2688 -0.2985
19544W        W35353   7.782  10.298   1.185  0.3169  0.0279 -0.0979
19545W        W35354  18.737  10.297  15.226 -0.2877 -0.1733  0.0493
19546W        W35355   6.258   7.429   4.487  0.0871 -0.0087  0.0086
19547W        W35356  13.367  14.302   2.199 -0.1374  0.1520  0.0850
19548W        W35357   0.692   0.647   4.227  0.2118 -0.0200  0.1543
19549W        W35358  11.836   0.748   1.009  0.0631 -0.1594 -0.1148
19550W        W35359   2.252  13.599   2.959 -0.0127 -0.0733  0.0676
19551W        W35360   9.230  17.352  11.929 -0.3871  0.2771 -0.1554
19552W        W35361  10.345   5.145   3.803 -0.0609  0.2941  0.0139
19553W        W35362   5.307  18.194  14.222 -0.1898  0.0709  0.2159
19554W        W35363   6.407   6.785  13.093 -0.1007 -0.2170 -0.0868
19555W        W35364  10.715   6.225   4.869 -0.0512  0.2407 -0.1343
19556W        W35365  18.764   6.191  12.366 -0.0082  0.0374 -0.2495
19557W        W35366   3.124  11.590   1.858  0.1007 -0.0095 -0.3369
19558W        W35367  15.980  17.514  10.446  0.0965 -0.1255 -0.3948
19559W        W35368  16.495   0.853  13.535 -0.0597  0.2145  0.0288
19560W        W35369  11.626  15.155   1.578  0.2025  0.1116 -0.4450
19561W        W35370  11.292   0.228   0.854  0.1112 -0.0655  0.1294
19562W        W35371   7.748   9.357   1.123  0.0131 -0.0967  0.0553
19563W        W35372   1.512  13.304  13.650 -0.0207 -0.2822 -0.0917
19564W        W35373  15.487  17.191   4.774 -0.0722  0.0876 -0.0966
19565W        W35374  18.417   3.035   3.172  0.1864 -0.0544 -0.1537
19566W        W35375   4.162  13.291   9.239  0.1057 -0.0248  0.1249
19567W        W35376  16.543  15.039  13.808 -0.0424 -0.1723  0.0030
19568W        W35377   9.509  16.688   0.870 -0.1470  0.0870  0.0257
19569W        W35378  16.979  18.090  15.002  0.2297  0.0378 -0.0763
19570W        W35379   4.207   6.845  11.751  0.1136  0.0376 -0.0788
19571W        W35380   7.757  15.884   3.055  0.0178 -0.2425 -0.1189
19572W        W35381  15.913  10.589  13.832  0.1870 -0.0167  0.0254
19573W        W35382  14.307  13.290   2.302  0.4198  0.0476  0.0295
19574W        W35383   5.645   5.245  12.684 -0.3124 -0.1052  0.0640
19575W        W35384   4.291   4.789  13.701 -0.1893  0.2115 -0.0561
19576W        W35385   8.980  10.147   2.195 -0.2852 -0.0782  0.0770
19577W        W35386   5.848   8.063   3.943  0.3891 -0.3662 -0.2213
19578W        W35387  12.580  15.785   1.407 -0.0122 -0.2620 -0.0393
19579W        W35388  18.561   8.958   2.691 -0.3513 -0.4908 -0.2312
19580W        W35389  14.694   4.785   9.949  0.1784  0.0269  0.2926
19581W        W35390   1.245   7.452   0.308 -0.1970  0.1074 -0.0408
19582W        W35391   0.317  12.501  12.601 -0.1871 -0.1845  0.2461
19583W        W35392   1.094  15.150  12.192 -0.2726 -0.2311  0.2353
19584W        W35393  13.366   6.390  12.268  0.1668  0.1967 -0.0166
19585W        W35394   7.360   1.693  14.482  0.0196  0.1714 -0.3590
19586W        W35395  10.395   3.052   2.315  0.0059 -0.0559  0.1573
19587W        W35396   1.424  12.837  12.020  0.0792  0.1080  0.0620
19588W        W35397  13.137  16.115   5.426  0.0619 -0.0715 -0.2704
19589W        W35398  10.854  16.000  15.163 -0.2945  0.0755 -0.3971
19590W        W35399   0.334   1.752   4.873 -0.0226 -0.1526 -0.0291
19591W        W35400   4.427   4.716   4.865 -0.0272 -0.3154  0.0052
19592W        W35401   7.248  17.126   4.082 -0.4553 -0.2014  0.2230
19593W        W35402  12.681   6.362   0.170  0.1864  0.0128  0.0687
19594W        W35403  10.025  17.687   4.907 -0.1755 -0.0366 -0.4937
19595W        W35404   9.767  18.021  13.954 -0.0138  0.0462 -0.2868
19596W        W35405  13.722  14.019   3.562  0.4981 -0.1702 -0.0251
19597W        W35406   1.623  11.155  13.056 -0.3167 -0.0446 -0.2635
19598W        W35407   4.973  18.110  13.233  0.3155 -0.2364  0.2036
19599W        W35408  16.928   3.818   3.137 -0.3583 -0.3388 -0.4238
19600W        W35409   6.719  19.000   3.169  0.0658 -0.3860 -0.6036
19601W        W35410   8.280   7.417  12.359  0.0042  0.0493 -0.2896
19602W        W35411  17.633   3.395  14.600 -0.4815 -0.2390  0.2043
19603W        W35412   9.154   1.798  11.730 -0.2124  0.0636  0.1894
19604W        W35413  16.983   4.367  13.898 -0.2240  0.0784 -0.0847
19605W        W35414   4.099  13.278  10.675  0.0531  0.0894 -0.0299
19606W        W35415  13.138  15.242   2.733 -0.2462  0.0344 -0.3620
19607W        W35416  11.836   3.192  11.795  0.1354  0.4682 -0.0940
19608W        W35417   6.357  10.676   4.371  0.0845 -0.2087 -0.1510
19609W        W35418  10.617   0.569  14.283 -0.0186 -0.1424  0.3625
19610W        W35419  17.728   4.004   1.957 -0.0445  0.0409  0.1333
19611W        W35420  17.603  11.706  13.333 -0.0675  0.0017 -0.1153
19612W        W35421   1.510  14.541   1.570  0.0503 -0.1061 -0.1148
19613W        W35422   8.579  17.429   3.845 -0.0283  0.2035 -0.0311
19614W        W35423   2.464  13.833  12.900 -0.1496 -0.1052 -0.1526
19615W        W35424   4.741  15.099   4.223  0.2383  0.0779 -0.1350
19616W        W35425   4.489   9.341  10.759  0.1554  0.1189  0.3371
19617W        W35426   1.084   8.714  12.445 -0.0943  0.1410  0.2213
19618W        W35427   9.382  18.345   0.949  0.3677  0.2004  0.3324
19619W        W35428   6.126   7.758  14.365 -0.0308  0.1465 -0.3395
19620W        W35429   3.867  18.110   2.521  0.4059 -0.2543 -0.1210
19621W        W35430  12.652   6.265  14.428 -0.2242 -0.0094 -0.0149
19622W        W35431   1.862   4.586  12.637 -0.2289  0.0915 -0.2628
19623W        W35432   7.040   3.264   0.924  0.0525  0.3734 -0.0494
19624W        W35433  14.231   9.339   0.822 -0.0368  0.0312  0.1720
19625W        W35434  10.683  13.539  14.292 -0.1217 -0.1925 -0.0896
19626W        W35435  12.547   2.399  10.685  0.2216  0.2300 -0.1598
19627W        W35436  13.086   0.718  11.372 -0.1332 -0.0867 -0.0587
19628W        W35437   9.469  18.418   5.079  0.3577  0.0834 -0.0479
19629W        W35438   0.319   1.728   3.614  0.0351 -0.0438 -0.0726
19630W        W35439  16.126   2.291   4.473 -0.1359  0.0613 -0.3933
19631W        W35440   6.202  18.576  13.468  0.0893  0.0739 -0.1185
19632W        W35441   5.753   7.332  10.917 -0.2213  0.0928  0.0972
19633W        W35442  14.722   0.468   0.636  0.0104 -0.0900 -0.1045
19634W        W35443  13.260  18.322  11.587  0.1135 -0.2740 -0.3350
19635W        W35444   6.430  16.040  14.707 -0.1792 -0.1132  0.4779
19636W        W35445   6.489   3.889   2.709 -0.2181 -0.0338  0.1112
19637W        W35446   3.435  17.466   1.475  0.0218 -0.1791  0.2310
19638W        W35447  13.183  10.228  14.543  0.1897  0.0404 -0.0891
19639W        W35448  11.378  15.105  14.646  0.0661  0.0671 -0.0290
19640W        W35449  11.720  11.866   9.987 -0.3720 -0.0923 -0.1590
19641W        W35450  16.370   1.601  11.796 -0.1553  0.3771  0.0931
19642W        W35451  18.146  12.169   3.203  0.0136  0.0584 -0.2203
19643W        W35452  16.166  15.409   4.465  0.1219 -0.1088  0.0817
19644W        W35453   0.704  15.104   2.871  0.3249 -0.0134  0.0128
19645W        W35454  17.347  17.744  14.782  0.1828  0.1304 -0.2157
19646W        W35455   1.706  17.353   3.690 -0.1324 -0.0518 -0.0384
19647W        W35456   2.923   9.397   9.971 -0.0401 -0.2965 -0.2334
19648W        W35457   6.944   5.082   0.096  0.0580 -0.2760  0.0172
19649W        W35458   8.638  17.015   0.404  0.3387  0.0276 -0.0753
19650W        W35459   6.876   2.101  11.813  0.1190 -0.1183  0.1802
19651W        W35460   1.493  10.007  12.569  0.2266 -0.2413  0.2336
19652W        W35461  16.028   5.123  14.330 -0.2558  0.2357 -0.0818
19653W        W35462   0.466  15.752  14.880  0.0287 -0.3369  0.0893
19654W        W35463   6.248   6.890   5.111  0.0906 -0.1878 -0.1860
19655W        W35464  15.898  14.133   0.158  0.0265 -0.3497  0.1852
19656W        W35465  10.867  16.262   2.858  0.2134  0.1223 -0.0795
19657W        W35466  10.851  12.512   2.685  0.0260  0.0267 -0.1734
19658W        W35467  10.818   0.324   1.926 -0.1919  0.2206 -0.1187
19659W        W35468  11.878   0.164  14.335  0.0685 -0.1034 -0.0008
19660W        W35469   7.114  15.937   0.775  0.1998 -0.1380 -0.0732
19661W        W35470  14.557   2.475  15.075  0.0782 -0.0354  0.2401
19662W        W35471   3.502  12.777   1.020 -0.0997  0.1565 -0.0722
19663W        W35472  14.424   3.753  10.945  0.2709 -0.0185 -0.0975
19664W        W35473   5.970  18.939  12.630 -0.0554  0.3113  0.0144
19665W        W35474   8.722   8.923  14.038  0.2836 -0.0964  0.3314
19666W        W35475  14.139   9.801   0.584  0.3104  0.0183 -0.0170
19667W        W35476   4.145   6.692  13.716 -0.0530  0.0527 -0.0294
19668W        W35477  13.521  14.519   3.439  0.1122 -0.0680  0.0569
19669W        W35478  15.655  12.024  11.592 -0.0756  0.0817  0.2141
19670W        W35479  12.358   7.125   1.837 -0.2354  0.2443  0.5320
19671W        W35480   2.318   6.023   1.103 -0.0356  0.1201 -0.0519
19672W        W35481   5.283  15.500  11.047  0.3861 -0.1380  0.2099
19673W        W35482  13.623   0.756   1.969 -0.1662 -0.0309 -0.1994
19674W        W35483  10.479  10.181   0.818  0.0344  0.0508  0.2806
19675W        W35484  12.376   0.103   2.600  0.2627  0.1675  0.0855
19676W        W35485   4.288   3.922   0.949 -0.4554  0.1731 -0.0559
19677W        W35486  11.319  12.102  11.537 -0.2006 -0.0725  0.0210
19678W        W35487  10.482  16.995  13.666 -0.0775  0.1914  0.3665
19679W        W35488   2.423   9.186  13.150 -0.1985 -0.1366  0.0234
19680W        W35489   3.036   6.805  10.801  0.1999  0.0012 -0.0663
19681W        W35490  15.827  10.814   2.783 -0.2636 -0.2897 -0.0746
19682W        W35491  15.306  12.409   5.110  0.3624 -0.1979 -0.1784
19683W        W35492  14.865  15.758   2.198 -0.2042  0.1029  0.0272
19684W        W35493   8.317  14.032   1.043 -0.0146  0.3021  0.1114
19685W        W35494  18.257   0.809  12.631  0.0504 -0.2274  0.3700
19686W        W35495   2.399  13.306   1.953 -0.0358  0.1395  0.0213
19687W        W35496  10.650   0.430  12.771 -0.0835 -0.1280 -0.0146
19688W        W35497  16.712   2.747   5.592 -0.0908 -0.2209  0.2223
19689W        W35498   4.364   9.924  14.968  0.1595 -0.2893  0.2457
19690W        W35499  14.129   7.880   0.907 -0.5911 -0.1184 -0.0348
19691W        W35500  11.048   3.800   3.849  0.2319 -0.0418 -0.3433
19692W        W35501   2.183   0.486   5.577 -0.0782  0.0413 -0.0267
19693W        W35502   0.930   3.185   3.190 -0.2024  0.0062  0.2122
19694W        W35503  15.028   5.687   5.103 -0.3312  0.1601  0.1863
19695W        W35504   1.649   0.798  10.616 -0.0629 -0.1046  0.2124
19696W        W35505   5.880  17.750  15.042 -0.1268  0.1853  0.2407
19697W        W35506  10.961  15.786   2.057 -0.1729 -0.0236  0.2221
19698W        W35507  13.693   5.356   3.630  0.2320  0.1476  0.1921
19699W        W35508  17.862  19.006   2.389  0.2053  0.0372 -0.0721
19700W        W35509  18.675   7.840  14.921 -0.1465 -0.0300  0.0191
19701W        W35510   6.659  14.950  14.617 -0.1157  0.2294  0.0331
19702W        W35511   2.527  18.864  13.206 -0.4103 -0.1680 -0.2349
19703W        W35512  14.644   6.151   4.175  0.0366 -0.0349 -0.1461
19704W        W35513   4.678  15.113   2.379 -0.0057 -0.0648  0.3378
19705W        W35514  18.659   7.945   0.682  0.1866  0.1547  0.2125
19706W        W35515   5.821   1.266   1.914  0.0677  0.1210 -0.4579
19707W        W35516  16.542  15.142  14.862 -0.3430  0.1966  0.0106
19708W        W35517  15.122   1.776   4.928 -0.0527  0.0366 -0.1113
19709W        W35518   1.705   3.191   0.840  0.0792  0.0160 -0.2182
19710W        W35519   1.400   7.240  10.328  0.0759 -0.2258 -0.0687
19711W        W35520  11.636  13.701   0.462 -0.1527  0.2253  0.0931
19712W        W35521  15.903   1.517  13.666 -0.2407  0.1266  0.0384
19713W        W35522   2.391   8.584  11.487 -0.3383  0.0264 -0.1410
19714W        W35523   9.935  16.959  13.376 -0.0525  0.2499 -0.1822
19715W        W35524  15.178  18.806  11.419 -0.1102  0.0626  0.3481
19716W        W35525   6.046  15.888   4.368 -0.0299  0.2333 -0.0555
19717W        W35526  12.204  10.813  15.037 -0.2325  0.0705  0.0309
19718W        W35527  11.410  17.981  11.853  0.0893  0.1815  0.0369
19719W        W35528  16.366   1.195   1.422 -0.0197 -0.0765 -0.0625
19720W        W35529   4.468   2.025   4.163  0.0792  0.2008  0.0586
19721W        W35530  17.071  15.060  13.713  0.3317  0.1961 -0.0176
19722W        W35531   9.789  17.536  13.904 -0.1180 -0.1074 -0.0109
19723W        W35532  15.819   5.114   1.475  0.0118 -0.1713 -0.3139
19724W        W35533   2.717   3.632  11.725 -0.0514 -0.1731 -0.4220
19725W        W35534   2.204   9.599  13.270 -0.0079 -0.2703 -0.4708
19726W        W35535   4.281  14.343  10.392  0.3798  0.2420 -0.0171
19727W        W35536  18.196   9.277  10.459  0.1382 -0.1206  0.2677
19728W        W35537  10.040   9.803  11.007  0.1332 -0.2191  0.2268
19729W        W35538  11.474   0.422  14.227 -0.1636 -0.1029 -0.3224
19730W        W35539   6.158  18.194   4.551  0.0286  0.0888 -0.0332
19731W        W35540   9.302   0.906  14.358 -0.1114 -0.1487 -0.3508
19732W        W35541   3.185   7.963  12.744  0.2744  0.3675  0.3270
19733W        W35542  15.747  18.963   3.547 -0.0008 -0.0679  0.0868
19734W        W35543   6.965   9.503   9.791 -0.1642  0.1331 -0.0149
19735W        W35544   8.520   8.719   4.931  0.3493 -0.1397 -0.0174
19736W        W35545   0.552   9.159   2.849 -0.1504  0.0563 -0.2028
19737W        W35546  12.118   4.855  11.370  0.2838  0.2154 -0.2283
19738W        W35547   7.234  12.012  10.752 -0.4276 -0.0135 -0.0505
19739W        W35548   7.124   8.604   2.381 -0.1201  0.3480  0.1649
19740W        W35549  17.459   7.206   0.417 -0.3973 -0.0544 -0.3046
19741W        W35550   3.293  15.982  12.041 -0.0762 -0.1711 -0.2164
19742W        W35551   8.488   6.137   1.320 -0.0299 -0.0243 -0.0126
19743W        W35552  17.872   7.317  14.301 -0.0100 -0.0451 -0.3128
19744W        W35553   1.431   8.490  13.759  0.0984  0.2561  0.2143
19745W        W35554  17.758   7.143  10.621 -0.0661 -0.0197 -0.2123
19746W        W35555  10.724  11.320   2.204  0.3005  0.2936  0.1501
19747W        W35556  10.823  13.663  10.585 -0.0031  0.0568 -0.3092
19748W        W35557   1.133   6.646   4.803  0.2781 -0.2500 -0.0483
19749W        W35558  17.246  14.256   0.687  0.0037 -0.0053 -0.0752
19750W        W35559   4.471   9.964   1.103 -0.0449  0.0913 -0.2077
19751W        W35560  16.517   1.842   2.438  0.0636  0.2139  0.0603
19752W        W35561   5.924  10.151   0.928  0.0787 -0.0593  0.0707
19753W        W35562   6.998  17.777   5.492 -0.1746  0.0163 -0.1506
19754W        W35563   3.881  18.321   0.145  0.2049  0.2125 -0.1191
19755W        W35564  14.361  15.083  13.274  0.0061 -0.1872  0.0213
19756W        W35565   0.733   1.143  15.073  0.1066 -0.3924  0.2591
19757W        W35566   7.754  12.599   2.583 -0.1686  0.2564 -0.1489
19758W        W35567  17.938  14.542   3.895 -0.1573  0.1862 -0.2042
19759W        W35568   2.205   8.301   1.170 -0.0189 -0.0127 -0.0441
19760W        W35569  15.075   5.072   4.860  0.0033  0.0194  0.1143
19761W        W35570  14.838   6.842  11.635 -0.3434 -0.0380 -0.0453
19762W        W35571  10.069  17.768  11.947 -0.1492 -0.2230  0.1374
19763W        W35572   0.705   3.264  13.570 -0.1011  0.4593  0.1333
19764W        W35573  16.007   9.036  12.370  0.0497 -0.0242 -0.1667
19765W        W35574   5.345  16.979   3.553 -0.0229  0.2357  0.0621
19766W        W35575   1.510  17.261   2.102  0.0557 -0.1678 -0.0756
19767W        W35576  13.937   9.119   1.285  0.4079 -0.5283 -0.0090
19768W        W35577   3.510  14.227  13.472  0.1429 -0.4121 -0.1322
19769W        W35578  16.719   6.751   0.322  0.3471 -0.4462  0.2816
19770W        W35579  10.443  11.116  12.655  0.1056  0.0217  0.4057
19771W        W35580  16.064   1.988  11.343  0.1555 -0.0064 -0.3152
19772W        W35581   8.151  11.641   0.480 -0.0995  0.0480  0.0669
19773W        W35582   6.975   0.516  11.790 -0.2339 -0.0528 -0.1795
19774W        W35583  18.556  15.034   4.444  0.1116 -0.2055 -0.2753
19775W        W35584  15.420  14.357  11.566  0.0596  0.0367 -0.0802
19776W        W35585   1.638  18.617  12.049 -0.1871 -0.0908 -0.3089
19777W        W35586   6.037   8.768  14.131 -0.0880  0.5024 -0.2679
19778W        W35587   7.295  15.930   3.267 -0.1221 -0.0922  0.1831
19779W        W35588  18.595   0.874   9.828  0.2514 -0.0121  0.0726
19780W        W35589   4.243   9.073   4.388 -0.1217  0.1044  0.0332
19781W        W35590   1.469   8.459  14.743  0.1204  0.0876 -0.0597
19782W        W35591  18.353   7.898   3.409  0.2511 -0.0419  0.1483
19783W        W35592   0.508  17.774   2.306  0.1939  0.0065 -0.0244
19784W        W35593   5.112  18.443   2.218  0.0688  0.1173 -0.0981
19785W        W35594   4.241  17.738  12.630 -0.0807  0.3275 -0.1997
19786W        W35595  17.238   8.966   2.729  0.4164  0.2207  0.0921
19787W        W35596  15.344  16.400   2.380  0.0819  0.2266  0.2799
19788W        W35597   9.271  13.786   3.521 -0.1610 -0.0319 -0.1766
19789W        W35598  13.217   2.798  11.297 -0.0937 -0.3919  0.4481
19790W        W35599  13.235  14.641   2.555 -0.1123  0.1589 -0.0053
19791W        W35600   3.533   7.828   0.394 -0.1897  0.4006 -0.0822
19792W        W35601  12.438   6.045   5.287  0.0485 -0.0305 -0.1618
19793W        W35602  10.974  16.740  13.737  0.0367 -0.0378  0.0628
19794W        W35603   2.411   6.768  13.105  0.0721 -0.2638 -0.0271
19795W        W35604   0.022  18.805  10.520  0.0524  0.1399  0.1157
19796W        W35605   2.224   3.027  11.349 -0.2543  0.0502  0.0476
19797W        W35606   5.875  14.864   0.777 -0.2146  0.0442  0.3906
19798W        W35607  11.848   2.159  13.055  0.0309  0.1046  0.0608
19799W        W35608   1.515  18.481  13.563 -0.1256 -0.6473 -0.0892
19800W        W35609  10.967   6.330   0.261 -0.1606  0.0954 -0.2400
19801W        W35610   8.291   9.948   5.291 -0.2243  0.0150 -0.2687
19802W        W35611  13.695  12.938  11.848 -0.1102 -0.1475  0.0556
19803W        W35612  14.809   3.442   4.054 -0.0914  0.1886 -0.0463
19804W        W35613   9.491   6.976   2.071  0.0137 -0.0204  0.0538
19805W        W35614  10.969   4.285  14.892  0.1109 -0.1009  0.0662
19806W        W35615  17.197   2.794   4.831  0.2521 -0.0804  0.0978
19807W        W35616  15.068  11.008  11.188  0.1592  0.2702  0.1086
19808W        W35617  16.619   3.598  13.584 -0.0286  0.0491  0.1421
19809W        W35618  14.757   2.192   4.830  0.1013  0.0500  0.2501
19810W        W35619   0.539  17.793   4.623 -0.1891  0.5399 -0.1903
19811W        W35620  10.709   6.467   4.021  0.3276 -0.2641  0.0218
19812W        W35621   3.812  18.356   0.664  0.0139  0.1851  0.2090
19813W        W35622   1.881   7.907  11.799 -0.1463 -0.1893  0.0960
19814W        W35623  14.929  15.259   0.538  0.1144  0.3006 -0.1136
19815W        W35624   5.707   4.480  13.057 -0.0435 -0.3634  0.2244
19816W        W35625  16.890   3.384  11.690  0.1531 -0.1455  0.1899
19817W        W35626   6.223  11.226   4.340  0.1728 -0.0177 -0.2232
19818W        W35627   2.540   3.583  12.233 -0.0767 -0.1626  0.2162
19819W        W35628   0.745  16.294   5.697 -0.2647 -0.1374  0.0869
19820W        W35629   2.102  11.964  13.685 -0.2630  0.1464  0.2356
19821W        W35630   1.264  18.659   1.842 -0.1208 -0.1160  0.3696
19822W        W35631   7.240  11.488   3.537  0.1424  0.0344 -0.1907
19823W        W35632  18.309  11.207   1.108  0.1191 -0.1940 -0.0171
19824W        W35633   2.445   8.750   1.077  0.3185  0.0363 -0.3190
19825W        W35634  17.822   4.869   2.047 -0.0865 -0.0088  0.0856
19826W        W35635  17.966  16.960   1.876  0.0979  0.2166  0.0030
19827W        W35636  18.787   5.793   2.087 -0.2060  0.0160  0.0698
19828W        W35637   4.153  18.942   3.576  0.1231  0.0159  0.2730
19829W        W35638  13.360   8.038   3.015 -0.1892  0.2962 -0.1088
19830W        W35639   5.544   3.931  10.643 -0.3002 -0.4079  0.2838
19831W        W35640   1.552  12.851  14.065  0.0439  0.1437 -0.1061
19832W        W35641  10.957  14.618  12.458  0.2440  0.1906 -0.3126
19833W        W35642  16.417   8.635   4.652  0.3237  0.1599 -0.0616
19834W        W35643  15.999   5.000  13.848 -0.1309 -0.0162  0.1026
19835W        W35644   3.990   0.829  11.660 -0.0429  0.0629  0.2673
19836W        W35645  11.120   5.977   1.468 -0.0204  0.1040 -0.0451
19837W        W35646  16.931   5.538  15.015  0.3781  0.0112 -0.0742
19838W        W35647   3.278  18.022   3.030  0.0272  0.0836  0.0658
19839W        W35648  11.152  14.930  11.900  0.2098  0.1544  0.1421
19840W        W35649   3.414  18.315   1.340 -0.0892  0.0369  0.1813
19841W        W35650  18.549   0.308   2.306  0.1427 -0.0379  0.0518
19842W        W35651   4.477   7.457   4.927  0.1231 -0.0329  0.4205
19843W        W35652   2.020   0.864   4.331  0.0885 -0.0081  0.0783
19844W        W35653   6.455   6.867  14.920  0.2329 -0.0211  0.1078
19845W        W35654   7.983  18.520   1.869  0.1382  0.0443 -0.2453
19846W        W35655  16.153   2.800   2.778 -0.0374 -0.0133 -0.3056
19847W        W35656  13.475   1.858  13.591 -0.1504  0.1451  0.0536
19848W        W35657  12.433  15.601  13.664  0.1618  0.2280 -0.1544
19849W        W35658   2.429   1.996   3.761 -0.0962 -0.0606  0.1047
19850W        W35659   9.686  14.652   3.596 -0.1240  0.2593  0.0873
19851W        W35660   3.474  15.699  13.090 -0.2645 -0.1997 -0.3892
19852W        W35661  15.601   5.604   5.821  0.0552  0.0593 -0.1054
19853W        W35662  17.708  11.269   5.237 -0.0052  0.1031 -0.1024
19854W        W35663  12.264  18.556  12.358 -0.1056 -0.1593  0.1578
19855W        W35664   7.236  15.317  10.325 -0.1969  0.4178  0.1578
19856W        W35665  15.787  15.752  11.735  0.0636  0.2839 -0.1467
19857W        W35666   2.904  17.219   2.346  0.2518 -0.3640  0.1177
19858W        W35667  17.305   0.610   0.819  0.3175 -0.0149 -0.1771
19859W        W35668  16.459   4.659   0.326  0.0210 -0.0999 -0.1785
19860W        W35669   4.727  17.632   2.212  0.0164  0.0869  0.0045
19861W        W35670   7.085  14.754  13.998 -0.0139  0.0146 -0.0265
19862W        W35671   5.172   4.617  11.246 -0.1643 -0.1576  0.0561
19863W        W35672   7.553  10.408   2.057 -0.0336 -0.1464  0.1429
19864W        W35673   3.953   2.651   1.495  0.0227  0.0224  0.1109
19865W        W35674  14.547  10.756   3.857  0.0474 -0.3311  0.1312
19866W        W35675   7.426   7.984   9.993  0.1679 -0.4698  0.1589
19867W        W35676  14.041  17.079   1.927 -0.1198  0.1493  0.1590
19868W        W35677  13.591  10.566  11.712 -0.2393 -0.3611 -0.1697
19869W        W35678  13.695  12.296  11.467 -0.1608  0.0688  0.0356
19870W        W35679   5.680   1.459  13.754  0.1315  0.1144 -0.0430
19871W        W35680  11.374   6.752   4.486 -0.2003  0.0647  0.0764
19872W        W35681   3.958   1.722   4.631  0.3075  0.2959 -0.5519
19873W        W35682   1.807   2.152   2.183  0.0434 -0.1605 -0.2571
19874W        W35683  16.181  13.185  14.026  0.1055  0.2088 -0.0335
19875W        W35684  16.907   6.693   4.984  0.1150 -0.1302 -0.0671
19876W        W35685  15.024   0.620   1.700 -0.1313  0.0220  0.0586
19877W        W35686  11.588  14.552  14.206 -0.0267 -0.3492 -0.0905
19878W        W35687   0.411   4.616   4.305  0.0992  0.1238 -0.0613
19879W        W35688   7.098   5.347   1.405 -0.0383  0.1167 -0.2106
19880W        W35689  17.322   4.103   3.288  0.1523 -0.0421  0.1871
19881W        W35690   6.659   1.197   0.115 -0.1015  0.1247  0.0944
19882W        W35691   6.451  18.843   0.005  0.1786 -0.2226  0.3362
19883W        W35692   8.753  18.119  11.707 -0.0213  0.1602 -0.1095
19884W        W35693  10.482   5.593  14.665 -0.0055  0.1880  0.1718
19885W        W35694  15.041  17.047   1.387  0.0949  0.0808 -0.1834
19886W        W35695   3.315   9.393   1.874 -0.1124 -0.6550 -0.1613
19887W        W35696   2.904   0.597  12.199 -0.0597  0.1606 -0.0298
19888W        W35697  14.921  11.966  12.854 -0.0742  0.0843 -0.1534
19889W        W35698   9.107  11.785   3.637  0.2273  0.3537  0.1204
19890W        W35699  12.880   8.884   2.693 -0.1784  0.1481 -0.1979
19891W        W35700   2.772   5.802   2.362 -0.2917 -0.0618 -0.3446
19892W        W35701  11.211  10.415   1.465 -0.3333  0.1007  0.1843
19893W        W35702   9.840  15.030   2.803  0.2862 -0.0643  0.0111
19894W        W35703   9.951   4.677   3.022 -0.0950 -0.1534  0.4621
19895W        W35704   9.973  13.902  14.301 -0.0250  0.3808 -0.3881
19896W        W35705   7.062  15.803   4.230  0.0162 -0.0598 -0.2209
19897W        W35706   8.532  16.890  13.898 -0.0491 -0.0932 -0.2857
19898W        W35707   0.739  11.983  11.269 -0.0329 -0.1777 -0.1237
19899W        W35708  12.218   8.924  14.021 -0.0827  0.0454 -0.0835
19900W        W35709  16.502   7.753   2.961 -0.2697  0.0327 -0.0573
19901W        W35710  15.844   3.679   1.881  0.0064 -0.0828 -0.0407
19902W        W35711  13.685   1.652   4.261  0.1980 -0.0025  0.1105
19903W        W35712  11.884   7.999   3.852  0.1340  0.1760  0.1230
19904W        W35713   7.415  12.326  14.659  0.0128  0.2183  0.0661
19905W        W35714   8.157   3.423  12.395  0.1468 -0.0681 -0.0777
19906W        W35715   0.717   2.121   1.406 -0.1411 -0.1422 -0.1385
19907W        W35716  10.101  11.292   0.208  0.3547  0.0540  0.4600
19908W        W35717   9.764   7.994  13.635 -0.0833 -0.3281  0.0604
19909W        W35718   3.863  17.053  12.070  0.0057 -0.1506 -0.2400
19910W        W35719  10.309  13.281  12.781  0.2471  0.1510 -0.4944
19911W        W35720   8.406  14.352  14.143  0.2142  0.2208 -0.0033
19912W        W35721  13.922   9.328  13.503 -0.1451 -0.0215  0.2115
19913W        W35722   4.058   7.870   0.389 -0.2009  0.1411 -0.2215
19914W        W35723  11.880   4.206  14.392 -0.2372  0.2379  0.5051
19915W        W35724   1.193  15.818  11.629 -0.0205 -0.3176 -0.4622
19916W        W35725  11.860  17.762  14.290 -0.0695  0.2888 -0.1137
19917W        W35726   5.232   3.030   0.967  0.2348 -0.0889 -0.0984
19918W        W35727   2.362   6.400   2.736  0.2781 -0.1965  0.2559
19919W        W35728   6.814  19.023   4.588  0.0572 -0.0214 -0.3216
19920W        W35729  13.074  10.198  10.019  0.3192 -0.2226 -0.0427
19921W        W35730  10.088  10.743  14.060 -0.4795  0.2979  0.0348
19922W        W35731   0.986  14.031   1.264 -0.1241  0.1028 -0.2743
19923W        W35732  10.667   9.393   3.848  0.2341 -0.0528 -0.1895
19924W        W35733  18.655   4.938   1.558  0.4022  0.2421 -0.2187
19925W        W35734  15.973   6.386  12.531 -0.3068 -0.4702 -0.1519
19926W        W35735   5.902   6.728   4.471 -0.4474 -0.1708  0.2703
19927W        W35736  19.026   6.583   5.277 -0.1734  0.1632 -0.1622
19928W        W35737   9.038   7.310  10.809  0.1225 -0.0322 -0.1206
19929W        W35738  11.355  16.676   0.097  0.1498  0.3144  0.0612
19930W        W35739   0.568  11.313   2.563 -0.2158 -0.0795 -0.2062
19931W        W35740   0.307   6.229   1.437  0.1898  0.3825 -0.0002
19932W        W35741  16.606  16.771  14.002  0.0662  0.3050 -0.1407
19933W        W35742  14.141   2.602  12.648  0.2884 -0.2724  0.0578
19934W        W35743  10.761  17.594   3.169 -0.1550 -0.3132 -0.0265
19935W        W35744   0.966   9.693  10.794 -0.0629  0.0387  0.1274
19936W        W35745   9.425   9.944   1.765  0.0358 -0.4446  0.1238
19937W        W35746   0.124   3.452   0.224  0.0979 -0.0795 -0.0332
19938W        W35747   2.565  10.221  11.951 -0.1537 -0.0106  0.0736
19939W        W35748  11.695   0.469   3.799  0.1553 -0.0412  0.2006
19940W        W35749  11.702  15.190  10.939 -0.0555  0.0703  0.0818
19941W        W35750  15.233  10.216  14.585 -0.0654 -0.2871 -0.2092
19942W        W35751   1.660  15.537  13.810 -0.1631 -0.0267 -0.0796
19943W        W35752  16.456  13.216   3.161 -0.0524 -0.3418  0.0267
19944W        W35753   2.167   7.434   4.699 -0.0369 -0.1971 -0.1294
19945W        W35754   3.442   3.920   3.909 -0.1340 -0.1667  0.1120
19946W        W35755  14.292  16.489   5.207  0.0833  0.1517 -0.2118
19947W        W35756  16.635  13.959  14.292  0.2847 -0.1223  0.0842
19948W        W35757  14.945   2.009   0.633 -0.0856 -0.2406  0.0521
19949W        W35758  15.081  10.863  12.529 -0.1391  0.0705 -0.0474
19950W        W35759   9.413   1.306  14.719 -0.0916 -0.2690  0.3691
19951W        W35760  17.841   5.550  14.601  0.3145  0.0332 -0.4105
19952W        W35761  10.155   3.529  13.359 -0.1750 -0.1056  0.6047
19953W        W35762   9.643   6.916   3.913 -0.1214  0.3719 -0.0794
19954W        W35763  13.811  17.645   0.791  0.2656  0.1782 -0.0168
19955W        W35764  18.749  13.180  14.835 -0.2700 -0.2467 -0.1266
19956W        W35765  12.893  10.591  12.469  0.3674 -0.4289  0.0816
19957W        W35766   2.892   1.225  12.999 -0.0772 -0.2572  0.2132
19958W        W35767   5.192   5.328  13.489 -0.1035 -0.0515  0.2354
19959W        W35768   6.264   4.190  10.870 -0.3741  0.0822 -0.2798
19960W        W35769  10.154   8.665   3.751  0.3389  0.1739  0.0416
19961W        W35770   9.910   1.778  15.190 -0.0689  0.0248 -0.0549
19962W        W35771  10.108  15.214  14.778 -0.1905 -0.1085  0.1455
19963W        W35772   3.177   6.640  13.638  0.0557  0.0168  0.1038
19964W        W35773   6.252   0.333  13.106  0.1252 -0.1819  0.1525
19965W        W35774   2.296  12.711   1.456 -0.0093 -0.0392 -0.0347
19966W        W35775  13.964   3.915   2.315 -0.0491 -0.2295  0.1165
19967W        W35776   7.602  14.248   3.006 -0.2481  0.3513 -0.1759
19968W        W35777   8.828   6.187  13.702  0.1532 -0.0129  0.1660
19969W        W35778   7.195  11.165   4.445 -0.0731 -0.2488 -0.0602
19970W        W35779  16.747  18.813   4.861 -0.0593 -0.2046  0.1584
19971W        W35780  12.826  16.262  10.844  0.0239 -0.0786 -0.1320
19972W        W35781   5.245  10.803   0.727  0.3256  0.0879 -0.1526
19973W        W35782  18.552  13.169  13.983 -0.1962  0.1921  0.1178
19974W        W35783  11.359  18.949  11.154  0.1849  0.0330  0.0757
19975W        W35784   1.590   1.058   4.427 -0.3074  0.3912 -0.0934
19976W        W35785   6.956  11.815   1.118 -0.2119  0.1696 -0.1877
19977W        W35786   8.806  13.050  13.401 -0.1095  0.1017  0.2371
19978W        W35787  14.086  10.495   4.470 -0.0624 -0.4652  0.1109
19979W        W35788  17.968   3.881  14.669 -0.2391 -0.1722  0.0517
19980W        W35789  16.062  11.790   3.849 -0.1198  0.1211  0.2339
19981W        W35790  10.239   3.044   5.077  0.0249  0.0830  0.0994
19982W        W35791  15.228  14.613   5.084  0.5040  0.2795  0.1171
19983W        W35792  17.184  13.038  15.086  0.0135  0.3659 -0.0485
19984W        W35793  12.169  16.110   4.814  0.0165  0.1573  0.4112
19985W        W35794   3.879   3.826   5.049  0.0539  0.2254  0.1813
19986W        W35795   1.216  10.078  14.198 -0.1707  0.2219  0.4851
19987W        W35796  15.392   4.229  12.834 -0.1000  0.1528 -0.0592
19988W        W35797   3.058   7.925   4.460 -0.2994  0.1390  0.2460
19989W        W35798  13.605  18.564   4.328 -0.1720  0.1579  0.3445
19990W        W35799  10.523  13.870  11.971 -0.0579 -0.0533 -0.1787
19991W        W35800  17.562  17.040  14.381 -0.1354 -0.2688 -0.0961
19992W        W35801   3.274  18.631   4.632  0.0350  0.3913  0.0805
19993W        W35802  13.204   8.454   3.356 -0.2617 -0.3546  0.1075
19994W        W35803  12.483   8.252  14.503 -0.0345  0.0315 -0.0964
19995W        W35804  11.167   4.145   0.041  0.0759 -0.1547  0.0223
19996W        W35805  12.469   9.548   1.014  0.0904  0.1263 -0.1803
19997W        W35806   2.057  13.104   2.862 -0.0528 -0.2459 -0.1328
19998W        W35807   9.238   5.298  12.568 -0.0060  0.0716  0.0474
19999W        W35808  13.054  12.354  13.990  0.1050  0.0808 -0.0360
20000W        W35809  15.909  11.633   5.876  0.0858 -0.2422  0.3944
20001W        W35810   5.686   4.584  14.650 -0.0382 -0.1993 -0.2467
20002W        W35811  15.998   8.565   2.534  0.0322 -0.0648  0.4540
20003W        W35812   0.351  17.618   3.229  0.1136 -0.2073 -0.0051
20004W        W35813  17.123  18.184   5.388 -0.1647 -0.2822 -0.3348
20005W        W35814   4.924   3.313   3.826 -0.0271  0.2535  0.2103
20006W        W35815  16.078   4.599   0.685 -0.2652 -0.1976 -0.1744
20007W        W35816   3.461  10.738  12.308 -0.1526 -0.0042  0.0910
20008W        W35817   1.470   6.442  14.289 -0.3432  0.0614  0.0607
20009W        W35818  12.562   5.922  13.355 -0.0963  0.1528 -0.1157
20010W        W35819   6.444   8.555   3.794  0.1576 -0.2657 -0.2722
20011W        W35820   1.888  14.063  11.779  0.0573  0.0196 -0.0928
20012W        W35821  18.072   9.022   0.570  0.1174  0.1656  0.1134
20013W        W35822   0.202   2.144   1.262  0.0465  0.0612  0.0437
20014W        W35823   9.615  16.219   3.789 -0.1645  0.2224  0.2945
20015W        W35824  18.461  10.149  12.135  0.0829  0.0441  0.3908
20016W        W35825   9.431  10.270   4.639 -0.0155 -0.1133  0.1847
20017W        W35826  13.622  13.703   4.312 -0.2567 -0.0239 -0.0291
20018W        W35827   3.162   9.423  13.781  0.0020  0.2687  0.1661
20019W        W35828   8.886   0.946   1.931 -0.3084 -0.2696  0.0932
20020W        W35829  17.498  16.915   4.096 -0.2663 -0.0866  0.0710
20021W        W35830   2.798   8.556   1.446  0.0716  0.2915 -0.2293
20022W        W35831   5.033   3.705  14.074 -0.3590 -0.0014  0.0122
20023W        W35832   9.533   1.381   3.582  0.1582 -0.2099 -0.1453
20024W        W35833   6.672   2.297   0.659  0.1032  0.1922 -0.0300
20025W        W35834   9.098  11.036  13.542  0.0501  0.0673  0.0117
20026W        W35835   1.881   8.079  14.691  0.1225  0.2536  0.0548
20027W        W35836   9.730  16.237  13.934 -0.2702  0.1259  0.1116
20028W        W35837   3.716   2.928   4.656  0.3349 -0.3234 -0.0674
20029W        W35838  10.093  18.626   3.852 -0.3135 -0.1977  0.0817
20030W        W35839  17.241  14.496  12.629  0.0932  0.0170 -0.2216
20031W        W35840   5.231   1.345  10.012 -0.4123  0.4506  0.0530
20032W        W35841  11.146  13.676  12.257 -0.0040  0.1591  0.0242
20033W        W35842   5.645   0.228  12.914 -0.0212  0.1077 -0.0124
20034W        W35843  14.899   3.654   2.479 -0.0235  0.0156  0.1351
20035W        W35844   4.496   0.521  14.774  0.0650 -0.0424  0.2044
20036W        W35845   5.260  15.995   4.474  0.3303 -0.3796 -0.0085
20037W        W35846  10.007  13.979  14.833  0.0171 -0.4220  0.0657
20038W        W35847   9.569  16.210   3.126 -0.0378  0.2401 -0.3889
20039W        W35848  10.451  12.896   0.149  0.1295  0.0708 -0.0069
20040W        W35849   8.976  14.034   3.822 -0.2780  0.4448  0.0228
20041W        W35850   8.610  15.852   1.420 -0.1912  0.1027 -0.1431
20042W        W35851   5.178  18.394   2.713  0.1339  0.1852 -0.0969
20043W        W35852  13.511   0.597   1.275  0.2843  0.0216  0.0029
20044W        W35853   8.164   1.215   4.983 -0.2366 -0.2299 -0.1506
20045W        W35854  11.511   3.791  12.103 -0.0147 -0.1419 -0.0645
20046W        W35855   9.467  11.932  15.282 -0.2600 -0.0689  0.0886
20047W        W35856  15.029  15.580  14.214 -0.3068 -0.0533  0.0976
20048W        W35857   4.250  17.614   3.644  0.3206  0.3413  0.2295
20049W        W35858   0.773   5.288   4.196  0.3335  0.0696  0.0305
20050W        W35859   9.453  17.191   2.235  0.4992 -0.0412  0.1966
20051W        W35860   2.067  15.732   3.104 -0.1282  0.0644  0.0787
20052W        W35861   7.583   0.777  13.517  0.0347  0.0243 -0.1897
20053W        W35862  15.588   9.117   3.200 -0.1086 -0.0078 -0.0790
20054W        W35863  17.081  11.952   0.934  0.1617  0.0767 -0.4200
20055W        W35864  12.011   3.537  13.757 -0.3628 -0.0714  0.2224
20056W        W35865  18.469   9.785  11.327 -0.0878  0.1466 -0.0040
20057W        W35866  13.682   4.030  12.496  0.0601 -0.0149  0.1336
20058W        W35867  16.393   1.171  10.748 -0.0520 -0.0273  0.3595
20059W        W35868  10.663   2.990   0.812  0.3062 -0.0934 -0.2479
20060W        W35869   1.963   5.981   0.083 -0.1586  0.2120 -0.0849
20061W        W35870  18.232   0.831   4.346 -0.0894 -0.2177  0.0228
20062W        W35871   4.815   7.924   2.441 -0.0621  0.1528  0.0706
20063W        W35872   6.394   3.762   0.409 -0.1079  0.3533  0.0192
20064W        W35873   9.318   3.181   9.969  0.1459 -0.0305  0.3880
20065W        W35874   1.334  10.927   4.766 -0.1647  0.1788  0.0942
20066W        W35875  11.515   6.419  14.139  0.2648  0.0576  0.0452
20067W        W35876  18.734   5.356  11.115  0.1282  0.0069 -0.2633
20068W        W35877   4.401   6.861   9.547  0.2099  0.1566 -0.0036
20069W        W35878   3.403   3.297  12.978 -0.1957  0.0485  0.0368
20070W        W35879  17.006  15.417  15.059 -0.0020 -0.1817  0.3643
20071W        W35880  18.154   8.398   5.276  0.0687 -0.2983  0.1115
20072W        W35881  16.893   1.910  13.652 -0.0933 -0.3410  0.1283
20073W        W35882  13.837  12.804  10.591  0.1459  0.0141  0.0401
20074W        W35883   9.611  17.069   4.609 -0.2151  0.3494  0.1717
20075W        W35884   0.464  14.790   4.911 -0.1409  0.0870  0.3109
20076W        W35885   7.604  11.132  10.871 -0.0595 -0.1238 -0.1309
20077W        W35886   1.661   4.427   3.958 -0.1672 -0.2434 -0.1094
20078W        W35887   2.300   6.991   0.557 -0.1282 -0.1439 -0.3161
20079W        W35888   7.105   0.679   9.030  0.0059  0.1010 -0.2578
20080W        W35889  18.780  12.507   1.695 -0.1605 -0.0863  0.2111
20081W        W35890   4.109   7.069   2.348  0.1540 -0.4756  0.1096
20082W        W35891  17.325  10.919  14.784 -0.1127  0.0343 -0.0214
20083W        W35892  16.109   7.060   4.050  0.0535 -0.2386  0.1118
20084W        W35893  12.486  17.109  11.911 -0.1648  0.0549 -0.0229
20085W        W35894   4.502   3.628   3.835  0.0279  0.1843 -0.0797
20086W        W35895   7.269   7.887   0.200 -0.0509 -0.0277 -0.0253
20087W        W35896  13.694   9.804   1.906  0.0391  0.0630 -0.1124
20088W        W35897  13.575  13.699   1.148  0.1322 -0.2736  0.0490
20089W        W35898  13.804   2.130   1.457  0.0307  0.0307  0.1646
20090W        W35899   7.497  11.061   0.355 -0.0327  0.0686 -0.1829
20091W        W35900   1.751   1.157   1.652 -0.0150  0.0727  0.2645
20092W        W35901   9.030   4.408  11.524  0.1214 -0.4363 -0.0331
20093W        W35902   8.114  14.462   3.730  0.1689 -0.0505  0.0709
20094W        W35903  11.344  15.462   3.485  0.2673  0.1748  0.0638
20095W        W35904   5.854   9.821   2.529  0.1720  0.0064  0.3105
20096W        W35905   9.675  13.815   1.664  0.4288  0.0549  0.0565
20097W        W35906  17.504   1.823  10.935  0.1705 -0.1962  0.0213
20098W        W35907  17.934  13.067   2.821  0.0184  0.0837  0.0455
20099W        W35908  11.703  16.618  13.816  0.2276 -0.2374 -0.3630
20100W        W35909  12.860  17.930  12.730 -0.1169 -0.0961 -0.2567
20101W        W35910  10.987   2.156   0.093 -0.0338 -0.0770 -0.1622
20102W        W35911  18.457  11.032  12.469 -0.0086  0.3386  0.0310
20103W        W35912   4.589   2.498  10.448 -0.0726 -0.0948  0.4198
20104W        W35913  13.655   4.439  10.093  0.1490 -0.4889  0.4578
20105W        W35914   3.613   2.529   2.386 -0.1360 -0.1454  0.0856
20106W        W35915  16.370   5.313   5.475  0.0754 -0.1063  0.1274
20107W        W35916  10.811   5.205  14.721 -0.3099  0.1013 -0.1695
20108W        W35917   0.535   6.336  12.620 -0.3429 -0.0194 -0.0813
20109W        W35918   0.749  18.473   1.709 -0.2000  0.2250 -0.1478
20110W        W35919  14.039   3.151   0.207  0.2695 -0.1464  0.0098
20111W        W35920   6.960   0.289   4.094  0.0166 -0.1111 -0.0856
20112W        W35921  15.709   6.397  10.990 -0.1057  0.0524  0.5308
20113W        W35922  14.338   2.952  13.313  0.1527 -0.2531  0.0584
20114W        W35923  15.942  17.045  10.590  0.1969 -0.2614 -0.1922
20115W        W35924  10.193   8.738  13.299  0.0542 -0.0852 -0.1991
20116W        W35925   1.321   6.548   2.718 -0.0513  0.0115  0.0960
20117W        W35926   0.098   0.907   3.083 -0.0083 -0.0927 -0.0960
20118W        W35927   6.462  13.324   2.463 -0.0673 -0.3206  0.0237
20119W        W35928   0.305  11.700   2.893  0.0637  0.4206  0.3997
20120W        W35929   1.253   1.776  12.696  0.2371 -0.0942  0.1703
20121W        W35930   2.777  17.685  10.988 -0.0225 -0.3739 -0.0327
20122W        W35931   6.913   1.639   0.144 -0.1984 -0.3871  0.0805
20123W        W35932   5.340   6.737   0.732 -0.2531  0.0231  0.0275
20124W        W35933  18.162   8.130  13.400  0.1318 -0.2314  0.0202
20125W        W35934  13.623   5.834   0.433  0.0075 -0.0263 -0.1325
20126W        W35935   1.880   6.806  11.408 -0.1052 -0.0499  0.0811
20127W        W35936   2.242  13.200   3.354  0.1403  0.1026  0.0707
20128W        W35937  14.779  18.237   6.523  0.0525  0.1598  0.3145
20129W        W35938  13.586   6.408  11.669 -0.1659 -0.0566 -0.0302
20130W        W35939  15.008   3.373   5.594 -0.0767  0.0036  0.2837
20131W        W35940   6.958  11.038   0.431  0.0533 -0.1704 -0.1973
20132W        W35941   0.135   6.106   2.067 -0.6645  0.0122  0.2750
20133W        W35942  18.457   4.639  15.181  0.0279  0.3055 -0.1142
20134W        W35943   3.620   2.710   1.893  0.1005 -0.1251 -0.0055
20135W        W35944  11.071   6.576   0.694  0.2486  0.0856 -0.0077
20136W        W35945  14.526  11.413  14.716  0.1354  0.1618  0.2354
20137W        W35946   7.371   3.341   4.498  0.1280  0.1699  0.5234
20138W        W35947  17.137   3.937  11.433 -0.3333 -0.1780  0.3002
20139W        W35948  17.667  17.431  11.224  0.1755  0.1047 -0.0763
20140W        W35949  16.743  15.924  11.933 -0.0395  0.3298  0.0747
20141W        W35950   7.119  16.039  10.070  0.0628 -0.0447  0.2148
20142W        W35951  18.344   1.097   4.790  0.0260  0.1907 -0.0046
20143W        W35952   8.906   8.903  10.775  0.0224  0.1226 -0.3005
20144W        W35953  14.982   4.872  10.405 -0.2329  0.1206  0.0230
20145W        W35954  11.598  17.895  14.762  0.2524 -0.1389 -0.0761
20146W        W35955  10.586   3.766   1.697  0.0778 -0.1124  0.3049
20147W        W35956  18.075  15.993  14.119 -0.5891 -0.0410  0.3048
20148W        W35957  14.762  16.142  14.065 -0.2897  0.0180  0.0025
20149W        W35958   8.494  11.411   0.201  0.1540 -0.4041 -0.0966
20150W        W35959  11.284  17.550  12.349  0.0429  0.1953  0.1535
20151W        W35960   0.735   0.009  10.276  0.1047 -0.3136  0.3077
20152W        W35961   5.860  17.890   9.694 -0.0132  0.3702  0.0515
20153W        W35962   4.290   1.241   1.103 -0.0673  0.1338 -0.1945
20154W        W35963   1.156  12.245  15.143  0.0788  0.1595 -0.2912
20155W        W35964  17.760   0.514  13.976 -0.0558 -0.0822 -0.2228
20156W        W35965  13.618  10.877   2.734 -0.1590  0.0579 -0.1427
20157W        W35966  18.616   8.178   4.990  0.2187 -0.2936 -0.0505
20158W        W35967  11.362   4.696  13.568 -0.2398  0.1534  0.0024
20159W        W35968   1.374   1.767  12.175 -0.1476 -0.0551  0.0716
20160W        W35969   5.666   1.665  10.605  0.4445 -0.1681  0.2136
20161W        W35970  10.703   8.646  14.547  0.3385  0.2384  0.1930
20162W        W35971   2.660  10.958  14.004  0.0481 -0.1089  0.1164
20163W        W35972  12.134  12.320  12.833  0.2549  0.0893 -0.0996
20164W        W35973  10.822  15.945   5.424 -0.1930  0.1700  0.3234
20165W        W35974  16.118   1.260   0.534  0.2247 -0.1288  0.0527
20166W        W35975   6.804  14.083   2.758  0.1889 -0.0616  0.0501
20167W        W35976  13.607   5.853  11.361  0.0192 -0.2447  0.0849
20168W        W35977   3.859   4.807  14.378 -0.0063  0.0071 -0.1586
20169W        W35978  16.482  17.497   3.090  0.0329 -0.2701 -0.0535
20170W        W35979   0.744   1.378  11.361 -0.0410  0.1719 -0.1575
20171W        W35980   5.004  12.643   3.578  0.0307  0.0474 -0.0817
20172W        W35981  16.327  15.026   4.697 -0.0445 -0.0977 -0.0188
20173W        W35982  11.135   3.942   1.730 -0.2289  0.3912 -0.2743
20174W        W35983  15.146   3.804  14.213  0.0075 -0.1274 -0.0387
20175W        W35984   9.532   8.146   0.283 -0.1813 -0.0437 -0.1827
20176W        W35985   2.808   2.939   0.793 -0.1597  0.3144 -0.2770
20177W        W35986  18.933   8.032  12.863  0.0111  0.2734 -0.0152
20178W        W35987   2.110  17.045   3.952 -0.0075 -0.0206  0.3192
20179W        W35988   6.824   1.488  12.664 -0.2972  0.1487 -0.2361
20180W        W35989   5.512  18.825  11.028 -0.3918  0.3239 -0.0683
20181W        W35990   3.149   3.492  11.179  0.0120  0.0609  0.1473
20182W        W35991   7.847   6.041   4.206  0.0339  0.0623  0.0265
20183W        W35992  16.042  17.815  12.227  0.0231 -0.2292  0.1872
20184W        W35993  13.401   8.030   3.524 -0.1144 -0.2559  0.2463
20185W        W35994  11.669  17.498   2.373  0.0879 -0.1221 -0.0990
20186W        W35995  16.730   6.688   1.567 -0.0153 -0.1335  0.0558
20187W        W35996  10.408   2.133  13.508  0.4401  0.0591  0.5331
20188W        W35997  12.313   0.076   4.011 -0.0473 -0.0110 -0.4169
20189W        W35998  13.851  16.857  12.385  0.3788 -0.1424 -0.1108
20190W        W35999   0.319  13.645  11.630  0.0704  0.0744  0.2247
20191W        W36000   1.142  10.121  12.942  0.1223  0.1576 -0.1054
20192W        W36001  15.134   4.852   2.329 -0.0210 -0.0829 -0.2204
20193W        W36002  18.645  13.006  10.692 -0.4038  0.0176 -0.0323
20194W        W36003   7.709   0.424   0.606 -0.0484  0.0460  0.2170
20195W        W36004   2.515  18.710  11.200  0.1397  0.0866 -0.3137
20196W        W36005  17.410  12.033   2.410 -0.1612  0.3758 -0.0211
20197W        W36006   9.859  11.564  11.374  0.0596 -0.0453 -0.0075
20198W        W36007  18.185  15.959  11.980 -0.0477  0.1584 -0.0086
20199W        W36008  14.106   7.863   4.611  0.2505  0.0952 -0.0587
20200W        W36009  14.481   1.974   9.781 -0.1861 -0.2430  0.1438
20201W        W36010   6.110  16.745   0.128 -0.4128  0.0687 -0.1723
20202W        W36011   1.376  17.867  14.364 -0.2773  0.1072  0.1979
20203W        W36012   1.301  11.719   3.055 -0.0864  0.3598  0.1328
20204W        W36013   5.024   6.230  13.970  0.3245  0.1330  0.0589
20205W        W36014   7.877  15.028  14.713  0.2333  0.0407  0.0204
20206W        W36015  16.224  11.385  12.388  0.0082 -0.1099 -0.4725
20207W        W36016   7.035   8.707  10.155  0.2492  0.3757 -0.2479
20208W        W36017  15.312  15.754   3.007 -0.0269 -0.3012 -0.0890
20209W        W36018  18.677  14.095   2.901 -0.0093 -0.1982 -0.0627
20210W        W36019  10.375  12.297  13.906  0.0641 -0.0154 -0.1896
20211W        W36020  15.461   7.255  11.374  0.0635 -0.0603 -0.0263
20212W        W36021  16.707   3.699   2.473 -0.2055  0.2367  0.2122
20213W        W36022  13.082   4.051   2.857  0.3077 -0.1134  0.0206
20214W        W36023  12.536   2.397  13.974  0.2442 -0.3192  0.1495
20215W        W36024  11.026  17.666   5.828  0.0317  0.2283 -0.1206
20216W        W36025   7.333   8.256  15.186 -0.0381  0.0426 -0.2455
20217W        W36026   4.235   9.911  12.514 -0.0754 -0.0373  0.1315
20218W        W36027   7.568  12.753   4.443  0.0162 -0.1117  0.2700
20219W        W36028  13.076  18.307   5.119 -0.2302 -0.0533 -0.0887
20220W        W36029  12.704  11.995  12.235 -0.0411  0.1219 -0.2239
20221W        W36030  10.242   1.668  10.275 -0.1259 -0.1487  0.0377
20222W        W36031  12.682   4.591  10.764 -0.0866  0.0201 -0.1134
20223W        W36032  13.919   6.070   0.781 -0.0888  0.0400  0.0027
20224W        W36033   3.305  16.266  13.278 -0.4512  0.0700  0.0795
20225W        W36034  15.800   7.486  10.540 -0.2197 -0.2695 -0.1270
20226W        W36035   0.363   6.928  12.467 -0.1505 -0.1353  0.3121
20227W        W36036  15.463   2.757  10.608 -0.0063 -0.3813  0.1648
20228W        W36037  11.888   8.471  10.999  0.0342 -0.2139  0.0359
20229W        W36038  13.152  17.487   1.326  0.3614  0.4543 -0.1149
20230W        W36039   8.520   2.400   2.904  0.0177 -0.0267  0.0903
20231W        W36040   3.428   0.051  11.881  0.4374  0.0124  0.0158
20232W        W36041  18.313  10.829  11.170  0.2194 -0.0274  0.2635
20233W        W36042   1.407   9.830  15.082  0.0244  0.2175 -0.0507
20234W        W36043   8.757   8.207   0.615 -0.0642  0.2695  0.1439
20235W        W36044  16.080  11.000   1.613  0.1774  0.1444 -0.0935
20236W        W36045  15.093   2.884   2.069  0.5162  0.1857 -0.0722
20237W        W36046   8.051   6.382   0.112  0.1208  0.5260  0.1700
20238W        W36047  17.984   4.764   2.694 -0.0373  0.2084  0.2125
20239W        W36048   8.604  16.677   3.354 -0.0770  0.0230 -0.3080
20240W        W36049   6.366   2.148  11.618  0.2498  0.1735 -0.2030
20241W        W36050   7.260   3.829   1.729 -0.2710 -0.3072  0.1349
20242W        W36051   2.606   1.508   3.764 -0.0467  0.2975 -0.0760
20243W        W36052  10.038   6.383  13.173 -0.0009  0.0637  0.3920
20244W        W36053   8.747  14.905   1.216  0.0568  0.0735  0.1205
20245W        W36054   0.121   4.592   0.301  0.1829  0.0142  0.2974
20246W        W36055  15.545  12.397   1.011  0.1618 -0.1656 -0.1703
20247W        W36056   7.089  12.579   1.493 -0.1559  0.1726  0.0901
20248W        W36057   8.672   0.717  15.057 -0.2251 -0.4072  0.2769
20249W        W36058  16.619  10.187  15.182  0.1158  0.2388  0.1567
20250W        W36059  10.926   0.767  13.467  0.2629  0.3207 -0.3075
20251W        W36060   4.087  17.615  13.161  0.1657  0.1711 -0.1346
20252W        W36061   0.616   7.217  10.874  0.1059  0.1398 -0.1892
20253W        W36062   3.764   6.623   0.261 -0.1598  0.1409  0.0398
20254W        W36063  15.974  10.509   3.219  0.2752  0.1093  0.1528
20255W        W36064  10.453   0.341   2.740 -0.0529  0.0177  0.1562
20256W        W36065   4.201   9.125   5.633  0.0467  0.0784  0.0709
20257W        W36066   0.325  13.126   3.638  0.2165 -0.3022 -0.0617
20258W        W36067  15.329  13.138  14.487 -0.0768 -0.1305  0.1342
20259W        W36068   5.149   5.786  13.675  0.0619 -0.3071 -0.0755
20260W        W36069  11.421   1.332   1.760  0.1682 -0.3348 -0.0256
20261W        W36070  11.362   9.683  13.592  0.0477  0.3582 -0.1266
20262W        W36071  18.101  11.058  15.177  0.0836  0.1468 -0.1284
20263W        W36072   1.071  11.530  13.644  0.0372 -0.0129 -0.0607
20264W        W36073   8.151   2.352   3.225 -0.1323  0.0487 -0.1712
20265W        W36074   0.932  13.730   0.849 -0.0724 -0.0781  0.2252
20266W        W36075   4.894  17.253  10.955 -0.0054 -0.2254  0.0485
20267W        W36076   4.434   3.383  14.976 -0.3666 -0.2120 -0.1792
20268W        W36077  18.875  10.700   3.523 -0.1069 -0.2411 -0.2781
20269W        W36078   3.846   4.081  13.825  0.0924  0.1556 -0.1263
20270W        W36079   3.442  18.291  15.142  0.1218 -0.0554 -0.1356
20271W        W36080   0.107   1.003   4.173  0.2381 -0.1366  0.1445
20272W        W36081  15.287  18.084   0.347 -0.0884 -0.0651  0.0423
20273W        W36082  12.484   3.195  14.841  0.1002 -0.0897  0.3978
20274W        W36083  12.591  16.018   3.205 -0.0471 -0.0802 -0.1662
20275W        W36084   3.297   4.997   4.903  0.3305  0.1855  0.1357
20276W        W36085  11.050  11.886  14.702 -0.0366  0.1784  0.0122
20277W        W36086   2.560   5.373   1.772 -0.0446  0.3505 -0.2620
20278W        W36087   7.533   1.355  11.679 -0.0482 -0.0145 -0.3190
20279W        W36088  16.614   3.733   4.100 -0.1797 -0.3306  0.0735
20280W        W36089   5.361  15.926   0.157 -0.1277  0.0779  0.0215
20281W        W36090  15.833  13.224   4.129  0.3378  0.1064  0.2048
20282W        W36091  16.419  12.937  12.791  0.0461 -0.1263  0.2674
20283W        W36092   7.642   7.362   1.691  0.0679  0.0395 -0.1679
20284W        W36093  14.180  11.224  10.229 -0.3857 -0.0977  0.1441
20285W        W36094   6.959  18.955   1.735  0.1781 -0.1315 -0.3972
20286W        W36095   9.641  16.257   0.588  0.0521 -0.1342 -0.0134
20287W        W36096   8.897   6.263   3.356  0.1185  0.2884 -0.1709
20288W        W36097  18.372   6.511  14.614  0.0503 -0.0900 -0.2621
20289W        W36098  16.904  12.326  13.538  0.0440 -0.1372  0.1763
20290W        W36099  13.595  17.719   3.622 -0.1507 -0.1209 -0.0294
20291W        W36100   2.170  15.640  15.218 -0.1836  0.2294 -0.2054
20292W        W36101  10.719   3.551  13.251 -0.0546 -0.0342 -0.0746
20293W        W36102  17.600   7.949   0.909  0.2041 -0.3622  0.0654
20294W        W36103   6.246   5.154   2.105  0.1614 -0.3859 -0.0856
20295W        W36104   3.591  17.514  11.183 -0.0934  0.1577  0.2551
20296W        W36105  11.967  10.333   5.909 -0.0305 -0.1151 -0.6720
20297W        W36106  12.152   2.202  13.508 -0.0380 -0.0559 -0.2392
20298W        W36107  11.879   2.661  11.858  0.1335 -0.0426  0.1259
20299W        W36108  10.187  14.618  12.340 -0.0750 -0.1510 -0.1319
20300W        W36109   7.511  11.312  13.382 -0.1401 -0.3917  0.1445
20301W        W36110   5.101  13.288   2.275 -0.2802  0.0402 -0.0112
20302W        W36111  14.298  14.306   0.030 -0.1991 -0.1243  0.0415
20303W        W36112   1.979   5.836  12.077 -0.1736  0.2474 -0.1337
20304W        W36113   1.281  10.918  13.317 -0.3229 -0.0802 -0.0247
20305W        W36114  12.631   2.842  14.210  0.0318  0.2425  0.2179
20306W        W36115   5.693  13.719   4.518  0.2031  0.0096 -0.0639
20307W        W36116  13.575   6.708   3.937  0.2282  0.1532  0.0874
20308W        W36117   7.246  14.329   1.852 -0.0276 -0.0446  0.5048
20309W        W36118   2.232  15.140   1.713 -0.0371 -0.3221 -0.0629
20310W        W36119  14.102  14.608   3.489 -0.2936 -0.1851  0.2854
20311W        W36120  17.008   2.694   4.084  0.0301 -0.1015  0.0056
20312W        W36121   3.362  10.479  10.844 -0.0328  0.0872 -0.1563
20313W        W36122   2.490   9.894   3.064  0.2551  0.1784  0.1300
20314W        W36123  17.723  17.234   1.465  0.0596 -0.1237  0.1359
20315W        W36124  17.256  15.359  11.214 -0.1827  0.1097  0.2547
20316W        W36125   5.436  10.286  12.364  0.0574  0.0675  0.2287
20317W        W36126   9.118  12.736   4.612  0.4056  0.3836  0.3280
20318W        W36127   8.387   9.278   4.973  0.0421  0.1923  0.2488
20319W        W36128   2.147  15.243  13.999 -0.1515  0.0588  0.0248
20320W        W36129   5.076   6.255  12.825 -0.3094 -0.1544  0.0213
20321W        W36130  16.027   1.460   2.113  0.3732 -0.1558 -0.2154
20322W        W36131  13.759   4.230   1.533 -0.0397 -0.0716 -0.0432
20323W        W36132   1.422  11.703   2.261  0.0572 -0.0648  0.0728
20324W        W36133  15.737   5.279   0.289 -0.0367  0.2489  0.3358
20325W        W36134  16.441   6.152  11.657  0.0154  0.0902  0.0930
20326W        W36135  13.011  16.981  10.855  0.3594 -0.0005 -0.2997
20327W        W36136   5.551  14.920  15.067 -0.0697 -0.1161 -0.1812
20328W        W36137  12.657   1.818   0.604  0.3393 -0.1531 -0.2187
20329W        W36138  18.364   0.206  11.755 -0.0457  0.4596  0.1798
20330W        W36139   5.599   4.406  11.447  0.0406  0.2605  0.0432
20331W        W36140   2.926  18.236   1.345  0.2650 -0.3480 -0.1613
20332W        W36141   0.111   0.017   4.225  0.0912  0.1260  0.0389
20333W        W36142   2.186  12.515   2.456  0.0054 -0.1512  0.3029
20334W        W36143  12.873   3.611   5.555  0.3276 -0.2476 -0.2418
20335W        W36144   7.044   3.423  13.384  0.1377  0.3633  0.2859
20336W        W36145  11.842   8.684  13.212  0.0707 -0.0129  0.0325
20337W        W36146  13.195  12.676   0.512 -0.0033  0.2878  0.3346
20338W        W36147   2.849   8.773  11.317  0.0957 -0.2789  0.0888
20339W        W36148  12.659  17.024   4.858 -0.3006 -0.0206 -0.2791
20340W        W36149  17.714   2.835   4.009  0.2202  0.6626 -0.2826
20341W        W36150   9.850   6.242   2.811  0.0026 -0.1096  0.1214
20342W        W36151   0.139   6.861   2.797  0.1756 -0.0275 -0.1647
20343W        W36152  13.175   2.888   3.598  0.3014 -0.2328  0.1090
20344W        W36153   7.121   4.009  11.674 -0.0423  0.0343 -0.2140
20345W        W36154   9.204   1.264   4.818  0.1957 -0.1268  0.1463
20346W        W36155  10.905   5.427  12.057 -0.0608 -0.1992  0.1822
20347W        W36156  15.714   9.672   4.366  0.3790  0.0316  0.1019
20348W        W36157   7.137   5.865  12.810  0.1803 -0.3608  0.1618
20349W        W36158  19.014  17.415  14.559 -0.1253  0.2139 -0.0245
20350W        W36159  13.001   5.708  13.837 -0.1259  0.0573 -0.2572
20351W        W36160  10.263   4.685   3.954 -0.0285  0.4841  0.2235
20352W        W36161  14.765   4.568   5.045  0.2397 -0.0346 -0.0561
20353W        W36162  15.316   3.156  13.735 -0.1399 -0.0486 -0.2401
20354W        W36163   6.890  11.382   1.486 -0.1485 -0.2281  0.1989
20355W        W36164  18.487  11.393  10.703 -0.0422  0.1369  0.1882
20356W        W36165   4.599   4.991  10.500 -0.0880 -0.1708  0.2181
20357W        W36166   5.636   1.621   0.103 -0.0922  0.1286 -0.2562
20358W        W36167   8.035  16.339  11.881  0.0800  0.2771  0.0370
20359W        W36168  18.163   8.360  14.279 -0.4227  0.1369 -0.2861
20360W        W36169   4.672   6.822  10.390 -0.0849 -0.4104  0.0160
20361W        W36170   8.343   8.989  13.190  0.0474  0.3202 -0.1080
20362W        W36171   7.180   8.769  13.236 -0.0158  0.1329 -0.2064
20363W        W36172  14.227  19.012   9.857 -0.1807 -0.0715 -0.2529
20364W        W36173   1.952  18.862  11.694 -0.4018 -0.1157 -0.1074
20365W        W36174  12.484   4.660   0.185 -0.0651  0.1409  0.3194
20366W        W36175   1.328   3.718  11.672 -0.2475 -0.1947 -0.1973
20367W        W36176   4.346  11.093   2.160 -0.0529  0.0742 -0.2182
20368W        W36177   2.749   6.070   2.770  0.4177  0.3204 -0.1417
20369W        W36178   2.394   6.644  11.403 -0.1509 -0.2864 -0.2414
20370W        W36179  15.050  13.096  11.678  0.1664 -0.0717 -0.1412
20371W        W36180   6.107   0.443   4.602  0.2650  0.3093  0.1086
20372W        W36181   6.815   7.795  13.660  0.0834 -0.0768 -0.0151
20373W        W36182   3.964  11.174  12.592 -0.0058 -0.2456 -0.0003
20374W        W36183   6.506  14.603  11.179  0.4088 -0.1350  0.1141
20375W        W36184  14.375   2.052  14.722  0.1782 -0.5248 -0.2598
20376W        W36185   2.312  11.923   0.086  0.1790 -0.1546  0.3207
20377W        W36186  10.792   6.130   3.515 -0.0142 -0.1769 -0.1503
20378W        W36187  11.879   8.033  10.750 -0.1178 -0.0623  0.0116
20379W        W36188  14.653  15.512  12.341 -0.0128 -0.0170 -0.0375
20380W        W36189   2.973   8.654   0.939  0.1273  0.0285 -0.0331
20381W        W36190  13.551   9.755  12.129  0.0105 -0.0623 -0.1513
20382W        W36191  17.396   8.831   0.411  0.2073  0.1409  0.0305
20383W        W36192  13.765  18.223   9.773 -0.0822  0.3421 -0.0880
20384W        W36193   8.881   6.672  14.987 -0.0059  0.1546  0.2386
20385W        W36194   2.426  10.550  11.422  0.1513 -0.1634  0.0818
20386W        W36195  14.192   1.609  14.227  0.0993  0.1177  0.0398
20387W        W36196  16.040   0.110  12.019  0.2124  0.1496 -0.2132
20388W        W36197   8.275   1.431  11.118  0.1593 -0.1153 -0.0124
20389W        W36198   7.968   8.640   0.432 -0.2551 -0.0100 -0.1181
20390W        W36199   3.939  11.752   9.794  0.3590 -0.0968  0.1841
20391W        W36200  14.290  13.225  12.915 -0.1178  0.1842 -0.2249
20392W        W36201  15.002  12.413   0.972  0.0158 -0.0600 -0.2778
20393W        W36202  18.453   4.157   0.420 -0.1365  0.1326  0.0954
20394W        W36203  14.178  12.575  10.346  0.2380  0.2736  0.1341
20395W        W36204  17.816  18.838   4.970 -0.0857 -0.1005 -0.2998
20396W        W36205   3.130  15.375  10.904 -0.1914 -0.1240 -0.0111
20397W        W36206   7.971  12.293  11.664 -0.3860  0.2835 -0.0912
20398W        W36207  12.956   1.595   2.721  0.2488  0.1016 -0.4355
20399W        W36208   4.793  18.914   0.555 -0.1077 -0.0001 -0.0429
20400W        W36209   4.619   4.745  15.068  0.0146 -0.2403  0.1855
20401W        W36210  15.860   1.594  13.084 -0.0522  0.0006  0.1956
20402W        W36211   1.979  15.897  12.174  0.4751 -0.0346  0.2346
20403W        W36212  12.212   9.216  12.427  0.1190 -0.3636 -0.0208
20404W        W36213   9.325  12.844   2.735  0.1382 -0.1550 -0.0197
20405W        W36214   1.286  11.782   1.772  0.1173  0.3431  0.0389
20406W        W36215   7.924   6.516   4.147  0.0722 -0.0513  0.0836
20407W        W36216   4.401  14.695  11.604  0.0595  0.0839 -0.1290
20408W        W36217  13.118   7.563   2.199 -0.2150 -0.1185  0.3122
20409W        W36218   4.676  14.546   4.502  0.2315 -0.1758  0.0382
20410W        W36219   1.522  16.602   0.706 -0.0441 -0.1010 -0.0881
20411W        W36220  16.259   0.052   4.854 -0.0282  0.0665  0.1212
20412W        W36221   7.363  10.147   0.138 -0.0673  0.1819 -0.0521
20413W        W36222  14.723   9.780  13.436 -0.0052 -0.0346 -0.0236
20414W        W36223   3.403  18.078   4.421  0.1331  0.0618  0.1767
20415W        W36224  17.168  11.433  12.634  0.2892  0.0093 -0.0275
20416W        W36225   6.199   5.624   2.039  0.0623 -0.2089 -0.0070
20417W        W36226   6.224  18.466   0.247 -0.0930 -0.1991  0.1233
20418W        W36227   0.524   1.077   2.873 -0.1857  0.3579 -0.2522
20419W        W36228   2.985   9.352  10.784  0.0440  0.0957 -0.0422
20420W        W36229   0.315  12.032  14.448  0.0432 -0.0532 -0.3367
20421W        W36230  16.219   6.898  12.408 -0.2627  0.0839 -0.0634
20422W        W36231  17.172   0.779  10.265  0.0720 -0.0691 -0.0948
20423W        W36232   3.464  16.948  15.083  0.1063  0.1981 -0.1175
20424W        W36233  11.586   4.472   4.773 -0.0710 -0.1408  0.0391
20425W        W36234  15.379  17.887   2.201  0.2468  0.1562  0.1604
20426W        W36235   7.645   1.230   0.616 -0.0248  0.0288 -0.0122
20427W        W36236  12.761   4.210   2.521  0.0355 -0.0714  0.1829
20428W        W36237   2.937  10.516   5.112 -0.2084 -0.0137 -0.0816
20429W        W36238   1.725  12.476  14.393 -0.1216 -0.0631 -0.1650
20430W        W36239  16.010  16.635  10.282  0.0284  0.1438  0.1103
20431W        W36240  12.195   5.431  14.979  0.1325 -0.0368 -0.2505
20432W        W36241   7.791   0.035  11.930  0.0159  0.1034 -0.3328
20433W        W36242   2.461   7.931   4.903 -0.1944  0.3281  0.0554
20434W        W36243   4.593  14.512   1.030  0.0270 -0.0247  0.0134
20435W        W36244  16.525  18.472  13.151 -0.2264  0.0428  0.0911
20436W        W36245   3.103  11.265  10.363 -0.4038 -0.0830  0.0150
20437W        W36246   5.431   3.679  12.708 -0.1860  0.1291  0.1838
20438W        W36247   1.121   0.862  12.640 -0.0273 -0.1560 -0.5087
20439W        W36248  10.540  13.702  13.244 -0.0242 -0.0308 -0.0369
20440W        W36249  12.133   5.735   2.880  0.0415 -0.0462 -0.2357
20441W        W36250   3.651   4.099  12.821 -0.1406 -0.0649 -0.0206
20442W        W36251   0.932   4.462  10.537 -0.0779  0.0554  0.1112
20443W        W36252   6.603   4.797   1.577  0.1715 -0.1599  0.2896
20444W        W36253  10.313   9.929   4.262  0.2086  0.0324 -0.1856
20445W        W36254   1.226   2.771   0.149  0.1251 -0.0313  0.0044
20446W        W36255   2.184   5.021   4.416  0.1551 -0.1268  0.2323
20447W        W36256  18.030  18.414   4.180 -0.0354 -0.1363  0.0156
20448W        W36257   0.624  12.797   0.878 -0.1772  0.0177  0.1060
20449W        W36258  13.936   4.582   3.024  0.0969 -0.2410 -0.0965
20450W        W36259   8.725   3.632   2.719  0.0324  0.0726  0.0965
20451W        W36260  15.577   2.721   2.256  0.2389 -0.1003  0.0624
20452W        W36261   0.410  15.536   0.587 -0.0219  0.1699 -0.0947
20453W        W36262  18.658   4.470  14.713 -0.1636  0.0600 -0.1615
20454W        W36263  17.247  11.319  12.128 -0.0568  0.0359 -0.1210
20455W        W36264   4.934  12.055  12.892  0.1661 -0.1789  0.0599
20456W        W36265  16.996  10.288  12.165  0.0434  0.1905 -0.1770
20457W        W36266  17.251  11.063   0.440 -0.0894 -0.1600  0.1268
20458W        W36267  10.823  13.344  12.561  0.0859  0.0756  0.0485
20459W        W36268  10.413   4.883   2.892  0.1389 -0.1063  0.1177
20460W        W36269   2.529  14.251  11.041 -0.1666 -0.4168  0.1576
20461W        W36270  12.600  12.030  14.655 -0.1250 -0.0892 -0.4095
20462W        W36271   0.925  13.612   6.073 -0.0736  0.0873 -0.1172
20463W        W36272  16.123  18.043   1.927 -0.1757 -0.1142 -0.1965
20464W        W36273   5.351   2.040   4.630 -0.2109 -0.0893  0.1460
20465W        W36274  10.059   0.004  11.302 -0.0168 -0.1839 -0.1209
20466W        W36275   8.757  13.994   1.524  0.0757  0.1157 -0.1044
20467W        W36276  13.182  12.334   3.582  0.2496 -0.0226 -0.3306
20468W        W36277   2.862  18.804  12.535  0.3176 -0.0241  0.0492
20469W        W36278  14.169  16.067  14.141 -0.1570  0.0472 -0.1300
20470W        W36279  17.184   8.075   2.840 -0.1093  0.1391 -0.2727
20471W        W36280  17.106  18.859  14.389 -0.1361 -0.0816  0.0733
20472W        W36281  16.582   5.135  14.809  0.0956  0.1304  0.0532
20473W        W36282   5.034  13.017   3.195 -0.1261  0.0839 -0.1180
20474W        W36283   6.610   2.345   2.415 -0.0735 -0.1469 -0.2289
20475W        W36284   2.864   3.185  12.036  0.2553 -0.1922 -0.2371
20476W        W36285   6.952   5.121   2.468  0.0953 -0.3130 -0.0321
20477W        W36286   5.921   4.159   2.517 -0.0189  0.2580  0.3105
20478W        W36287  18.454   1.153  13.513  0.0395 -0.1309  0.1736
20479W        W36288   6.713  12.365   3.828  0.2048 -0.2270  0.0074
20480W        W36289   7.975   4.394   0.838 -0.0629 -0.2100  0.2154
20481W        W36290   7.657   8.330   1.883  0.2481  0.1569  0.1280
20482W        W36291   9.577   5.765  12.556  0.0276 -0.1833  0.2314
20483W        W36292   6.393   0.922   4.617 -0.1460  0.0250 -0.3008
20484W        W36293   7.571  14.495  13.028 -0.0051  0.0060 -0.3082
20485W        W36294  17.015   0.372   0.476  0.1773  0.0949 -0.1007
20486W        W36295   7.518   7.921  13.125 -0.1036  0.2620  0.0192
20487W        W36296   4.544   2.954  10.771 -0.1245  0.1106 -0.0710
20488W        W36297   5.764  15.190  13.754 -0.3989 -0.0844  0.2443
20489W        W36298  18.658  14.170   1.651 -0.1121 -0.2905 -0.0305
20490W        W36299  14.544  15.596  13.211  0.0417 -0.0643  0.1203
20491W        W36300   2.809  11.468   4.205 -0.0203  0.0948 -0.2505
20492W        W36301  14.352  13.061   5.503  0.4312 -0.0700 -0.0698
20493W        W36302   2.297  14.107   2.683  0.1980 -0.0558  0.2433
20494W        W36303  12.606  11.721   1.494  0.4646  0.0009 -0.0120
20495W        W36304  10.088  13.014   3.682  0.0356 -0.0175  0.2631
20496W        W36305   8.483   1.646   5.151  0.1271  0.0088 -0.0391
20497W        W36306   2.959  17.010  13.759  0.0221  0.1389 -0.3390
20498W        W36307   8.357  13.416   0.748  0.1320  0.3752 -0.4079
20499W        W36308  15.586  17.569   4.339  0.0700  0.0865 -0.1848
20500W        W36309   1.116  17.599  13.556 -0.3784  0.2765  0.0693
20501W        W36310  17.501  13.054  13.895 -0.1031  0.1848  0.2708
20502W        W36311   9.910   0.250   0.977  0.3147  0.4566 -0.2430
20503W        W36312  11.717   7.795   5.030  0.0095  0.2508 -0.2759
20504W        W36313   8.124   1.605  11.674  0.0838 -0.2408 -0.3049
20505W        W36314   5.355  12.067  13.155 -0.0202 -0.4778 -0.0640
20506W        W36315  15.630  10.676   4.217 -0.0066 -0.2067 -0.1934
20507W        W36316   9.905   5.665   2.929 -0.1856  0.2130  0.0298
20508W        W36317  14.780   5.149   4.202  0.1901  0.1199  0.0271
20509W        W36318  15.564   8.549  12.454  0.2809  0.1360 -0.3780
20510W        W36319  15.486  14.731   0.549  0.0464  0.0569  0.3570
20511W        W36320  15.853   5.607  15.193 -0.2372 -0.3224 -0.1323
20512W        W36321  12.434  14.753  14.606 -0.4791  0.0754  0.0822
20513W        W36322   3.057   0.722   2.302 -0.1224  0.4221  0.2002
20514W        W36323  13.541   1.849   0.455  0.0978 -0.0676  0.0587
20515W        W36324   3.390  10.806  13.134 -0.4224 -0.1511  0.1275
20516W        W36325   8.722  16.224  14.483  0.2131  0.1211  0.1496
20517W        W36326  11.792   7.795  12.652  0.3051  0.1207  0.0217
20518W        W36327   0.399   1.018  13.935 -0.1001 -0.2253 -0.1496
20519W        W36328  14.698  14.850  14.883 -0.0592  0.1409  0.0458
20520W        W36329   1.393  14.870  14.509  0.2734  0.0984  0.1013
20521W        W36330  16.648   6.808   5.434  0.2545  0.2402 -0.1624
20522W        W36331  11.636   0.620  11.722 -0.0927 -0.1605 -0.0256
20523W        W36332  14.037   0.597  13.845  0.3203 -0.0831 -0.4219
20524W        W36333   6.309  17.537   3.117  0.0893 -0.0766 -0.2106
20525W        W36334  18.831  17.182   5.416  0.0000  0.0436 -0.1762
20526W        W36335  13.602   9.769   0.548 -0.0275 -0.0757  0.1287
20527W        W36336   3.237  17.869   1.193  0.0956 -0.0939 -0.0656
20528W        W36337   6.880   2.686   3.419 -0.0559  0.1654  0.0087
20529W        W36338   8.192  13.884   3.051  0.0542 -0.3283 -0.1347
20530W        W36339   5.449   4.341  15.056  0.1508  0.1150  0.2529
20531W        W36340   7.102  13.041   4.410  0.3702  0.0745  0.0644
20532W        W36341   5.461  12.069  11.063  0.0246  0.0801  0.0265
20533W        W36342   4.848   8.585  11.543 -0.2505 -0.0907 -0.0763
20534W        W36343   8.575   9.733  14.612 -0.3401  0.2278  0.0377
20535W        W36344  13.869   9.568   4.595  0.2267  0.1773  0.1091
20536W        W36345   9.988  10.644   1.490 -0.2004  0.2524  0.1387
20537W        W36346   1.214   4.285   2.715  0.2822 -0.1026 -0.2458
20538W        W36347   4.702   4.256   3.011 -0.0153 -0.3731 -0.0215
20539W        W36348  13.133  12.515  13.037  0.2066  0.0977 -0.0416
20540W        W36349  14.653   8.609   0.322 -0.0842  0.4966 -0.0042
20541W        W36350   8.924  11.284  11.031 -0.2160  0.0968 -0.1103
20542W        W36351  16.674  18.566   3.710 -0.1226  0.1848  0.0342
20543W        W36352  11.718  13.893  13.930 -0.0908 -0.0602 -0.3029
20544W        W36353  12.667  18.599   1.439 -0.1481  0.1780 -0.1715
20545W        W36354   6.261  10.269  12.624  0.0091  0.0488  0.0369
20546W        W36355   3.430  13.996  14.001  0.1768 -0.0423 -0.2677
20547W        W36356   6.079   3.322   2.609  0.0541 -0.5945  0.0266
20548W        W36357  11.523   3.245  11.303  0.0297 -0.4528 -0.0274
20549W        W36358   5.325   1.947  11.377 -0.0188  0.0550  0.0169
20550W        W36359   1.934  12.968   4.738  0.0920  0.0265  0.1051
20551W        W36360  11.125   6.068  14.246 -0.0977 -0.3594  0.1749
20552W        W36361   5.877   1.845  11.548  0.4459 -0.0611 -0.0565
20553W        W36362  13.010   8.139  14.004 -0.2323 -0.0716  0.0904
20554W        W36363  12.652   1.228   2.834  0.2552  0.1846  0.2814
20555W        W36364  12.413  12.751   3.617 -0.0375 -0.1442 -0.0893
20556W        W36365   5.126   7.848   4.653 -0.1381  0.0215  0.1114
20557W        W36366  16.187   6.703   4.380  0.2450  0.1725 -0.0618
20558W        W36367   5.923  10.222  12.228  0.1118  0.3072  0.4429
20559W        W36368   2.862  10.302  10.909  0.1427 -0.0472  0.0996
20560W        W36369  14.599   2.346   1.836 -0.2277 -0.1876  0.3892
20561W        W36370  17.230   2.429  14.754  0.0684  0.1453  0.0226
20562W        W36371   0.891   5.442  13.509 -0.1790 -0.0606  0.0586
20563W        W36372   9.257   3.951   2.801 -0.2105 -0.0004 -0.0428
20564W        W36373   9.166   0.761   4.409 -0.0008 -0.1497 -0.2818
20565W        W36374   6.825  14.479   1.620  0.1514  0.1310  0.0463
20566W        W36375  15.725   1.936   1.949  0.1314  0.1744  0.1980
20567W        W36376   4.090  14.410   3.308 -0.0518  0.0766  0.2557
20568W        W36377   9.241  10.614  14.972  0.0164 -0.0439 -0.1632
20569W        W36378   8.743  14.386  12.547  0.1169 -0.2243 -0.0698
20570W        W36379  13.453   3.274  14.496  0.0684 -0.1240  0.0005
20571W        W36380  18.962   0.867  10.632 -0.2302 -0.0382  0.1819
20572W        W36381   7.472   5.053  12.215  0.0209 -0.0277 -0.1523
20573W        W36382  13.578   1.368  12.687  0.0063 -0.0599  0.0424
20574W        W36383   0.761   4.807   3.933  0.1240  0.1553  0.1241
20575W        W36384  16.166   6.878   9.813 -0.1818  0.1044  0.0457
20576W        W36385   8.623  15.829  11.489  0.1152  0.3529 -0.1029
20577W        W36386  16.721   8.415  15.113  0.1769 -0.0743 -0.0971
20578W        W36387   1.287   9.859   1.944  0.2431 -0.0932 -0.1193
20579W        W36388  14.537  17.488  13.995 -0.0581  0.0047 -0.0040
20580W        W36389   7.922   9.431  13.869  0.1899 -0.1513 -0.0258
20581W        W36390  11.589  15.882   4.488  0.2999  0.2548  0.0048
20582W        W36391  12.014   2.220  10.415  0.0871 -0.1365  0.1352
20583W        W36392   8.438   1.861   2.573  0.0853  0.0071  0.1469
20584W        W36393   4.971   0.850  13.864 -0.4372  0.1195 -0.2397
20585W        W36394  16.217  17.705  13.754 -0.0141  0.3182  0.1093
20586W        W36395   8.733  12.084  10.851 -0.2191 -0.0833 -0.1401
20587W        W36396   1.881  17.685  11.133 -0.3081 -0.2189 -0.1859
20588W        W36397  18.414   0.856   1.291 -0.2258  0.0895  0.0701
20589W        W36398   7.259   5.323  11.591 -0.0969 -0.1791 -0.2971
20590W        W36399  16.198  15.679   9.927  0.1804  0.0161 -0.0417
20591W        W36400   2.733   3.498  12.917 -0.2172 -0.0215  0.0836
20592W        W36401   1.050   9.573   5.515 -0.1537  0.1480  0.1034
20593W        W36402   8.584  10.248  13.803  0.2192 -0.1263  0.3325
20594W        W36403   2.054   6.008  12.613 -0.1623  0.1229 -0.3711
20595W        W36404  14.410  18.127   3.617 -0.1012  0.3689 -0.0565
20596W        W36405   3.210  18.085  14.623 -0.2839 -0.3521 -0.0798
20597W        W36406   0.725   4.121  13.502 -0.0477 -0.0358 -0.0796
20598W        W36407  10.653   3.121  15.141 -0.1433  0.0521 -0.1497
20599W        W36408  15.354  15.745  12.745  0.1864 -0.0805  0.3796
20600W        W36409   8.933   0.394   3.167 -0.3041 -0.0465  0.1705
20601W        W36410  16.398   4.623  11.897  0.2277  0.0368  0.1027
20602W        W36411  16.592   4.659  13.723 -0.0202 -0.0763  0.1203
20603W        W36412  11.589  12.407   5.386  0.2520  0.0886 -0.0585
20604W        W36413   8.641   1.483   3.171 -0.1065  0.0049 -0.2148
20605W        W36414  17.705  10.132  15.187  0.0627  0.0162 -0.1788
20606W        W36415   0.353   7.421   5.156 -0.0403 -0.0833 -0.1366
20607W        W36416   3.092   5.310  10.158 -0.7038  0.1127  0.0859
20608W        W36417  14.052   5.225  11.794  0.0626  0.3447  0.0720
20609W        W36418   0.290   2.154   4.480  0.0898  0.0943  0.3104
20610W        W36419   4.903   6.939  13.339  0.5090 -0.0774  0.0404
20611W        W36420  12.380  13.126   2.776  0.0305 -0.1047  0.2471
20612W        W36421  17.741  17.579   4.901 -0.0785 -0.1663 -0.2743
20613W        W36422  11.942   4.745   4.384 -0.2348  0.1158 -0.1048
20614W        W36423   8.444   3.031   4.773  0.0490 -0.2871 -0.0163
20615W        W36424  16.726  14.475   2.816  0.0010 -0.0117  0.4966
20616W        W36425   4.286   3.940  14.150 -0.1138  0.1756 -0.0662
20617W        W36426  14.315  16.442   3.016  0.0520 -0.1932 -0.0255
20618W        W36427   4.870   2.150   0.191 -0.2111 -0.0606  0.0756
20619W        W36428   8.646   3.222   4.384 -0.3871  0.0083 -0.1990
20620W        W36429  11.399  12.450  14.758 -0.0254  0.0662  0.2136
20621W        W36430   0.125   0.589   5.949  0.1079 -0.0111 -0.2153
20622W        W36431  18.285   2.544   1.780  0.1568  0.1856 -0.1264
20623W        W36432   9.483  10.391   2.661  0.1107  0.1183  0.0479
20624W        W36433   0.930   4.334  12.085 -0.0057  0.1051 -0.0461
20625W        W36434   2.167   0.973   0.972 -0.1863  0.0188  0.0350
20626W        W36435  16.671  18.857  15.009  0.2041  0.3570  0.3849
20627W        W36436   3.099   8.388  13.120 -0.0665  0.1234 -0.0158
20628W        W36437   3.095   2.076  10.581 -0.0230  0.0009  0.2217
20629W        W36438  14.005   6.988   4.228  0.2118 -0.0269 -0.5072
20630W        W36439  16.388   8.777   5.374 -0.1433 -0.0858 -0.1023
20631W        W36440   5.715   1.445  10.150  0.2423 -0.1619  0.1436
20632W        W36441   7.572   5.545   3.096 -0.1903 -0.0172  0.0172
20633W        W36442   8.788   9.406  11.179  0.3661 -0.2929  0.2332
20634W        W36443   1.709   6.339  12.660 -0.2140 -0.1194 -0.1723
20635W        W36444   8.601  18.657   0.658  0.1993  0.3965 -0.0476
20636W        W36445   9.015   1.590  15.151  0.1496 -0.0407 -0.0096
20637W        W36446   3.502   6.611   0.792  0.1234 -0.0115  0.4753
20638W        W36447  11.697  15.110  12.860  0.1207 -0.0103 -0.0780
20639W        W36448   4.477  13.928   5.519  0.1256 -0.0016 -0.2687
20640W        W36449  10.550   3.688   0.909 -0.0510  0.2776 -0.0573
20641W        W36450   9.924  13.969  10.287 -0.2169 -0.2066 -0.0324
20642W        W36451   0.939  17.940   2.121 -0.3850  0.2568 -0.0505
20643W        W36452   9.598  13.064   0.159 -0.1808 -0.2769 -0.2108
20644W        W36453  10.594   8.193  13.682  0.1281 -0.1308  0.2295
20645W        W36454   0.055  16.489   2.274 -0.0238 -0.1363  0.3052
20646W        W36455   5.627  12.431   4.359 -0.3731  0.1077  0.4653
20647W        W36456  15.410  18.103  10.903  0.1583 -0.1782  0.0499
20648W        W36457  18.859   3.566  15.084 -0.0068  0.3288  0.2077
20649W        W36458   8.519   7.635  10.627  0.0891 -0.4287  0.0364
20650W        W36459   2.415   0.107   2.379  0.1061  0.1159 -0.0872
20651W        W36460  12.273  13.689   1.389 -0.1356 -0.4243 -0.2581
20652W        W36461   2.460   1.779  12.387  0.1377  0.0745  0.1050
20653W        W36462  14.486  18.610   2.817 -0.0636  0.1032  0.4317
20654W        W36463   0.106  15.159  11.610  0.2073 -0.1776  0.1542
20655W        W36464  15.290   0.640   3.638 -0.2955 -0.0326 -0.2971
20656W        W36465  13.057   9.704  12.218 -0.1965  0.3368  0.2171
20657W        W36466   2.885   2.075  14.831  0.3945 -0.0605  0.3252
20658W        W36467  14.596   8.042   1.053 -0.0461 -0.0076  0.0163
20659W        W36468   6.699  16.339  11.126  0.1176 -0.0565 -0.0855
20660W        W36469  14.721   8.246  12.017  0.1848 -0.2935 -0.1780
20661W        W36470   2.425   4.511   5.057  0.0245 -0.2398 -0.0462
20662W        W36471   4.842  14.814  11.361  0.2237 -0.2042 -0.0307
20663W        W36472   4.766  11.014   0.774 -0.1057  0.1268  0.3569
20664W        W36473   7.719   0.135   1.695 -0.0915  0.3498 -0.1262
20665W        W36474   4.865   3.741   1.027  0.0716  0.0488  0.0242
20666W        W36475  16.773   7.101   4.633  0.1645  0.0673 -0.0502
20667W        W36476  13.958  12.355  10.735 -0.1062 -0.0031 -0.0910
20668W        W36477  14.750   3.391  11.505 -0.0791  0.3343  0.1076
20669W        W36478  12.831   1.982  11.006 -0.1904 -0.0553 -0.1680
20670W        W36479  15.733   4.438   2.832 -0.2849  0.2269  0.1573
20671W        W36480   5.736  18.378   2.768  0.1491 -0.1595  0.2325
20672W        W36481  15.789   4.522  13.792  0.3067 -0.0334 -0.0306
20673W        W36482  18.051   8.540  11.145  0.0495  0.0629 -0.0850
20674W        W36483   1.255  17.333   4.050 -0.2278 -0.0318  0.0175
20675W        W36484  17.033  10.160   0.759 -0.0696  0.0221  0.2229
20676W        W36485  10.951  13.798  14.614 -0.0587  0.2573  0.1074
20677W        W36486  14.752   5.742   9.763 -0.1642 -0.0111  0.1107
20678W        W36487   5.567  12.263  10.509  0.0354 -0.1057 -0.0740
20679W        W36488   6.267  11.241  15.210  0.0420 -0.0330  0.0949
20680W        W36489   7.047  17.421   4.510  0.4335 -0.1341  0.0573
20681W        W36490   1.034   2.835  10.967 -0.3485  0.1242 -0.0490
20682W        W36491  12.490   2.346  14.462 -0.0884  0.0970  0.2125
20683W        W36492   2.410  16.263   0.094 -0.2033  0.1813 -0.0590
20684W        W36493   0.081  12.373  12.080  0.4776 -0.2743  0.1994
20685W        W36494   9.764   7.548   3.410 -0.2275  0.3162 -0.0592
20686W        W36495   1.222   0.180  15.265 -0.0339 -0.3406  0.1835
20687W        W36496  14.182   9.047   4.514 -0.3981  0.1346 -0.1535
20688W        W36497   4.794  12.071   0.942  0.1479  0.3959 -0.1340
20689W        W36498   4.064   1.653  12.747 -0.1239 -0.0953 -0.0806
20690W        W36499   0.428   5.149   5.415  0.0058  0.3970 -0.4079
20691W        W36500  16.930   1.224  14.936  0.1710 -0.2072 -0.2278
20692W        W36501  18.195  16.764  14.966 -0.0695  0.0023 -0.0531
20693W        W36502   6.963  10.162  11.413 -0.0619 -0.1458 -0.0380
20694W        W36503   3.642   1.070   4.972 -0.0258 -0.2208 -0.2826
20695W        W36504  18.830  14.525   2.662  0.0575 -0.0734 -0.1350
20696W        W36505  17.381  16.259   1.535  0.2186  0.1973 -0.0655
20697W        W36506   5.332   4.276  10.358  0.2410 -0.1227  0.1781
20698W        W36507   0.374  11.961   0.799 -0.4661 -0.0815  0.2052
20699W        W36508   2.573  15.193   2.483 -0.0324  0.0714  0.1408
20700W        W36509  15.852  11.221   0.097  0.1416 -0.0956 -0.1790
20701W        W36510  13.985  17.373   1.324 -0.3835 -0.1526  0.1116
20702W        W36511   7.660  15.874   1.700  0.0246  0.0045  0.1647
20703W        W36512  14.381  12.166   1.226  0.0056 -0.0362  0.1705
20704W        W36513   2.647  18.162   0.286  0.2585 -0.4703 -0.3485
20705W        W36514  13.346  17.236   0.414 -0.2424 -0.1952  0.0788
20706W        W36515  17.793   2.547   2.036 -0.2469  0.0090 -0.1560
20707W        W36516   2.046  15.645   4.106  0.1201 -0.0783  0.2271
20708W        W36517   3.262  18.269  13.273  0.0036  0.2565  0.1819
20709W        W36518   6.314   7.258  11.583 -0.4388 -0.0053  0.1925
20710W        W36519  14.881   0.046   2.891  0.2576  0.1289  0.0119
20711W        W36520   2.058   7.732   4.061  0.3092 -0.0779 -0.3524
20712W        W36521  15.526   6.822  13.240 -0.2012  0.1480  0.1410
20713W        W36522  18.447  14.756  10.657  0.0625 -0.0484  0.1405
20714W        W36523  12.718  15.324  13.303  0.1916 -0.2724  0.1967
20715W        W36524  12.114  17.546  12.110  0.4394 -0.1285  0.0575
20716W        W36525   8.533   9.983   4.487 -0.1360 -0.2611  0.1710
20717W        W36526   1.180   9.282  11.287  0.2946 -0.1077  0.1116
20718W        W36527  14.762   1.634  13.029  0.1681 -0.4770 -0.4778
20719W        W36528   0.946  16.078   5.215 -0.1049  0.1533  0.2091
20720W        W36529  12.133   0.489  14.068  0.1076  0.0472  0.2682
20721W        W36530  12.534  11.227   1.542 -0.1484 -0.0902 -0.0441
20722W        W36531  16.093  15.147   4.001  0.0847 -0.2117  0.1491
20723W        W36532   2.760  16.777  14.565  0.1660 -0.0196 -0.0801
20724W        W36533   6.931   4.384  13.909  0.0475  0.2288 -0.0605
20725W        W36534   3.434   9.376   9.146 -0.3121  0.1305 -0.1277
20726W        W36535  18.471  12.771  14.932  0.1828  0.1304 -0.1986
20727W        W36536  15.228  14.806  13.339 -0.1093 -0.0758 -0.1504
20728W        W36537   0.161  14.353  13.512  0.0304 -0.1002 -0.1384
20729W        W36538   5.295   3.837   4.587 -0.5277  0.0582  0.3068
20730W        W36539   1.228  18.911  13.104 -0.3098 -0.0506 -0.0965
20731W        W36540  17.910  10.038   4.720 -0.1629 -0.0417 -0.0292
20732W        W36541   3.137   6.536   0.342  0.1492  0.0641 -0.1765
20733W        W36542   8.465   8.786   2.401 -0.0414 -0.2604 -0.1096
20734W        W36543  15.973   2.298   2.945  0.0543 -0.2292 -0.1083
20735W        W36544  14.219   3.624   1.933  0.0124 -0.0389 -0.0450
20736W        W36545  11.251  10.912  12.259 -0.0589 -0.0210 -0.3039
20737W        W36546   3.986   3.154   3.287  0.1574  0.0347  0.0135
20738W        W36547   0.799   9.693  12.075  0.1191 -0.0135 -0.0648
20739W        W36548  13.912   3.279   1.859  0.0119  0.1397 -0.2332
20740W        W36549   6.707   9.323  10.204  0.0958  0.1185 -0.0901
20741W        W36550   5.628  14.786  13.075  0.1919 -0.0701 -0.1982
20742W        W36551   0.905   5.366  10.520 -0.1712 -0.2994  0.0000
20743W        W36552   9.616   3.708   3.357 -0.3346 -0.0184  0.0150
20744W        W36553  15.576   3.308   6.258  0.2610 -0.2056  0.1822
20745W        W36554   9.480  12.694   0.745 -0.2830 -0.1168 -0.0039
20746W        W36555   9.879   0.848   0.921 -0.3969  0.3483  0.1949
20747W        W36556  11.638   2.807  14.372  0.1499  0.1210 -0.1178
20748W        W36557   4.615  11.695   4.570  0.0328 -0.0402  0.0779
20749W        W36558  18.838  18.141   0.836 -0.0777  0.1464  0.1205
20750W        W36559   9.427   8.119  15.064  0.1102 -0.2500 -0.1644
20751W        W36560  17.393   7.831   4.108 -0.1735 -0.3428  0.0984
20752W        W36561   7.499   1.123   5.256 -0.1865 -0.1707  0.1015
20753W        W36562  10.402  14.259  13.720 -0.0582 -0.0355 -0.1120
20754W        W36563   5.943   1.224   3.271  0.0241 -0.7054 -0.2522
20755W        W36564  10.065  10.204   9.402  0.0730  0.0325 -0.0162
20756W        W36565  13.862   7.191   1.646  0.4330  0.4477  0.1149
20757W        W36566  14.486   9.080  11.553 -0.3395 -0.0962  0.2807
20758W        W36567   6.747   5.866  11.533  0.0371 -0.1198  0.1889
20759W        W36568  18.772  17.443   1.825  0.0072 -0.0853  0.0023
20760W        W36569  18.155   1.077  15.251  0.3574  0.0749 -0.1139
20761W        W36570   5.193   3.956   9.490 -0.0893  0.4634  0.0276
20762W        W36571   7.957   1.599   0.637  0.3737 -0.0610  0.2294
20763W        W36572  14.294   8.449  14.524 -0.1281 -0.4125 -0.0608
20764W        W36573   9.658  12.752   1.883  0.3735  0.0847 -0.1427
20765W        W36574   0.624   5.879   5.057  0.1010  0.0152 -0.1998
20766W        W36575  10.802  11.062  10.577 -0.0154 -0.0480  0.0677
20767W        W36576   3.322  17.454  15.010  0.1574 -0.1830  0.0917
20768W        W36577   1.715  15.123   1.612 -0.0274 -0.0252 -0.3493
20769W        W36578   2.546  14.928   4.253 -0.3124 -0.0196 -0.1755
20770W        W36579   4.859   0.550   9.374  0.0605  0.0305 -0.1232
20771W        W36580  12.168  13.218   3.732  0.1062  0.2277 -0.0182
20772W        W36581  15.398   4.267  14.138  0.1734 -0.1076  0.1068
20773W        W36582  12.727  17.858   5.353  0.1409  0.2577  0.0425
20774W        W36583   5.803   3.203  12.853  0.0922  0.0316 -0.0212
20775W        W36584   7.212   2.560  12.009 -0.0789 -0.1329 -0.2798
20776W        W36585   4.827   7.339   1.550  0.0384  0.2829 -0.1328
20777W        W36586  16.216  13.265   3.720  0.2382  0.0628 -0.0824
20778W        W36587   7.946   9.764  12.902  0.0199  0.4489 -0.1485
20779W        W36588  17.769  14.065  11.764  0.0969 -0.0885 -0.2362
20780W        W36589  13.563   7.783   2.158  0.2331  0.6086  0.1456
20781W        W36590  13.252   4.230   1.225  0.2080 -0.0584 -0.1406
20782W        W36591  17.421  10.283   4.024 -0.0923 -0.1947 -0.0762
20783W        W36592  10.694   5.290  13.985 -0.2967  0.1401  0.1070
20784W        W36593  14.809  13.825  14.653  0.1290 -0.0068 -0.1759
20785W        W36594   4.673  15.754   4.019 -0.2732  0.1458  0.1352
20786W        W36595   5.109  10.366   1.698  0.0804  0.0505  0.2287
20787W        W36596   3.288   2.509  10.965  0.0895  0.4244 -0.0653
20788W        W36597   2.339   3.464  13.283 -0.0099  0.3157 -0.0623
20789W        W36598  12.853  15.008   2.384 -0.0362  0.0905 -0.0934
20790W        W36599  15.623  15.016   3.911 -0.3954 -0.2231 -0.3470
20791W        W36600  16.244   2.524  13.473  0.0981  0.1266 -0.2464
20792W        W36601   4.651  10.520   2.774  0.0799 -0.0416  0.4308
20793W        W36602   0.090  11.119   2.776 -0.1198 -0.0215 -0.1097
20794W        W36603   6.373  17.990  10.512 -0.0427  0.0038  0.0154
20795W        W36604   4.554   0.446  10.766 -0.2273 -0.1506  0.0631
20796W        W36605   3.318   3.471   4.038 -0.2374 -0.0727 -0.2832
20797W        W36606   4.791  14.992   4.769  0.0117  0.1734  0.0953
20798W        W36607   0.775  11.418   1.238 -0.1542 -0.0588 -0.1229
20799W        W36608   1.319  10.325   1.211 -0.2421  0.2067  0.1181
20800W        W36609   8.276  12.994   4.183  0.1077  0.2095 -0.1566
20801W        W36610  14.481  15.208   1.062 -0.1500  0.0627 -0.0079
20802W        W36611  14.156  13.617  14.941 -0.0830  0.1712 -0.3605
20803W        W36612   3.466   3.106   3.651  0.2817 -0.1504  0.1547
20804W        W36613   1.118   6.982   3.559  0.1610  0.0371  0.1071
20805W        W36614  11.001   0.702  14.840 -0.1550  0.1336  0.2763
20806W        W36615   4.729   7.786  12.315  0.4418  0.0392 -0.4434
20807W        W36616   2.381   8.321  14.029 -0.1597 -0.1976  0.4741
20808W        W36617   3.022  14.918  10.034 -0.2320  0.3054 -0.3772
20809W        W36618  16.883   9.541  12.653 -0.2319 -0.0360 -0.1156
20810W        W36619   5.081   5.304  12.936 -0.3907 -0.0304 -0.1814
20811W        W36620  10.476  12.765  10.423  0.0727  0.2151  0.2643
20812W        W36621  17.315  11.730  11.095 -0.2478  0.0007 -0.1015
20813W        W36622  16.035  12.343   2.248  0.1526 -0.1149 -0.0586
20814W        W36623  14.067   0.403   5.220  0.0133  0.0251  0.0760
20815W        W36624  14.475  16.520  14.211  0.0182 -0.2480  0.1136
20816W        W36625   1.200  12.638   1.714  0.0318 -0.1212  0.0111
20817W        W36626   6.792   9.416   4.236  0.2497 -0.0247  0.1150
20818W        W36627  11.594  12.588   1.607 -0.1410 -0.0204  0.1517
20819W        W36628   4.638   1.096   9.421  0.0055 -0.0902  0.4370
20820W        W36629  10.163   3.672   2.863 -0.2852 -0.1171  0.1133
20821W        W36630   5.570   4.070  12.325 -0.2159 -0.1321  0.2255
20822W        W36631   2.426  13.285  15.084  0.0864 -0.0990 -0.3061
20823W        W36632  18.411   5.981   4.637 -0.0539 -0.0836  0.2310
20824W        W36633   9.144  11.068  12.987 -0.4297  0.1470 -0.2960
20825W        W36634  17.618   3.276   5.584 -0.0118 -0.0825 -0.4165
20826W        W36635  16.363  18.841  12.270 -0.1368  0.1131 -0.1613
20827W        W36636   2.504  15.006   5.163 -0.1756 -0.2265 -0.0414
20828W        W36637  14.386  15.628   4.933  0.1855  0.2524  0.2317
20829W        W36638   1.232   8.316   4.061 -0.0153 -0.2965 -0.0549
20830W        W36639   5.554   2.248  14.181  0.1499 -0.3419 -0.1304
20831W        W36640   2.522   6.272   1.946  0.2456  0.0489 -0.1656
20832W        W36641  16.716   2.674   5.075  0.0911  0.1911 -0.0397
20833W        W36642   5.730   1.204   1.412 -0.0597 -0.0090  0.2079
20834W        W36643  13.923   5.336   1.112 -0.1742  0.0717  0.1698
20835W        W36644   5.105   4.655   0.127  0.2685 -0.2064 -0.0418
20836W        W36645  18.977  14.680  11.649  0.3281 -0.0930 -0.1259
20837W        W36646   5.891   1.419   2.503  0.1055 -0.0817  0.0025
20838W        W36647   3.822  11.606   1.079 -0.2638  0.0315  0.0604
20839W        W36648  11.089   8.020  12.916 -0.1158  0.0831 -0.1170
20840W        W36649  12.033   1.367   2.882 -0.2514 -0.1168 -0.0596
20841W        W36650  13.245  10.343   4.118 -0.0634  0.2213  0.1868
20842W        W36651  10.309   4.562  13.942 -0.2330 -0.4718 -0.1546
20843W        W36652  15.034   2.743  13.878  0.1386  0.0011 -0.0879
20844W        W36653  13.978  10.640  15.185  0.2083  0.0159  0.1021
20845W        W36654   3.973   8.717   9.768  0.1574  0.1983  0.0183
20846W        W36655   6.345   5.566   0.786  0.1341  0.3943 -0.2545
20847W        W36656   0.530  18.717   2.105  0.0314 -0.0853  0.1973
20848W        W36657   1.052  14.698  11.005 -0.2623 -0.3955 -0.2151
20849W        W36658   7.972   1.892   1.385 -0.1355 -0.1254  0.1828
20850W        W36659  11.907   5.170   1.513 -0.1874  0.0721  0.1148
20851W        W36660   1.720   3.673   0.461  0.2706 -0.2985 -0.2359
20852W        W36661   3.365   2.854  11.302 -0.0339  0.0971  0.1955
20853W        W36662   2.795   0.210  11.386  0.1018 -0.0152  0.0697
20854W        W36663   8.919  13.845  10.113  0.0800 -0.0721 -0.3239
20855W        W36664   0.576  17.602   5.555  0.2364  0.2874  0.0534
20856W        W36665   0.228   2.013  12.788  0.3220 -0.0094 -0.1642
20857W        W36666   3.584  14.195  12.103 -0.1844 -0.2059  0.0183
20858W        W36667  13.638  11.644   4.327  0.4579 -0.0775  0.0333
20859W        W36668  11.904  16.312  14.659  0.0587  0.3285 -0.0057
20860W        W36669  18.900   5.313   4.818 -0.0298  0.0153 -0.2935
20861W        W36670  16.776  12.689   4.311  0.0377 -0.1692  0.2811
20862W        W36671  13.947   9.638   5.334 -0.2686  0.0771  0.0258
20863W        W36672  15.865   8.874  10.798 -0.1165 -0.0050  0.0657
20864W        W36673  10.223  17.047  14.986 -0.0845  0.2976 -0.0233
20865W        W36674  13.046  18.258  13.383 -0.0997 -0.0140 -0.1850
20866W        W36675  13.797   6.062   3.362  0.1374 -0.2848  0.1103
20867W        W36676   2.098   0.141  14.954  0.0653  0.2383  0.2077
20868W        W36677  18.393  11.013   0.295 -0.2036 -0.1071  0.2369
20869W        W36678   7.593   7.135   4.816 -0.3234  0.2609  0.0079
20870W        W36679   9.219   6.426  14.315 -0.1013  0.0656  0.1171
20871W        W36680  10.143  16.339  11.302  0.2955 -0.0801 -0.2419
20872W        W36681  13.744  12.609   3.036  0.0691  0.0457  0.1401
20873W        W36682  11.663   5.985  10.741  0.0460  0.1127  0.0880
20874W        W36683  11.532   4.806  12.066  0.0116 -0.1525 -0.1617
20875W        W36684   5.103  14.455   4.178  0.1412 -0.3086  0.1143
20876W        W36685  12.177  14.032  15.145 -0.1908 -0.1249 -0.2083
20877W        W36686   5.624   1.018   2.422 -0.3633 -0.2026  0.2971
20878W        W36687   4.858  13.386   3.743 -0.2204  0.0359  0.2311
20879W        W36688   3.766  16.027   4.553  0.0197 -0.2795 -0.1685
20880W        W36689   1.152  12.700  10.983 -0.1825 -0.0187 -0.3707
20881W        W36690   6.730   6.762   1.515  0.2358 -0.0341 -0.0329
20882W        W36691   2.266  11.630   2.874  0.0733 -0.2229 -0.1159
20883W        W36692   8.543   2.386   3.608  0.1873 -0.0241  0.1229
20884W        W36693   5.483  11.674   4.726 -0.1594  0.2082  0.1104
20885W        W36694  16.373   6.487  12.797 -0.3144  0.0041 -0.0164
20886W        W36695   8.396  17.753  11.709 -0.3959  0.0939  0.1704
20887W        W36696  12.370   2.506  10.195 -0.5643  0.1759 -0.0879
20888W        W36697  11.849  14.551   1.560 -0.0907 -0.0128  0.0118
20889W        W36698   3.098   1.328  11.268  0.1729  0.3276  0.1096
20890W        W36699   6.617   3.702  11.947 -0.0098  0.2020  0.0784
20891W        W36700   6.927  10.423   1.275 -0.3183 -0.1808 -0.2432
20892W        W36701   7.198   8.161  14.528 -0.3212  0.1301  0.2158
20893W        W36702  19.028   1.872  12.345 -0.2514 -0.0962 -0.1468
20894W        W36703  18.141   7.714   2.400 -0.0030  0.3925 -0.1673
20895W        W36704  17.558   3.526  11.315  0.3025 -0.0864 -0.1424
20896W        W36705   8.760  14.314  10.252 -0.2874  0.0347  0.0047
20897W        W36706   5.552  13.594   2.233  0.0299 -0.1546 -0.3702
20898W        W36707  12.981  15.648  13.560 -0.2649 -0.0053 -0.2217
20899W        W36708  14.473   8.384   4.249 -0.1806 -0.1387 -0.0877
20900W        W36709   3.216  14.055   0.450 -0.1166  0.1558 -0.1022
20901W        W36710  13.491   3.924   4.239 -0.0344  0.0704 -0.0034
20902W        W36711  12.912   1.044  13.542 -0.3385 -0.1934 -0.1420
20903W        W36712  12.544  10.809  11.905  0.2806 -0.0085 -0.0095
20904W        W36713  15.774  16.249   3.396 -0.2675 -0.0601  0.2795
20905W        W36714  10.736   1.064   3.058 -0.0614  0.0474  0.0159
20906W        W36715  16.756  13.129  11.898  0.1567  0.0403 -0.1228
20907W        W36716   9.534  11.236  11.679 -0.0474 -0.1611  0.0800
20908W        W36717  14.432  15.204  11.956 -0.4785 -0.1431 -0.2642
20909W        W36718   2.569  16.677  14.046  0.1555  0.1700  0.0039
20910W        W36719   3.302   2.392  14.686  0.0704 -0.1345  0.3927
20911W        W36720   2.128  14.335   2.187  0.2184 -0.0369 -0.1251
20912W        W36721   5.469  13.140   5.257 -0.2851 -0.0471  0.0049
20913W        W36722   1.348   8.930  14.661 -0.0399  0.2617 -0.1756
20914W        W36723  11.706   3.963   4.816 -0.0053  0.0204 -0.1868
20915W        W36724   0.271   5.771   0.550  0.0325 -0.0935 -0.2794
20916W        W36725   3.364  13.073  14.163  0.0640  0.1043 -0.3847
20917W        W36726   4.638   6.471   0.284 -0.4857  0.3140 -0.0749
20918W        W36727   7.778  15.396  13.463 -0.1606 -0.1445 -0.1846
20919W        W36728   3.106   3.596   0.298 -0.3132  0.0534  0.4917
20920W        W36729   3.156  13.645   1.902  0.2673 -0.3159  0.3416
20921W        W36730   7.416   0.457   4.151 -0.1304  0.0569  0.4817
20922W        W36731   0.614  18.505   4.417 -0.2655  0.6033  0.1268
20923W        W36732   1.630   9.338  15.113  0.1663 -0.0984 -0.0099
20924W        W36733  16.179  15.126   5.403 -0.1024 -0.1724  0.1351
20925W        W36734   9.055  15.952  10.585 -0.3024  0.0012 -0.1780
20926W        W36735   9.428   0.193  12.520 -0.0707 -0.1031 -0.0107
20927W        W36736   1.475  17.736  13.889 -0.2300  0.0815 -0.1729
20928W        W36737   1.187  10.761   3.155 -0.0115 -0.0575  0.1487
20929W        W36738  12.144   0.588   3.988  0.1263 -0.0799 -0.0449
20930W        W36739   1.257   9.332   3.119 -0.0893 -0.1874  0.2166
20931W        W36740  18.165   4.693   1.696 -0.3453 -0.4528  0.1472
20932W        W36741   4.559  16.646   1.670 -0.0697 -0.1961 -0.2160
20933W        W36742   0.513  15.203  13.006 -0.0606 -0.2421 -0.2337
20934W        W36743   3.243   1.827  14.574  0.2065  0.2537 -0.1147
20935W        W36744  12.301   2.924   3.466  0.1997  0.0283  0.3614
20936W        W36745   5.580   5.253   2.698 -0.3021  0.3345  0.0410
20937W        W36746   0.577   1.008   5.327  0.5038 -0.0455  0.2037
20938W        W36747   2.787   3.036  15.124  0.0782 -0.1910 -0.1546
20939W        W36748   9.085   1.926  14.724 -0.0060  0.0434 -0.4833
20940W        W36749   3.170  12.015  14.562  0.0434 -0.2703 -0.1098
20941W        W36750  17.340   7.867   5.628  0.0092 -0.3958 -0.0751
20942W        W36751   6.872  16.438  12.762  0.0316  0.2254  0.3199
20943W        W36752   6.070   3.972   0.715  0.0807  0.1142 -0.1586
20944W        W36753  10.372  13.228  15.102 -0.2237 -0.3429 -0.0656
20945W        W36754   8.924   7.832   2.041  0.0529  0.2002  0.0394
20946W        W36755   6.240  12.545   9.492 -0.0121  0.1185 -0.0613
20947W        W36756  10.716   6.471  14.359 -0.1667 -0.2431  0.0420
20948W        W36757  14.533   3.116  13.821 -0.0293  0.0100  0.0812
20949W        W36758  11.102   4.995  13.249  0.1102 -0.1214 -0.5235
20950W        W36759   0.637   4.334   2.568  0.1722  0.3229  0.0984
20951W        W36760  14.010   8.519  12.502  0.3482 -0.0237  0.1049
20952W        W36761  18.881   9.196  11.227 -0.3498 -0.1194  0.2238
20953W        W36762  11.228  10.837   1.059  0.4401  0.0088  0.0073
20954W        W36763   0.017   4.048   0.187 -0.0958  0.4139  0.1872
20955W        W36764   8.425  14.705  10.944 -0.2130 -0.1964 -0.2393
20956W        W36765  12.439   1.900  10.618 -0.0602  0.0440 -0.1336
20957W        W36766   6.739  15.882  10.935  0.0664  0.1273  0.1486
20958W        W36767   8.973  10.526   2.614  0.2795 -0.0499  0.1352
20959W        W36768   2.675  18.236  11.143  0.0698 -0.0343 -0.1077
20960W        W36769   9.214   8.518  13.454 -0.0919 -0.0927 -0.0279
20961W        W36770   2.343   3.186  15.284  0.0878  0.0379  0.1186
20962W        W36771  15.709  16.141   4.911 -0.0010  0.0438  0.1034
20963W        W36772  15.167  12.329   4.432  0.1749 -0.2174  0.2822
20964W        W36773   3.234   9.637   2.747 -0.0478 -0.1541 -0.1831
20965W        W36774   4.703   9.585   0.809  0.3320 -0.1809  0.0332
20966W        W36775   4.728   0.210   5.339 -0.6130  0.1924  0.2097
20967W        W36776  16.255   4.343   2.617  0.3913 -0.0676  0.0465
20968W        W36777  13.838  14.835  14.469  0.2349  0.1249 -0.0611
20969W        W36778   5.101  10.847   1.706  0.0522 -0.0663 -0.3015
20970W        W36779  11.822   1.761  14.786 -0.0204 -0.1910 -0.2691
20971W        W36780   5.926  17.240  13.035  0.2819  0.2797  0.1152
20972W        W36781   9.277  11.347  12.122  0.3860 -0.1612 -0.0239
20973W        W36782   7.978  17.944  12.554  0.1039 -0.0819  0.0336
20974W        W36783  15.443  11.903   3.729  0.0024 -0.1558  0.1027
20975W        W36784   1.578   8.810   0.851 -0.2021 -0.0765  0.1452
20976W        W36785  14.144   9.637   2.127  0.0947 -0.0255 -0.0224
20977W        W36786   0.748  15.706  14.386 -0.0484  0.2352 -0.3404
20978W        W36787  17.804  18.176  15.262  0.0061 -0.0756  0.2148
20979W        W36788  15.123   2.695   2.598 -0.1603 -0.2852  0.1568
20980W        W36789  18.952   6.041   5.281  0.2600 -0.1308 -0.1300
20981W        W36790   2.530   2.266   5.584  0.0435  0.0376  0.3340
20982W        W36791   0.090   6.479  14.310 -0.0803 -0.0448  0.2073
20983W        W36792  17.248   8.048   0.097  0.0634  0.0452 -0.2263
20984W        W36793   4.564   3.891   0.111 -0.2798 -0.2385  0.0961
20985W        W36794   1.151  14.244  12.225 -0.3654 -0.2263  0.1715
20986W        W36795   0.143  12.851   1.822 -0.0381 -0.2833 -0.0881
20987W        W36796   9.611   4.182   4.662  0.0901 -0.0194 -0.3650
20988W        W36797  18.603  16.404   1.099 -0.0579  0.1986 -0.0829
20989W        W36798  11.251  15.065  11.472  0.1123  0.4080  0.2784
20990W        W36799  13.025  15.699   4.092 -0.0454  0.3073 -0.0343
20991W        W36800  18.261  18.619  12.519 -0.2292 -0.4735 -0.1376
20992W        W36801  11.691  11.596   4.711  0.0981  0.0667 -0.3604
20993W        W36802  13.873   1.944   0.081  0.0176 -0.1163 -0.0480
20994W        W36803   6.544  15.954   4.441 -0.0938  0.0501 -0.2997
20995W        W36804   1.391  17.612   3.358  0.0050 -0.3218  0.0905
20996W        W36805  10.319   9.242  13.436 -0.3060  0.0651  0.0071
20997W        W36806   6.960   1.050  14.261 -0.2965  0.0178  0.1055
20998W        W36807  16.543   2.078  13.378  0.0849 -0.1104 -0.0147
20999W        W36808  13.313  11.336  13.689 -0.0511 -0.0322  0.4845
21000W        W36809  10.003  13.588   2.780 -0.3209  0.1228 -0.2477
21001W        W36810  12.652  16.054  14.699  0.0440  0.1602 -0.1135
21002W        W36811  17.174  10.791  14.222  0.1700  0.0290 -0.2067
21003W        W36812  12.421   2.888   4.032 -0.0449 -0.3299 -0.3320
21004W        W36813  11.239  13.231  13.012 -0.2509 -0.1855  0.1547
21005W        W36814   8.943   4.612   1.725  0.2296  0.0785 -0.1269
21006W        W36815  13.048   0.785  12.453  0.0665 -0.3449 -0.1910
21007W        W36816   1.884  14.151  11.246  0.0641  0.1151  0.0556
21008W        W36817   2.686   4.106   4.515 -0.0403 -0.1695  0.1376
21009W        W36818  18.491   9.223  10.018 -0.0791  0.0850  0.3290
21010W        W36819  17.562  16.025   3.765 -0.0109 -0.2593 -0.0086
21011W        W36820   5.232   4.667   2.654 -0.2034  0.2145  0.1213
21012W        W36821  10.722   1.455  14.835  0.0071 -0.1380  0.2425
21013W        W36822  13.334  17.248   3.102  0.0662 -0.0077  0.1380
21014W        W36823   5.286   9.573   2.520 -0.1115  0.3954 -0.1221
21015W        W36824  12.448   4.149   0.208  0.0484 -0.2988  0.0406
21016W        W36825  13.076  15.709  11.412  0.1941  0.0188  0.2375
21017W        W36826   2.234   8.300  10.678  0.4061 -0.1185  0.2344
21018W        W36827   3.442  18.362  10.653 -0.1701  0.1377 -0.0031
21019W        W36828  14.806   3.555   0.731 -0.2575 -0.0215 -0.2943
21020W        W36829  13.137   4.805   0.543  0.2370 -0.3101 -0.0834
21021W        W36830  12.550  18.557   2.452  0.0379 -0.0845 -0.4757
21022W        W36831  10.392   2.706   4.754  0.0524  0.2663  0.0298
21023W        W36832   9.359  15.024   2.484 -0.0306  0.0497  0.2775
21024W        W36833   9.172  18.246   0.099 -0.1222  0.2312  0.2490
21025W        W36834   7.029  14.685  12.344  0.3902  0.1051  0.0934
21026W        W36835  11.607   7.290   2.180 -0.0811  0.1511 -0.0064
21027W        W36836  18.611  11.274  14.655  0.1866 -0.2144  0.0137
21028W        W36837   0.676   1.854   0.888  0.3578 -0.3243  0.0203
21029W        W36838   5.283  15.600   4.848 -0.0988 -0.0005  0.3307
21030W        W36839  10.694  15.771  11.828 -0.1522  0.1048  0.2483
21031W        W36840   4.739   8.389   3.977 -0.2549  0.0463  0.0173
21032W        W36841   3.984  14.187  13.326 -0.1061 -0.5431  0.4446
21033W        W36842  13.946  18.370   1.054  0.0054 -0.1661  0.1178
21034W        W36843  13.451  13.500   0.393  0.2134 -0.2782 -0.3876
21035W        W36844  12.878   4.281  13.946 -0.0926 -0.0966  0.0212
21036W        W36845  18.080   5.736   2.654  0.0863 -0.0329 -0.4286
21037W        W36846   5.722   7.887  12.720 -0.1677  0.0870 -0.1072
21038W        W36847   8.477  12.139  13.700  0.2230 -0.0295  0.1306
21039W        W36848   6.267   4.530  11.934  0.3929 -0.2032  0.2416
21040W        W36849   7.355  13.138  12.413  0.0754 -0.0700  0.0516
21041W        W36850   9.745  16.910   2.555 -0.0995 -0.4103 -0.0231
21042W        W36851   4.259   4.612  10.506 -0.3367  0.1625  0.2583
21043W        W36852   0.189  14.279   2.873  0.5352 -0.0832 -0.1681
21044W        W36853   6.305   8.109  10.142  0.0454  0.4825  0.0897
21045W        W36854  12.250   7.484   3.612  0.1181  0.0104 -0.3503
21046W        W36855  12.023   2.111   3.117 -0.0516 -0.2391 -0.2649
21047W        W36856   0.295  10.185  15.101  0.1635 -0.0470 -0.0826
21048W        W36857  15.573   3.392  11.919  0.2275 -0.1379 -0.0361
21049W        W36858   3.117  12.187   0.534  0.0358 -0.6403  0.0996
21050W        W36859   8.695  15.793  13.287  0.1632  0.0917  0.3322
21051W        W36860  15.874  15.559  12.272 -0.2124  0.1889  0.1899
21052W        W36861   2.968   9.699  14.824  0.2226 -0.1004  0.0610
21053W        W36862  16.486   4.936  13.315 -0.4059 -0.1074 -0.2319
21054W        W36863   5.682   4.582   2.223  0.0212  0.2002  0.2566
21055W        W36864   9.984  17.563  12.525  0.0996  0.0409  0.3146
21056W        W36865   3.112  16.903   4.371 -0.0798 -0.1560  0.0876
21057W        W36866   5.789  12.468  11.969 -0.0929 -0.3880  0.1585
21058W        W36867   1.979   9.120   2.932  0.0926  0.1299  0.1026
21059W        W36868   4.945   2.926  13.552  0.0121  0.5017  0.0984
21060W        W36869   7.368   1.831   0.044  0.0955  0.0683  0.2001
21061W        W36870  10.131  17.411  10.860 -0.0252  0.1214 -0.2652
21062W        W36871   6.953  14.365  11.177 -0.0716 -0.3257  0.1020
21063W        W36872  17.706  14.491   0.695  0.0545 -0.4096 -0.2799
21064W        W36873  11.475  13.251   3.024  0.0609 -0.2085 -0.0443
21065W        W36874   7.639  18.267  12.217 -0.1618 -0.2096 -0.2387
21066W        W36875   4.059   8.315  15.011  0.0089 -0.1040 -0.0121
21067W        W36876  16.734   2.166   3.299 -0.2708 -0.0924 -0.0068
21068W        W36877  15.639  17.149   0.073 -0.1732 -0.0809  0.1631
21069W        W36878  10.024  11.320   2.178 -0.5646 -0.1070  0.1712
21070W        W36879  17.136  15.356   2.779  0.0310  0.3827  0.0135
21071W        W36880   4.821  11.268  14.642 -0.1452  0.2775 -0.5703
21072W        W36881  18.054  18.974  11.401 -0.0330  0.3802 -0.3869
21073W        W36882  13.193   1.136  11.780 -0.3161 -0.1313 -0.2535
21074W        W36883  18.315  18.900   2.145  0.2863  0.2391  0.0746
21075W        W36884  10.085  15.697  13.527 -0.2539  0.1116 -0.0802
21076W        W36885   5.240   2.748   2.490 -0.1503 -0.2043  0.2394
21077W        W36886   3.073   5.637   1.547  0.0425  0.1659 -0.0833
21078W        W36887   1.149   1.169   1.055  0.2016 -0.0587 -0.0530
21079W        W36888   6.498   7.284   2.604  0.0356  0.2515  0.1484
21080W        W36889   8.446  14.429  13.666 -0.0185 -0.3305  0.0499
21081W        W36890   6.507  16.426   1.201  0.0824  0.2699  0.0632
21082W        W36891  15.630   8.800  14.771 -0.2306 -0.0638  0.0185
21083W        W36892  17.099   5.433   3.539 -0.1718 -0.1657 -0.0107
21084W        W36893  14.496  10.268  11.452  0.4179 -0.0998 -0.3658
21085W        W36894  15.474  14.100   1.670  0.2257 -0.2473  0.2394
21086W        W36895   0.996  10.981  14.742  0.3830  0.0343 -0.1024
21087W        W36896   0.282   8.647   2.985  0.0216 -0.0964 -0.0002
21088W        W36897   9.308  11.735  12.871 -0.1404 -0.2437  0.0327
21089W        W36898   4.457   7.603   1.278 -0.2165  0.0272 -0.1497
21090W        W36899   8.497  11.397   0.764 -0.0387  0.0599 -0.1085
21091W        W36900   9.819   6.076   5.304  0.2964 -0.0275 -0.2340
21092W        W36901   0.181  18.485   0.754  0.5254  0.1960 -0.3123
21093W        W36902  16.187   3.128  13.760  0.0432 -0.1500 -0.2812
21094W        W36903   9.726  10.370  14.099  0.1673  0.0291 -0.1671
21095W        W36904  16.297   9.741  13.390  0.0667 -0.5273 -0.1311
21096W        W36905  17.579  10.205  11.812  0.0674  0.3518  0.2171
21097W        W36906   0.402   0.795  14.912 -0.3421  0.1998 -0.1440
21098W        W36907   9.832   9.294   3.126 -0.0710 -0.0998  0.1538
21099W        W36908  10.791  11.252   5.599 -0.1015 -0.0930 -0.4015
21100W        W36909   5.400   0.800   3.991 -0.2368 -0.1205 -0.4580
21101W        W36910  18.625  17.698  12.257  0.1906  0.1763 -0.1491
21102W        W36911   6.558   6.257   4.985 -0.0762  0.4950  0.2322
21103W        W36912   0.056  12.393  13.873  0.0909 -0.1070 -0.0789
21104W        W36913   4.218  13.447   1.845  0.1092  0.3170 -0.1293
21105W        W36914  15.391   1.839   4.002 -0.0500 -0.1552 -0.0613
21106W        W36915   8.319   4.236   3.352  0.0373 -0.1265 -0.1797
21107W        W36916  17.649  16.130  10.956  0.1481  0.1137 -0.3389
21108W        W36917   3.617   7.233  15.037  0.1079 -0.0932 -0.0848
21109W        W36918  14.037   1.065   2.415  0.0999  0.5024 -0.0419
21110W        W36919  16.711  12.513   0.334  0.0096 -0.0154 -0.1694
21111W        W36920   9.198   2.704  14.976  0.0500 -0.0600  0.0280
21112W        W36921   4.883  16.133  11.696  0.1886  0.1535  0.0432
21113W        W36922  17.970  16.366  13.726  0.0471  0.2658  0.4757
21114W        W36923  18.150  11.195  14.506 -0.2620 -0.4147 -0.0173
21115W        W36924   6.316  14.318   2.845 -0.1649  0.1274 -0.0579
21116W        W36925  16.530   4.683   3.944  0.0645  0.1289 -0.0894
21117W        W36926   6.453   6.318  12.230  0.2265 -0.0690  0.1970
21118W        W36927   6.604  11.195   8.958 -0.3365 -0.1091  0.1807
21119W        W36928   5.022  12.747   5.248 -0.0436 -0.2147  0.1633
21120W        W36929   4.318  12.068   4.865 -0.3120 -0.0890  0.0908
21121W        W36930  10.661  11.517  14.695 -0.0539  0.1853 -0.0011
21122W        W36931   2.975   5.664   0.719 -0.2275  0.2230 -0.1747
21123W        W36932   4.275  18.538   4.481  0.0100 -0.0952  0.3187
21124W        W36933   1.022   7.979   3.164  0.0385  0.0834 -0.0204
21125W        W36934   8.043   5.400   3.228  0.2657 -0.1047  0.0366
21126W        W36935   1.477  19.015   1.528  0.0767  0.0503 -0.1827
21127W        W36936  14.224  12.031  11.789 -0.2102  0.0789  0.2437
21128W        W36937  10.930  11.203   3.563 -0.1005 -0.2063 -0.1043
21129W        W36938  11.173   0.906   3.166 -0.0725  0.0826 -0.4864
21130W        W36939  16.937  13.010   1.900 -0.2728  0.2059  0.1374
21131W        W36940   3.363   6.483  10.545 -0.2896  0.2075  0.1740
21132W        W36941  10.183   1.214  10.639  0.0947 -0.0617 -0.0786
21133W        W36942   4.281  10.121  14.499 -0.2902  0.0417  0.0560
21134W        W36943   1.286  15.756   2.234 -0.0098 -0.0864 -0.0858
21135W        W36944   1.250  15.105   3.030 -0.2007 -0.1141 -0.1220
21136W        W36945   3.937  11.831   4.561  0.3891 -0.3091  0.1506
21137W        W36946  14.998  15.115   4.113 -0.0861 -0.1113 -0.0250
21138W        W36947   5.566  14.339  10.340  0.0788  0.1066 -0.0060
21139W        W36948  15.790   7.680  13.661  0.0008  0.0189  0.1885
21140W        W36949   5.836  14.771  13.515  0.0862  0.0930  0.0241
21141W        W36950   7.173  13.549   1.338 -0.2059  0.2336 -0.0719
21142W        W36951   2.664  11.380   2.019  0.3362 -0.0072  0.1167
21143W        W36952  14.476  18.107   0.023 -0.0360 -0.0826 -0.1821
21144W        W36953   2.719   5.068   4.352  0.1882 -0.1780  0.0849
21145W        W36954   1.110   5.160   3.788 -0.1934  0.0655 -0.0349
21146W        W36955  18.381  11.271  13.417 -0.1601 -0.0982 -0.0157
21147W        W36956   7.672  14.898   2.855  0.0843 -0.0039 -0.2958
21148W        W36957  14.148   2.156  13.469  0.2426 -0.1138  0.0371
21149W        W36958  10.403   5.466   1.982 -0.3832 -0.1029 -0.3351
21150W        W36959  19.034   2.804  12.415  0.1827  0.0575 -0.2371
21151W        W36960   5.661  10.866  10.258 -0.2187  0.2885 -0.0506
21152W        W36961   1.836  16.821  11.141 -0.1647  0.3682 -0.0705
21153W        W36962   4.157   2.246  10.454  0.1107 -0.3602 -0.3142
21154W        W36963   0.000  12.065  11.250 -0.0723  0.2234 -0.0891
21155W        W36964   8.883   6.212  14.724  0.1525  0.0458  0.1100
21156W        W36965   8.549   6.998  12.531  0.2067  0.0349 -0.0407
21157W        W36966  16.064   3.953  11.626  0.2304 -0.0463  0.1858
21158W        W36967  14.932   6.239  13.968  0.0633 -0.1152 -0.0346
21159W        W36968  11.515  15.959  11.362 -0.0451  0.1054  0.1333
21160W        W36969   5.598  10.458  12.979  0.2538  0.1112  0.1300
21161W        W36970   1.957   1.494   4.546  0.1347 -0.0882 -0.0981
21162W        W36971  10.203   9.201   5.087  0.0486 -0.1383  0.4401
21163W        W36972   6.253  15.125  13.796 -0.2576 -0.0525  0.1637
21164W        W36973   1.689   4.079  10.477 -0.3270 -0.2377  0.4320
21165W        W36974   9.280   4.830  10.952  0.0821  0.0642 -0.1233
21166W        W36975   4.159  15.761  10.231  0.2692 -0.1220  0.0034
21167W        W36976  14.685  14.963   5.891 -0.2350 -0.1868 -0.1086
21168W        W36977  12.121  10.656   2.038  0.0190 -0.1259 -0.2152
21169W        W36978  11.097   6.985   5.481 -0.0557 -0.2037 -0.0173
21170W        W36979  10.774   9.087   0.008 -0.1035 -0.2663  0.1405
21171W        W36980   3.930  10.269   0.210 -0.3398  0.3823  0.2806
21172W        W36981  13.999   2.042   3.907  0.1076  0.2301  0.2722
21173W        W36982   0.495   1.533  12.049 -0.1495 -0.3024  0.1188
21174W        W36983  16.050  16.692   1.856 -0.2553 -0.1964  0.0353
21175W        W36984  12.794  13.299   4.984  0.0180  0.0319  0.1880
21176W        W36985  13.844   0.115   3.010 -0.0048  0.0215 -0.0183
21177W        W36986  13.586  10.175  10.000 -0.0878  0.1264 -0.1290
21178W        W36987   5.538  14.443  14.694 -0.0240 -0.2036  0.0155
21179W        W36988   3.936  17.770   0.721 -0.1655 -0.0948  0.2538
21180W        W36989   3.849  12.901  11.844 -0.0357  0.0212 -0.3031
21181W        W36990   8.612   0.105  11.364  0.2401  0.0789 -0.3296
21182W        W36991  14.042   6.601   0.789 -0.0496  0.1414  0.0600
21183W        W36992   1.718   1.759  11.473  0.0691 -0.2702 -0.0800
21184W        W36993  15.576  12.291   4.036  0.4210 -0.3048 -0.2571
21185W        W36994  17.331  17.627   1.494 -0.0342  0.1641  0.0178
21186W        W36995   5.659   3.711  13.492  0.0582 -0.2793  0.0889
21187W        W36996   9.893   0.353   0.491  0.1878 -0.1848  0.0003
21188W        W36997  12.349   4.591   2.362 -0.1655  0.0484 -0.0956
21189W        W36998   4.378  18.044   4.406 -0.0815  0.1596  0.1756
21190W        W36999   7.183  16.791  11.369  0.1490 -0.3684  0.0018
21191W        W37000   3.247  16.202  14.372  0.0084  0.1004 -0.2650
21192W        W37001   0.565  17.184   2.227 -0.2196  0.0236  0.1088
21193W        W37002  18.534   8.086   2.978 -0.2415  0.1784  0.2090
21194W        W37003  14.103   0.348   2.335  0.0269 -0.0596 -0.0214
21195W        W37004   2.246   4.747   1.194 -0.0505 -0.2167  0.1496
21196W        W37005   0.414   2.734  14.229 -0.4226  0.1037 -0.0167
21197W        W37006  18.165   0.407  12.250 -0.3203 -0.4081 -0.2642
21198W        W37007   6.774  18.085  11.591  0.1638  0.1125  0.0140
21199W        W37008   9.453   0.310   3.046 -0.0828  0.4108 -0.2393
21200W        W37009  12.249  14.970   4.248  0.1825  0.1541 -0.0306
21201W        W37010   5.487   9.438   1.302 -0.1302  0.1415  0.0206
21202W        W37011  17.487   9.112  11.465 -0.2896  0.1445 -0.2444
21203W        W37012   4.552  16.291   2.081 -0.0336  0.3659 -0.0737
21204W        W37013   5.896   0.082   1.813 -0.0756 -0.3130 -0.0452
21205W        W37014  18.295  17.989   4.089  0.0552 -0.1380 -0.0445
21206W        W37015  11.814   6.065   3.185 -0.0887  0.2746  0.0819
21207W        W37016   0.315  16.032  10.922  0.0050 -0.0788  0.2357
21208W        W37017   8.519  15.808   4.272 -0.2664 -0.1647 -0.1780
21209W        W37018   4.733   8.183   3.503  0.0892  0.0258 -0.2791
21210W        W37019   8.368   3.568   1.671  0.1412  0.1371  0.1294
21211W        W37020  14.027   7.810   2.325  0.1085  0.2613  0.1668
21212W        W37021  12.255   7.674  11.768 -0.2716  0.3173  0.4051
21213W        W37022  10.938  17.217  11.355  0.1770 -0.0527  0.0307
21214W        W37023  14.142   1.501   0.026 -0.3669  0.1475 -0.0789
21215W        W37024  14.586   8.581   3.726 -0.1361 -0.0824 -0.2557
21216W        W37025  18.414  11.398   4.351 -0.0392 -0.2185 -0.0576
21217W        W37026  14.126   5.197  13.262 -0.0842 -0.2103  0.0009
21218W        W37027  17.969   4.481   4.702  0.0501 -0.0255 -0.0131
21219W        W37028   8.863   9.403  14.261 -0.1003 -0.0611 -0.0025
21220W        W37029  14.917  15.730  15.032 -0.0768 -0.2227  0.1871
21221W        W37030  12.109  16.394   5.312  0.1182 -0.3049 -0.1204
21222W        W37031  17.535  12.693  12.417 -0.1522  0.2241  0.2458
21223W        W37032  18.145  13.877   4.565 -0.0858  0.1402 -0.0542
21224W        W37033   1.953   7.369  11.922 -0.1818 -0.1689 -0.0082
21225W        W37034  18.761   8.898  13.852 -0.0195  0.0641 -0.0180
21226W        W37035  15.349   9.705  10.742  0.1229  0.2392 -0.5445
21227W        W37036  10.255   0.474  12.211 -0.1595  0.1650  0.1231
21228W        W37037  17.402  12.060   1.367 -0.0852  0.0095 -0.0336
21229W        W37038   0.489   5.751   4.579 -0.0296 -0.0855  0.3190
21230W        W37039  10.314  17.819   1.519  0.1749  0.0650  0.0123
21231W        W37040  16.571  13.988  11.660  0.1756 -0.0176 -0.2353
21232W        W37041   8.726  11.534   9.991 -0.4896 -0.0884  0.2129
21233W        W37042   5.690   4.069  11.082  0.3155  0.2723 -0.1958
21234W        W37043   1.195  12.837   0.700  0.2673  0.0943 -0.1109
21235W        W37044  12.674   8.328   4.259 -0.1625 -0.4133 -0.0005
21236W        W37045   2.009   4.816   3.055 -0.2016  0.0694  0.3112
21237W        W37046  12.146  14.207   3.509  0.2074  0.1759 -0.1697
21238W        W37047  14.852   7.157   3.730  0.0299 -0.0622 -0.1158
21239W        W37048   7.551   8.683  13.606  0.1961  0.1979 -0.1451
21240W        W37049   5.979  12.298  10.854  0.1324  0.1664 -0.3289
21241W        W37050   3.523  12.808  12.179 -0.1981  0.2419 -0.1338
21242W        W37051   5.738  12.490  14.057  0.0925  0.1773  0.0882
21243W        W37052   5.141   1.425  12.277  0.1145  0.0468  0.0197
21244W        W37053  18.716  16.800  13.136 -0.0267 -0.3198  0.0894
21245W        W37054   4.532  15.332   2.804  0.0261  0.1994  0.0152
21246W        W37055   8.142  14.036   2.187 -0.0637 -0.1581 -0.0855
21247W        W37056  18.423   9.442   5.161  0.1903  0.0118  0.0770
21248W        W37057  14.848  15.179  13.289 -0.4456 -0.2170  0.0423
21249W        W37058   4.631  14.062  11.913  0.1762 -0.0140  0.1911
21250W        W37059  13.561   2.556  12.957  0.0354 -0.2755  0.0829
21251W        W37060   3.255   5.792  10.317  0.0484 -0.1371  0.1623
21252W        W37061   6.370  17.693   3.976  0.2016  0.2885  0.0505
21253W        W37062   0.553   4.412  14.399  0.3718  0.0682  0.5233
21254W        W37063   5.495   9.223   1.738 -0.1483  0.2784  0.0285
21255W        W37064  18.274  10.015  13.380 -0.0513  0.3015 -0.1171
21256W        W37065  14.539   6.892  13.670  0.0422 -0.2313 -0.0438
21257W        W37066  15.377   7.399   1.312  0.0180 -0.2390 -0.1816
21258W        W37067  17.275   9.643   4.046  0.1065 -0.1316 -0.0685
21259W        W37068   5.270  10.666   2.727  0.1728 -0.2112  0.0375
21260W        W37069  17.104   6.297   0.781 -0.1041 -0.2506 -0.2002
21261W        W37070  10.372   9.616   0.603  0.3151 -0.1363  0.1407
21262W        W37071  18.396   0.379   4.088 -0.3139 -0.0849 -0.0146
21263W        W37072  17.283   7.057   4.813  0.1667 -0.0051 -0.1394
21264W        W37073  12.466  16.862  14.265 -0.1340 -0.2876 -0.3231
21265W        W37074   0.162  18.736   2.402 -0.2023 -0.0739  0.0594
21266W        W37075  15.768   9.829  10.527 -0.0308 -0.1201 -0.0560
21267W        W37076   3.370  12.875   2.465  0.3881  0.0982 -0.0878
21268W        W37077   8.318   4.116  12.285 -0.2086  0.0606  0.1315
21269W        W37078   2.570  15.835   0.910 -0.0666  0.0293  0.0126
21270W        W37079  11.529  14.823   1.942  0.3532  0.2282  0.1999
21271W        W37080  15.151   5.807   3.530  0.2221 -0.3225 -0.2737
21272W        W37081  13.914   7.028  11.717 -0.0197 -0.0584 -0.4315
21273W        W37082   5.958   2.127  12.499 -0.1007  0.1481 -0.0545
21274W        W37083   9.794  17.724  11.244 -0.1503 -0.0721 -0.1472
21275W        W37084   3.970   7.794  13.467 -0.0025  0.3062  0.2298
21276W        W37085   8.675  17.084   2.453 -0.2987 -0.1036  0.1051
21277W        W37086  11.324   3.630   4.227  0.2965 -0.1099 -0.0943
21278W        W37087   8.853  14.413   1.115  0.1485 -0.2183 -0.1459
21279W        W37088   9.769  17.102   0.006 -0.1467  0.2705 -0.1288
21280W        W37089   0.630  16.158  12.076 -0.1662  0.2309  0.2589
21281W        W37090  17.433   4.267   2.401  0.0538  0.0253  0.0747
21282W        W37091   2.526  15.344  11.172 -0.4167  0.0995  0.3165
21283W        W37092   4.258   5.644  13.143 -0.1678  0.1023 -0.1395
21284W        W37093  15.360   5.868  12.993  0.2239  0.0130  0.1455
21285W        W37094   0.786   4.643   0.055 -0.2822 -0.2981 -0.1469
21286W        W37095  15.820   1.719   5.054 -0.0883 -0.0628  0.1546
21287W        W37096  15.936   1.384   4.664  0.2540 -0.2138  0.1321
21288W        W37097  16.883  13.834  12.674 -0.0738 -0.3655 -0.0832
21289W        W37098   7.407   5.986   4.505 -0.0494  0.1611 -0.1965
21290W        W37099   0.395   4.968  14.656 -0.2785  0.0501  0.4688
21291W        W37100  16.184  16.284   1.701 -0.2924  0.3290  0.1203
21292W        W37101   2.192   7.866  10.355  0.1179 -0.1399 -0.2552
21293W        W37102   7.937   0.694  15.210 -0.3661  0.0482  0.0109
21294W        W37103   5.760  14.263   3.308 -0.4045 -0.1728  0.1269
21295W        W37104  10.574  17.842   3.610  0.2911 -0.0682 -0.1953
21296W        W37105  13.015  13.488  13.357 -0.4049  0.2634 -0.0042
21297W        W37106   3.095  15.309  12.788  0.0699  0.2904  0.1544
21298W        W37107  12.160  15.293   5.130 -0.3216 -0.0110  0.1211
21299W        W37108  11.130  12.962  11.289 -0.0483  0.2332  0.0593
21300W        W37109   5.043   9.154  12.157 -0.0037 -0.3025 -0.0674
21301W        W37110   1.984  14.233  13.676  0.1131 -0.2496 -0.1750
21302W        W37111   6.144  14.742   3.169 -0.1652  0.2831  0.1942
21303W        W37112   5.996   5.218   0.783  0.0382 -0.4130 -0.0390
21304W        W37113  13.513   0.908  14.653  0.1825 -0.1076 -0.4284
21305W        W37114   4.936   0.440  14.586 -0.2318  0.0359  0.1985
21306W        W37115  16.272  15.945  14.671 -0.1538 -0.2010  0.1087
21307W        W37116   7.616   0.442   1.282 -0.0270 -0.2997 -0.2669
21308W        W37117   8.370  15.359   1.312 -0.0249  0.0544  0.1250
21309W        W37118  18.903   2.245   4.790 -0.0009  0.0338  0.1729
21310W        W37119   0.501  18.162  12.287  0.0174  0.1734  0.3188
21311W        W37120   8.842  13.676  14.189  0.0020  0.0195 -0.0191
21312W        W37121   9.148  17.903   2.067  0.1655  0.0236  0.2855
21313W        W37122   0.067   3.141   4.674 -0.0642  0.0849 -0.0798
21314W        W37123  12.827   2.855  15.157  0.2013  0.1320  0.0598
21315W        W37124  17.825   1.682   4.485 -0.0406  0.1569 -0.2193
21316W        W37125  17.395   7.043  11.307  0.0424 -0.0248  0.3060
21317W        W37126   8.774  10.673   3.088  0.0841 -0.0062 -0.1842
21318W        W37127   5.751  11.154  13.054  0.0769  0.3212  0.0586
21319W        W37128  14.480   7.201   2.966  0.1850  0.1235  0.0681
21320W        W37129  10.420  10.978  11.411  0.1822 -0.1248 -0.2645
21321W        W37130  13.209  12.516  14.791 -0.1234  0.2271 -0.1381
21322W        W37131  16.702   0.202   3.142 -0.1605  0.0296 -0.0242
21323W        W37132  15.496   9.426   3.679 -0.0707  0.1068  0.4967
21324W        W37133   7.018  12.006  12.563  0.2368 -0.0340 -0.1148
21325W        W37134  12.066   4.677   3.522 -0.0457  0.3051  0.0027
21326W        W37135  12.527  10.887   2.004  0.1371 -0.1563  0.0643
21327W        W37136  16.377   5.924   2.936 -0.1684  0.0250  0.0459
21328W        W37137   3.839   9.038  12.224  0.2392 -0.0528 -0.1814
21329W        W37138   1.701  15.321   3.973  0.0136  0.0191 -0.1747
21330W        W37139  12.882  11.448  14.534  0.0305 -0.0849 -0.0641
21331W        W37140  17.161   5.648   0.271 -0.2350 -0.0176  0.0437
21332W        W37141   2.496  17.964   4.483 -0.4161  0.0438  0.0564
21333W        W37142   1.468   5.323  15.157  0.1512 -0.1407 -0.1416
21334W        W37143  12.453  14.621  15.047  0.0576 -0.1804  0.0825
21335W        W37144  16.189   1.422  15.209  0.1981  0.2432 -0.0926
21336W        W37145  17.323   0.816  11.107 -0.0614  0.0725  0.2080
21337W        W37146  11.998   5.595  14.089 -0.4194 -0.2688 -0.3072
21338W        W37147  12.108  10.507  13.323 -0.1623 -0.2388  0.2455
21339W        W37148  11.123   9.893   2.734 -0.1445  0.1463  0.0777
21340W        W37149  11.852  17.408   3.747  0.1449  0.1921 -0.1433
21341W        W37150   9.091  12.238   9.963 -0.2482 -0.2363 -0.0165
21342W        W37151  13.037  11.019   4.098  0.4051 -0.0256  0.0930
21343W        W37152  16.406   0.870  12.358 -0.0089 -0.0770  0.0382
21344W        W37153  15.664   5.148   3.616  0.1558 -0.0125 -0.1460
21345W        W37154  12.822  14.655   5.197  0.0603  0.0260 -0.1681
21346W        W37155  14.909  11.107  14.541  0.2239  0.1821 -0.3522
21347W        W37156  13.117   4.007  14.274  0.1417 -0.0577 -0.0909
21348W        W37157   0.139   1.452   2.184 -0.0870 -0.2158  0.3614
21349W        W37158   0.112   1.099   3.517 -0.0039  0.3505  0.1105
21350W        W37159   1.112   4.796  12.479 -0.0000  0.2898 -0.0982
21351W        W37160   3.630   7.062   2.093  0.2035  0.2687 -0.0238
21352W        W37161  12.927  15.948  12.209 -0.1471  0.1492 -0.1304
21353W        W37162   9.579   4.894   3.249  0.0504 -0.1487 -0.1476
21354W        W37163  13.961   2.867  14.622  0.0779  0.1111  0.0828
21355W        W37164   2.344   4.870  11.482  0.2923  0.1837 -0.1606
21356W        W37165  19.022  16.889   4.176 -0.2696 -0.0118  0.0380
21357W        W37166  18.098   0.447   2.045 -0.1102  0.3186  0.2387
21358W        W37167   5.266  14.765  10.394  0.2333 -0.2263  0.2050
21359W        W37168  10.333   0.776   4.164  0.1627  0.1633  0.0054
21360W        W37169   3.838   0.329  11.831 -0.1647 -0.0098  0.1827
21361W        W37170  10.621   7.743   1.427 -0.0155 -0.1734 -0.1471
21362W        W37171   2.993   8.088  14.484 -0.3763  0.1962 -0.0576
21363W        W37172   7.342   4.930   3.701  0.1398 -0.1066 -0.1876
21364W        W37173  17.332   1.002   1.762  0.0210 -0.0521  0.0429
21365W        W37174   8.052  14.680  14.414 -0.0482 -0.0916  0.3594
21366W        W37175  13.993   2.420  14.262  0.0552 -0.0035  0.1853
21367W        W37176  10.288   1.109   0.586  0.2349  0.2105 -0.1188
21368W        W37177   9.873   6.589  12.229  0.0488 -0.0051  0.1970
21369W        W37178  14.801   7.382   1.556 -0.0422  0.4839  0.1305
21370W        W37179  14.791   8.001   2.291 -0.0580  0.2186 -0.0973
21371W        W37180   6.031   2.793  10.624 -0.0754  0.0007 -0.4191
21372W        W37181  10.765  18.844   5.448  0.3177  0.1111 -0.1500
21373W        W37182   9.466   7.330  14.861  0.0829  0.0102  0.3523
21374W        W37183  16.329   8.823   2.850 -0.1786  0.1813  0.0191
21375W        W37184  18.497  18.162  12.756  0.1654  0.2937 -0.1584
21376W        W37185  17.954  16.057   1.614  0.4157 -0.1022  0.0551
21377W        W37186  13.776   0.474   0.758 -0.2538  0.0090  0.0338
21378W        W37187  13.800  14.576   2.241 -0.1147 -0.0503  0.1168
21379W        W37188  12.256   9.854  14.971 -0.1143  0.1532  0.2984
21380W        W37189   9.293  16.060  11.493  0.0379 -0.0837  0.1840
21381W        W37190   9.955   7.052  13.925  0.1980  0.0423  0.0001
21382W        W37191  13.845   6.264  11.176  0.1056  0.0634  0.1930
21383W        W37192   6.525   4.724   4.498  0.1585 -0.2289 -0.1301
21384W        W37193  11.342   0.042  13.075 -0.1625 -0.0802 -0.0952
21385W        W37194   8.584   6.715  11.450  0.1636  0.3458  0.0940
21386W        W37195   4.603   4.466  11.365  0.0251  0.1675 -0.4028
21387W        W37196   4.252  12.038  11.772 -0.0800  0.0497  0.0024
21388W        W37197   7.280  16.507  13.272 -0.0478  0.2447 -0.1090
21389W        W37198   9.115   8.794  11.964 -0.0911 -0.0779  0.0548
21390W        W37199  13.895   2.145   4.393 -0.2281  0.3344  0.3453
21391W        W37200   1.834  17.373   5.283  0.1992  0.0946 -0.0423
21392W        W37201   0.372  14.671  11.365  0.0725  0.2839  0.0646
21393W        W37202  13.008   9.160   1.096  0.0943  0.1748 -0.0094
21394W        W37203   2.833  14.037  11.650  0.0903  0.1031 -0.3900
21395W        W37204  18.483  16.706  14.497  0.1232 -0.0709 -0.2402
21396W        W37205   9.420  15.143  12.963 -0.0823 -0.1156 -0.0813
21397W        W37206  16.752   1.120  14.468  0.1399 -0.1952 -0.1454
21398W        W37207   5.887  17.994  11.228  0.0722 -0.3957  0.0312
21399W        W37208  12.710  17.201   2.426  0.0507  0.1495  0.2893
21400W        W37209   8.811   7.787   2.971 -0.1678 -0.0407 -0.1975
21401W        W37210   2.614   6.634   9.497 -0.2382  0.5718  0.0883
21402W        W37211  11.242  10.692  13.676  0.0094 -0.3072  0.1596
21403W        W37212   8.516  10.993  11.869  0.1081 -0.0713  0.1466
21404W        W37213   5.792   6.121   0.359  0.2984 -0.2477  0.2605
21405W        W37214   5.125  12.845  14.641 -0.0240  0.0969  0.3190
21406W        W37215  14.375  12.028  11.201 -0.1520 -0.1200 -0.2744
21407W        W37216  16.638  17.143   1.222 -0.1936 -0.1739  0.0075
21408W        W37217  12.177  18.894   1.122  0.0552 -0.1289 -0.2468
21409W        W37218  18.523  11.229  12.880  0.1234  0.1929 -0.1647
21410W        W37219  18.233   9.101  14.038 -0.2480 -0.3188  0.2320
21411W        W37220   5.039  16.264  13.129 -0.0322  0.1420 -0.0567
21412W        W37221   4.761   2.813   0.324 -0.1713 -0.1095 -0.1364
21413W        W37222  15.517   4.839   1.261 -0.1653 -0.0813  0.0509
21414W        W37223  12.100  13.512  12.186  0.3115  0.1547 -0.1832
21415W        W37224  16.291  13.234  12.065 -0.1439  0.1473  0.0918
21416W        W37225  13.732  11.016   9.886  0.2315  0.0654 -0.0411
21417W        W37226   0.729   3.748   1.462  0.4497 -0.1303 -0.4309
21418W        W37227  18.081  17.038  14.554  0.0333  0.3237  0.3049
21419W        W37228   7.124   0.096  13.001 -0.0797  0.1716 -0.2520
21420W        W37229   3.344  14.688   0.469 -0.0157 -0.1148  0.1631
21421W        W37230   5.965   4.032  13.867 -0.1450  0.0105  0.0621
21422W        W37231  11.988   3.991   5.741  0.2443  0.0811 -0.0551
21423W        W37232  13.230  13.275  13.785 -0.0695  0.1377 -0.2837
21424W        W37233   2.781  13.893  14.289  0.2019 -0.1382  0.4120
21425W        W37234  11.489  17.357   0.185  0.1357 -0.0450  0.0823
21426W        W37235   6.832  15.038  10.419  0.1857 -0.3134  0.4831
21427W        W37236  17.877   8.821  11.519 -0.0185 -0.2867 -0.0744
21428W        W37237  16.445   3.130  10.382 -0.0531  0.0577  0.3859
21429W        W37238  12.873  16.684   2.189  0.1366 -0.1695  0.1320
21430W        W37239   5.511   3.198   2.495 -0.3420  0.1354 -0.0180
21431W        W37240   1.232   6.361  14.940  0.1830 -0.2008 -0.1663
21432W        W37241   7.651  14.273   2.118 -0.4777  0.2676  0.2847
21433W        W37242  18.473  18.858   5.810 -0.0515 -0.0505  0.1212
21434W        W37243   1.105   9.130  15.097 -0.1491  0.0101 -0.1175
21435W        W37244   4.993   7.482   4.964  0.1256  0.0626  0.0713
21436W        W37245   1.647  10.964   3.442  0.0338  0.1791  0.2782
21437W        W37246   5.294   7.073   1.893 -0.4615 -0.2435 -0.0441
21438W        W37247   4.597  14.887  13.127 -0.3326  0.3025 -0.0206
21439W        W37248  11.954  18.236   3.587  0.2099 -0.1853  0.1507
21440W        W37249   2.675  11.338   2.826 -0.1796  0.0293  0.0615
21441W        W37250  10.412   6.644  10.369  0.2502  0.1336 -0.1919
21442W        W37251  12.510  18.495   0.311  0.2051 -0.1324  0.0963
21443W        W37252   5.545   3.917   3.279  0.1003  0.1313 -0.0346
21444W        W37253  16.615  14.923  14.321 -0.0386 -0.1431  0.1406
21445W        W37254   0.180  17.294  12.103  0.2362 -0.0639 -0.1247
21446W        W37255   0.479   1.287   3.772 -0.1315 -0.2857 -0.1012
21447W        W37256  16.274   5.572   4.089  0.1210 -0.4656 -0.0726
21448W        W37257   2.131  18.991  14.096  0.0166  0.1467 -0.0357
21449W        W37258   4.100  10.311   0.712 -0.1146 -0.1082 -0.1216
21450W        W37259   4.191  16.347   2.931  0.2176 -0.2070 -0.0035
21451W        W37260  13.167  15.311  11.821 -0.4112 -0.0943  0.1980
21452W        W37261  16.987  18.522  15.230  0.1756  0.0779  0.2320
21453W        W37262  16.623  12.795  15.208 -0.4117 -0.2847  0.1930
21454W        W37263  11.248   1.407   3.333  0.0677 -0.0008  0.2489
21455W        W37264   3.143  16.487   2.256 -0.4004  0.4263  0.0697
21456W        W37265  10.220   4.491  12.255 -0.0432 -0.1955 -0.0592
21457W        W37266  14.072   0.850   3.722  0.1742  0.2918  0.1178
21458W        W37267  16.200  13.638  14.298 -0.1231 -0.4036  0.2946
21459W        W37268   8.178  13.203   4.648 -0.1857 -0.2405  0.1210
21460W        W37269  15.939  12.738   3.867  0.0701 -0.2406 -0.0366
21461W        W37270   9.914   7.383  11.067  0.0739 -0.1026 -0.1235
21462W        W37271  17.858   3.499   0.223 -0.4319 -0.0643 -0.1076
21463W        W37272  15.570   8.680   4.678  0.1308 -0.0905 -0.0888
21464W        W37273  17.958   6.302  14.436 -0.2258 -0.1418  0.1122
21465W        W37274   7.084   8.924  11.078 -0.0702 -0.1177 -0.2206
21466W        W37275  17.692   1.491  12.276  0.2680  0.2731 -0.0786
21467W        W37276   3.369  12.789   0.076 -0.0720 -0.0950  0.1336
21468W        W37277  14.366  18.050   1.636  0.1597  0.2224  0.1844
21469W        W37278  11.595  11.230  12.026  0.0136  0.0405 -0.4233
21470W        W37279   1.065  16.580  13.162  0.0856 -0.0813 -0.1563
21471W        W37280   3.450  12.483  10.245  0.1007  0.1398  0.3004
21472W        W37281   9.427  16.114   1.056  0.1850 -0.0165 -0.3969
21473W        W37282  13.452  10.502   0.939 -0.1413 -0.1021 -0.0026
21474W        W37283   0.769  11.978   2.757 -0.0244  0.3029 -0.1344
21475W        W37284  13.391   8.570  15.208 -0.2606  0.0336  0.1398
21476W        W37285   2.050  16.012  11.660  0.0575  0.0014 -0.0605
21477W        W37286  17.423  14.717   3.977  0.2175  0.1195 -0.2345
21478W        W37287   7.776   8.532  11.498  0.1079  0.0944 -0.1208
21479W        W37288  18.141   1.279   5.341  0.0485  0.1348  0.1224
21480W        W37289  15.781   4.272   2.084  0.2910  0.1160 -0.1704
21481W        W37290   1.988  17.350   4.728 -0.3149  0.2098  0.2460
21482W        W37291   8.304   9.046  12.261  0.1969 -0.2052  0.2484
21483W        W37292   8.442  17.689   3.438 -0.3917  0.1548 -0.2284
21484W        W37293  18.098   0.738  11.871 -0.2368  0.0953 -0.0434
21485W        W37294   3.804   8.483  12.015 -0.1778 -0.0406  0.2425
21486W        W37295  18.950  15.947   1.566 -0.3114  0.0489  0.1659
21487W        W37296  11.868  17.308   4.674  0.0169 -0.1000 -0.0382
21488W        W37297  15.619  16.852  12.918 -0.0113 -0.3374 -0.1014
21489W        W37298  15.502   1.295  12.397 -0.0414  0.0339  0.1804
21490W        W37299   9.005   8.348  12.117  0.0598  0.1324  0.1051
21491W        W37300  12.827   3.874  11.949 -0.2756  0.3397 -0.0171
21492W        W37301   2.577  18.069   0.782  0.0163  0.0880 -0.0879
21493W        W37302  17.873  14.162   2.408 -0.1340 -0.0638  0.2292
21494W        W37303   5.241  13.510   4.876  0.1985 -0.1410  0.2457
21495W        W37304   8.445   6.209  13.384  0.3959  0.1886  0.2517
21496W        W37305   7.712   0.436  14.017 -0.0919 -0.1942 -0.2747
21497W        W37306   6.750   3.295  12.215 -0.0827  0.0186  0.1062
21498W        W37307   2.323  10.022   0.111  0.1559 -0.2927 -0.1142
21499W        W37308   0.027   8.488  11.608  0.1137 -0.1368 -0.1045
21500W        W37309   0.237   6.495  13.295 -0.3902  0.0683  0.0287
21501W        W37310   8.518   0.759   3.074 -0.2863  0.0740  0.0342
21502W        W37311  14.057  13.645   2.049  0.0813  0.4039 -0.1607
21503W        W37312   4.607   5.297   2.394  0.0173  0.2830  0.4008
21504W        W37313   1.515  13.254   2.254  0.3765  0.1646 -0.1204
21505W        W37314   9.188   3.858   5.177 -0.1600 -0.0841 -0.0901
21506W        W37315   9.905   0.683  11.924 -0.1015 -0.2912 -0.0534
21507W        W37316  11.081   8.800  13.395  0.0835 -0.1720 -0.1512
21508W        W37317   9.687  11.011  12.060 -0.1419  0.1078 -0.2265
21509W        W37318   4.696  14.035   1.172  0.1814  0.1183  0.0398
21510W        W37319   7.909  11.728   2.834  0.0447 -0.0584 -0.0335
21511W        W37320  15.321  16.372   3.565  0.0097  0.1324 -0.2528
21512W        W37321  18.230   3.481  10.606  0.2173  0.0352 -0.2795
21513W        W37322  16.343   5.770   2.450 -0.2368 -0.0160 -0.1571
21514W        W37323  16.138  18.313  12.211 -0.0320  0.0357  0.0107
21515W        W37324  14.702   9.321  14.177  0.1916 -0.1517 -0.3298
21516W        W37325  14.951   5.781  12.623 -0.0339  0.5182 -0.0117
21517W        W37326  16.120  16.048  12.547  0.3638 -0.2889  0.3149
21518W        W37327  15.358   2.414   0.036 -0.0522 -0.0270 -0.2997
21519W        W37328  13.858   9.924   0.142 -0.0869  0.3356 -0.1555
21520W        W37329   3.724  16.469  11.216 -0.1333 -0.3002  0.3083
21521W        W37330   1.783  11.010  12.236  0.1835  0.1318 -0.1996
21522W        W37331   1.237  16.952  12.240 -0.3436  0.0578  0.1310
21523W        W37332   1.285   8.987  13.868  0.2413 -0.2781  0.0738
21524W        W37333   4.377   8.510   1.568 -0.1141 -0.0106 -0.2018
21525W        W37334   6.591  16.733  13.862  0.3315 -0.0283  0.1399
21526W        W37335  14.515   1.204   0.798  0.2141 -0.0020  0.0947
21527W        W37336  13.569   0.906   3.251 -0.0160  0.0060 -0.2429
21528W        W37337   0.351   6.072  14.457 -0.0806 -0.1693  0.1195
21529W        W37338   8.393  15.028  11.862  0.1236 -0.0218 -0.1683
21530W        W37339   8.774  15.907  13.909  0.1925 -0.1130 -0.0133
21531W        W37340   9.736   9.697   4.149  0.1126 -0.1645  0.0332
21532W        W37341   7.586  18.931  13.150  0.3432  0.2054 -0.1630
21533W        W37342   7.806  14.158  10.733  0.0958 -0.1613  0.2780
21534W        W37343   5.701   4.635  12.048 -0.3352 -0.1140 -0.2436
21535W        W37344   8.107  11.392  13.719 -0.1826  0.2879 -0.2515
21536W        W37345   8.035  17.272   2.064 -0.0930  0.1670 -0.0871
21537W        W37346  18.459   2.166  12.368 -0.3052  0.1184 -0.2680
21538W        W37347   3.572   3.935   1.187 -0.2960 -0.1244  0.0308
21539W        W37348  15.591   0.298  14.574  0.1205  0.2646  0.2477
21540W        W37349  15.146  11.612  14.627 -0.1000  0.2195  0.2056
21541W        W37350   3.212  18.992   1.933 -0.2726  0.4716  0.0106
21542W        W37351   6.058   3.456  14.049  0.0517 -0.3705  0.3014
21543W        W37352  14.230  11.896   0.124  0.1056 -0.5796  0.1188
21544W        W37353   2.073   3.661   1.643 -0.1747  0.1023  0.2000
21545W        W37354  10.131  10.219  11.540  0.1659  0.3771 -0.1413
21546W        W37355   7.744   5.256   2.748  0.0415  0.1313 -0.2053
21547W        W37356   9.414   3.840  12.405  0.0879 -0.0300  0.2081
21548W        W37357   9.754   5.443   0.094  0.2681  0.0129  0.1615
21549W        W37358   9.972  17.437   4.311 -0.1503 -0.1118 -0.2530
21550W        W37359  12.475  13.323   1.790  0.0242 -0.2298  0.2207
21551W        W37360   1.899   3.259   0.223 -0.1756 -0.1437  0.2885
21552W        W37361  12.633   2.593  11.635 -0.0165  0.6594 -0.0520
21553W        W37362  17.498   3.157   0.287  0.0129  0.2195 -0.1872
21554W        W37363  12.373   3.857   3.249  0.2352 -0.0296 -0.1513
21555W        W37364   9.311   9.592   0.201  0.1681  0.3551  0.3485
21556W        W37365  10.171   3.276  14.480 -0.0261 -0.0250  0.3290
21557W        W37366   6.360   3.497  12.963  0.0825 -0.2205 -0.0184
21558W        W37367   2.147   1.983   1.817  0.2843  0.3390 -0.0674
21559W        W37368   6.524  16.685   4.103 -0.2017 -0.1185 -0.2737
21560W        W37369  10.455  16.582  10.558  0.2549 -0.0189  0.1735
21561W        W37370   6.565   2.774   1.436 -0.0714 -0.4709  0.0307
21562W        W37371   1.456   2.867  14.484  0.0751 -0.1504 -0.2026
21563W        W37372   5.988  16.852   2.897  0.1961 -0.0693 -0.1943
21564W        W37373   7.854   8.049   4.485 -0.0660  0.0753 -0.0876
21565W        W37374   7.711   4.253   1.413  0.1658 -0.0458  0.2534
21566W        W37375   0.099   3.182  10.714  0.0983 -0.0170 -0.0743
21567W        W37376  13.905  17.659  13.075  0.0933 -0.2737  0.0725
21568W        W37377   2.691  13.565   1.652 -0.2171  0.1074 -0.0432
21569W        W37378  14.066   1.731  13.797 -0.2115 -0.0954  0.2813
21570W        W37379  17.203   4.017  15.146 -0.1262 -0.1953  0.0316
21571W        W37380   2.799  11.256   0.699 -0.1341  0.3262 -0.1821
21572W        W37381   7.059  16.486  13.731  0.3274 -0.1707 -0.0269
21573W        W37382  17.696   1.396  13.994  0.0979 -0.1774  0.1453
21574W        W37383   1.325  13.310   3.292  0.1334 -0.2095 -0.1117
21575W        W37384  12.519  13.817   1.913  0.0276 -0.0835 -0.2114
21576W        W37385  16.288  12.724   4.227  0.1239  0.1294  0.1017
21577W        W37386  16.441   1.034   1.972 -0.0383 -0.1356 -0.1087
21578W        W37387  12.975   9.908  14.152  0.1028  0.1928 -0.0852
21579W        W37388   5.931   9.152  14.467 -0.4807  0.1087  0.0391
21580W        W37389   0.264   6.084   5.665 -0.0279  0.0900  0.3523
21581W        W37390   2.045   0.984   2.985  0.2432  0.1224 -0.1171
21582W        W37391   7.808   7.057  10.996  0.1610  0.3201 -0.1575
21583W        W37392   8.734   8.421   5.460 -0.1470 -0.1454 -0.0702
21584W        W37393   0.748   9.327   2.428  0.0649 -0.0165  0.0950
21585W        W37394  10.723  16.943  12.268 -0.0205 -0.0629  0.3252
21586W        W37395   5.659   4.176  13.476 -0.0466 -0.1993  0.0168
21587W        W37396  12.988  16.919  12.242  0.0483  0.0011 -0.0834
21588W        W37397   6.681  13.389   1.508 -0.0667 -0.2452  0.1845
21589W        W37398   7.162   2.948   4.252 -0.0315 -0.0065 -0.3527
21590W        W37399  11.786  16.486   4.725 -0.1564 -0.0102 -0.0786
21591W        W37400   1.449   0.438   1.262  0.1824 -0.1361 -0.2630
21592W        W37401  19.008   5.670  11.509  0.2181 -0.2413  0.0402
21593W        W37402  11.355   9.494   1.772  0.0733 -0.0300 -0.4407
21594W        W37403   2.893   1.472  13.552 -0.1327  0.1658  0.1676
21595W        W37404  18.258   4.049   3.759 -0.1522  0.0407  0.0934
21596W        W37405   4.580   1.212   3.576 -0.0533  0.2165 -0.2743
21597W        W37406   8.726  12.897   1.829  0.2511  0.2605  0.2536
21598W        W37407   2.798  13.130   4.536  0.3394 -0.0963 -0.1501
21599W        W37408  13.414  17.135  12.633  0.2256 -0.0125  0.0662
21600W        W37409   0.939  16.252  13.600  0.1592  0.1436 -0.1009
21601W        W37410   4.183  15.764   4.669 -0.0829  0.2022  0.1206
21602W        W37411  11.585  10.250  13.240 -0.0557  0.4089 -0.2745
21603W        W37412  15.708  11.761   4.219  0.2510 -0.0075  0.0820
21604W        W37413   0.768   3.791   3.701  0.0777 -0.0967 -0.1145
21605W        W37414   2.150   8.198   3.151  0.0153  0.0346  0.0113
21606W        W37415   5.401   9.493  12.030  0.2340  0.0408  0.0993
21607W        W37416  18.767   2.975   4.047 -0.1545  0.3689 -0.2923
21608W        W37417   6.884   5.029   3.347  0.0803  0.3456  0.2275
21609W        W37418  11.340   6.511   5.459 -0.0850 -0.0142 -0.1915
21610W        W37419   9.963   3.019  11.810 -0.2671 -0.2828 -0.1330
21611W        W37420  13.194   5.714  14.567  0.0912 -0.2522  0.1147
21612W        W37421  11.499   9.054   4.774 -0.3989  0.1091 -0.0787
21613W        W37422  14.020  16.406  11.603 -0.1884  0.1576  0.0032
21614W        W37423   3.394   1.314   4.561 -0.0524 -0.0412 -0.1880
21615W        W37424   9.781  17.187   1.611 -0.1391 -0.0159 -0.2954
21616W        W37425  16.655  13.767  10.654 -0.1017 -0.1062 -0.1946
21617W        W37426   3.676  17.662   4.318  0.2567  0.1984 -0.0253
21618W        W37427   5.478   5.240   0.861 -0.0630  0.0707  0.2704
21619W        W37428   1.343   0.925  14.261  0.1028 -0.0883 -0.0797
21620W        W37429  11.111  15.497  11.689 -0.0792 -0.1647 -0.2141
21621W        W37430   4.448  16.798  12.886 -0.1321 -0.2545 -0.1477
21622W        W37431  18.303  18.852   1.085  0.2610  0.2250 -0.5801
21623W        W37432  12.606  14.092   2.794 -0.3725  0.1506  0.1381
21624W        W37433   2.753  11.125   5.056  0.1741  0.0895 -0.1023
21625W        W37434   6.336  16.336  12.239  0.0489 -0.1173 -0.0883
21626W        W37435   7.098   5.269   0.767 -0.0068  0.2141 -0.0966
21627W        W37436   3.791  10.315   4.070 -0.2145  0.0559 -0.1688
21628W        W37437   6.359  10.453   2.162 -0.2702 -0.2069 -0.1167
21629W        W37438   0.415   6.036  15.060 -0.2328 -0.0017 -0.3354
21630W        W37439   4.391   4.792  14.291 -0.1811  0.0806 -0.0367
21631W        W37440   7.866   6.339   0.583 -0.1535  0.0455 -0.1683
21632W        W37441   0.335   9.285  13.305 -0.1749  0.3257  0.1723
21633W        W37442   9.189  12.677   2.097 -0.0020  0.1874  0.1196
21634W        W37443  16.024  16.697   3.342  0.1972 -0.0360  0.1658
21635W        W37444  11.328   5.735   0.969 -0.2883 -0.0067 -0.0047
21636W        W37445   2.453   5.858   0.023  0.1551  0.1699  0.2336
21637W        W37446  12.369   3.870  11.773 -0.0218  0.0536 -0.0964
21638W        W37447  17.252  13.089  14.415  0.2963 -0.1212 -0.5117
21639W        W37448  10.137   3.868   3.395 -0.1503 -0.0613 -0.0430
21640W        W37449   6.748   9.662  13.111 -0.2118  0.1938 -0.2251
21641W        W37450  11.620   2.957   0.425  0.1030  0.3135  0.1110
21642W        W37451   9.290  14.249  11.430  0.0942  0.0640 -0.3883
21643W        W37452   9.252   6.995  15.162  0.2816  0.0302 -0.2246
21644W        W37453   3.793  13.949  15.025  0.1186 -0.1036 -0.0434
21645W        W37454   8.141  11.657  14.527  0.1160  0.1721  0.3215
21646W        W37455   3.248   8.824   2.321  0.1302 -0.0438  0.2190
21647W        W37456  16.005  16.458   5.650 -0.1254 -0.0190 -0.1011
21648W        W37457  13.245  13.438  11.107  0.0266  0.0444  0.0029
21649W        W37458  12.349  17.515  10.909 -0.4026  0.0300  0.2731
21650W        W37459   6.754  10.593  11.127  0.1039 -0.1549 -0.1287
21651W        W37460  17.488   6.729  10.461 -0.0229 -0.0300 -0.1770
21652W        W37461  17.147  13.660  10.667 -0.2517 -0.0350 -0.0836
21653W        W37462   8.388   2.067  11.627  0.2045 -0.2501  0.0162
21654W        W37463   7.350  12.199   0.984 -0.2150  0.0667  0.2989
21655W        W37464  17.223   1.358  13.786 -0.0693 -0.3070 -0.1516
21656W        W37465   0.948  14.897   3.323  0.0422  0.1145  0.2014
21657W        W37466  18.573  13.453  13.456 -0.0904  0.2404 -0.0099
21658W        W37467  12.644   2.754  12.599 -0.2082  0.0316 -0.0368
21659W        W37468  14.370  16.095  14.697  0.2421  0.1591 -0.2543
21660W        W37469  10.496  18.854  13.731 -0.1568  0.1115  0.0102
21661W        W37470  17.872  13.847   3.611  0.1395  0.1299  0.1466
21662W        W37471   7.093   1.222   0.401  0.1019 -0.0106  0.0801
21663W        W37472  14.338  17.656  11.878 -0.0985  0.0139 -0.0091
21664W        W37473   0.264  15.713   1.947 -0.2674  0.0568 -0.0409
21665W        W37474  11.029   9.438   5.439 -0.2739  0.1399 -0.0016
21666W        W37475   7.102   1.744   1.031 -0.1148 -0.4441  0.3788
21667W        W37476   9.670   9.483   0.612 -0.1473  0.2911 -0.0988
21668W        W37477  17.513  13.519   3.531  0.4129 -0.1649  0.1696
21669W        W37478   0.078  18.679  11.079  0.1958 -0.0327  0.1371
21670W        W37479   8.971   7.386  15.133 -0.0314  0.1063 -0.0407
21671W        W37480  17.834   6.875  13.052 -0.0924  0.2159  0.0519
21672W        W37481  10.097   6.611   4.035 -0.1367 -0.0636 -0.0416
21673W        W37482   4.524  10.314  11.093  0.0391  0.0588 -0.0781
21674W        W37483  12.381  14.595  11.671  0.1414 -0.1461  0.1559
21675W        W37484   3.352   3.045  13.541  0.0826  0.1989  0.0859
21676W        W37485   4.400   7.381  11.152 -0.0431 -0.2018 -0.2393
21677W        W37486   3.490  12.782   5.758 -0.0030  0.0475  0.2277
21678W        W37487   0.599  10.970   0.830 -0.1719 -0.2017  0.2447
21679W        W37488   8.742  10.874   4.864  0.0443 -0.0595 -0.1297
21680W        W37489  16.346   2.911   5.311  0.2277 -0.0751  0.1006
21681W        W37490  11.678   5.944   3.715 -0.4530 -0.2134  0.0116
21682W        W37491  15.564  16.026  10.969 -0.1256  0.0170 -0.4435
21683W        W37492   7.898  14.888  12.907 -0.1718  0.0605 -0.1486
21684W        W37493   8.758   7.449   2.476 -0.3819  0.0524 -0.0328
21685W        W37494   0.632  13.021  11.004 -0.1465  0.0870  0.2392
21686W        W37495   2.345  16.634  13.536  0.0102  0.2086 -0.1349
21687W        W37496   8.157   6.854  10.632  0.1183 -0.0874  0.0333
21688W        W37497  14.866  18.296  12.271  0.1738  0.0548 -0.2265
21689W        W37498  12.039  15.369   2.856  0.0112  0.1628 -0.0892
21690W        W37499   6.612   2.592   1.891  0.1612  0.1024 -0.1799
21691W        W37500  15.929  15.735  13.796  0.0804 -0.1612 -0.0080
21692W        W37501  17.358  12.059  14.902  0.1104 -0.2510 -0.1916
21693W        W37502  18.529  17.976  11.035 -0.0712 -0.2335  0.0257
21694W        W37503   4.157  13.617  10.275  0.0860  0.2005 -0.1904
21695W        W37504  11.496   3.819  10.712  0.2688  0.0948 -0.1741
21696W        W37505   5.635  12.955  14.408  0.1221 -0.1013  0.0792
21697W        W37506  16.312  14.673  13.145 -0.1987 -0.0579 -0.4816
21698W        W37507   1.542   3.601  15.277  0.3956  0.3674  0.0411
21699W        W37508  12.606   7.709  13.248  0.1548 -0.0966 -0.2809
21700W        W37509  10.750   9.439  11.614 -0.4312 -0.3155  0.1082
21701W        W37510   9.743  16.597  11.153  0.1993  0.2243 -0.1023
21702W        W37511  13.839   0.133  10.293  0.0669 -0.3684  0.1271
21703W        W37512   5.585   8.573  10.306  0.1111 -0.3219  0.2560
21704W        W37513  12.490   8.785   5.640  0.1143  0.4502 -0.0607
21705W        W37514  15.501   7.682   5.095 -0.3156 -0.2431  0.1313
21706W        W37515  11.308  14.579  11.397 -0.0782 -0.0768  0.0574
21707W        W37516   0.469   1.093   2.356  0.0803 -0.0471  0.1599
21708W        W37517  16.847  10.340   3.009  0.0705  0.0549 -0.1641
21709W        W37518  17.342  18.531   1.834  0.0900 -0.0901 -0.2015
21710W        W37519  18.636   0.784  14.442  0.2801 -0.2719  0.1165
21711W        W37520  16.694  16.210   0.838  0.1160 -0.2271 -0.2209
21712W        W37521  17.979   7.631  10.871  0.1252  0.2625  0.0722
21713W        W37522  18.279  17.274  12.523 -0.1951  0.0582 -0.1272
21714W        W37523   8.846  15.142  11.649  0.0229  0.1462 -0.3955
21715W        W37524  17.126   9.150   4.223  0.2401 -0.1051  0.1968
21716W        W37525   3.960  10.029   1.164 -0.0209  0.0134  0.0516
21717W        W37526  17.227  13.236   0.488 -0.1094 -0.1730 -0.1613
21718W        W37527  11.810  15.350  14.784 -0.1680 -0.4488 -0.0534
21719W        W37528   5.579   2.667  14.551 -0.0520  0.0141  0.3771
21720W        W37529   5.891   7.285  14.338 -0.0208  0.1764 -0.0382
21721W        W37530   4.705   5.682  14.612  0.3797 -0.1055  0.2365
21722W        W37531  17.825   5.475   3.729 -0.1855  0.0295 -0.3653
21723W        W37532   7.633   0.173  10.748  0.0721 -0.1009 -0.1685
21724W        W37533   7.363   8.734  14.333  0.1895 -0.0409  0.1745
21725W        W37534  12.228   5.790  11.308 -0.2115 -0.0542  0.4069
21726W        W37535   2.204  18.367   2.288  0.0841 -0.0489 -0.4600
21727W        W37536  13.185  15.270  13.277 -0.3075 -0.1464  0.0672
21728W        W37537   4.277   6.254  13.456  0.3092  0.3109 -0.0163
21729W        W37538   0.623   0.352  13.419  0.0125 -0.0806 -0.0951
21730W        W37539  15.952   8.036  15.229  0.0874  0.1948 -0.0220
21731W        W37540  11.952  14.349  13.965 -0.1594 -0.4206  0.3217
21732W        W37541   6.961  17.233  11.458 -0.0974 -0.2552 -0.2858
21733W        W37542   0.993   9.576  15.241 -0.3382  0.0221 -0.2665
21734W        W37543   9.181  18.802   4.410 -0.2992 -0.1201 -0.1253
21735W        W37544   4.042  13.295  13.704 -0.2295  0.3711  0.1676
21736W        W37545   1.618   9.999   1.482  0.0551  0.0742 -0.1149
21737W        W37546   5.022   5.488   3.185 -0.0288  0.0742  0.1262
21738W        W37547  11.066   8.063  10.836 -0.0614 -0.1136 -0.0332
21739W        W37548  12.488  13.794   0.168 -0.1372 -0.2904  0.0916
21740W        W37549   4.257   3.351  10.191 -0.0291 -0.0229 -0.0720
21741W        W37550   1.103   7.417  11.186  0.0382 -0.0649 -0.1935
21742W        W37551   1.193  10.604   4.123  0.1230 -0.0170 -0.0269
21743W        W37552  15.361  12.250  12.784  0.2537 -0.2143 -0.1549
21744W        W37553  17.477  11.415   0.633  0.1476 -0.0568 -0.1892
21745W        W37554  10.721   5.832  11.750  0.1165 -0.1034 -0.0803
21746W        W37555  14.264   4.612  14.959  0.0591 -0.1233  0.3100
21747W        W37556  13.544  14.766   1.263  0.2512 -0.1656  0.2473
21748W        W37557  17.839  15.538  14.238 -0.1162 -0.2858  0.0198
21749W        W37558  14.281   3.906  13.765  0.2050 -0.0708  0.0731
21750W        W37559   2.329   2.781  14.973  0.0346  0.0699  0.0835
21751W        W37560  16.080  13.913  11.492  0.1494  0.2454 -0.2526
21752W        W37561  18.981  17.540  14.015  0.1604 -0.2257  0.4625
21753W        W37562   8.890  17.184   2.955 -0.1752 -0.0647  0.0317
21754W        W37563  15.848  14.999   4.412  0.3002  0.1214  0.0950
21755W        W37564   4.817  11.660   0.617  0.0547 -0.1705  0.0771
21756W        W37565  11.928  14.112  12.935 -0.2343 -0.2763 -0.1517
21757W        W37566  10.987  11.893  11.881  0.1616 -0.0797  0.1364
21758W        W37567   6.061  11.633   1.197  0.3226  0.0455  0.2086
21759W        W37568  11.936   0.806  10.284  0.1382 -0.0566 -0.0779
21760W        W37569  12.687   5.140  12.845  0.0985  0.1493  0.3396
21761W        W37570  16.125  13.971  10.942  0.1453 -0.2314 -0.0637
21762W        W37571   2.088  11.841  12.667 -0.2197  0.0873  0.1848
21763W        W37572   2.167   3.716  13.688 -0.0770 -0.1251 -0.0267
21764W        W37573   3.782  11.640   2.950 -0.0073  0.2380  0.0313
21765W        W37574  17.227   2.691  13.123  0.1780 -0.0127  0.3273
21766W        W37575   8.241   8.089   3.141 -0.0444 -0.1218 -0.0198
21767W        W37576   7.298  15.318  11.215  0.0078  0.1866 -0.2071
21768W        W37577  16.414  18.697   4.525 -0.0375 -0.1767  0.0884
21769W        W37578   6.893   4.793   3.806  0.2270  0.0136 -0.2235
21770W        W37579  16.286   2.107   0.966 -0.0493  0.1866  0.1497
21771W        W37580   9.330   1.354  14.016  0.0859 -0.1133 -0.1325
21772W        W37581  13.469   5.398   5.008  0.5630 -0.0688 -0.0896
21773W        W37582   4.298   1.415  13.758 -0.0486  0.1478  0.2996
21774W        W37583  18.689  18.869   4.172 -0.1859 -0.0442 -0.1201
21775W        W37584   2.125  12.039   3.158  0.0087 -0.1315 -0.0451
21776W        W37585  15.801  15.685   4.683 -0.0290 -0.2204 -0.2261
21777W        W37586  16.241   0.454  13.356 -0.1547  0.0666  0.2003
21778W        W37587  15.348  14.535  10.932  0.1206  0.0422  0.1768
21779W        W37588  13.757   4.873   3.526  0.0068  0.0122  0.1876
21780W        W37589  13.345  11.182   4.462 -0.3417 -0.0675  0.0633
21781W        W37590   8.931   5.822   3.103  0.1829 -0.0078  0.3135
21782W        W37591  18.848  15.654   2.959  0.2384 -0.1475 -0.0986
21783W        W37592   3.615  12.288  11.968 -0.0823 -0.4977 -0.1361
21784W        W37593  12.167  18.452   3.980  0.0932  0.2714 -0.0286
21785W        W37594  17.791   4.719  12.448 -0.1260 -0.0431 -0.3974
21786W        W37595  10.265  12.351   4.357 -0.1304 -0.0171 -0.2230
21787W        W37596  14.657  17.021  14.179 -0.0275  0.1979  0.0248
21788W        W37597  10.399   5.594   3.449  0.1926  0.0454  0.0132
21789W        W37598   8.492   5.864   0.787  0.0706  0.0692 -0.1879
21790W        W37599   3.471   5.272   3.809 -0.0636 -0.1535  0.4153
21791W        W37600   9.046   4.088   1.559  0.0398 -0.0590 -0.0755
21792W        W37601   5.147  17.964   3.457 -0.2750 -0.1045 -0.2798
21793W        W37602   8.127  16.954   0.958 -0.1810 -0.1372 -0.2711
21794W        W37603  10.891   5.662   3.220 -0.0608  0.0393  0.0832
21795W        W37604   0.859   6.975   4.486 -0.0817 -0.1617 -0.1521
21796W        W37605  17.805  18.131  14.372 -0.0011  0.0689  0.1507
21797W        W37606   0.381   7.566   3.375  0.0799  0.0225 -0.0118
21798W        W37607   2.986   1.661   4.820  0.2451  0.0778  0.3755
21799W        W37608   8.375  12.238   1.581  0.0027 -0.1393  0.1697
21800W        W37609  10.548   6.441   0.476  0.2981 -0.1674  0.2303
21801W        W37610  13.078   6.550   3.883 -0.2196  0.2856 -0.1777
21802W        W37611  10.940   5.366   1.382 -0.1093  0.0950  0.0250
21803W        W37612   3.792   3.388  11.229 -0.1234  0.3284 -0.0406
21804W        W37613   1.939  18.030  13.964  0.1994  0.1252  0.0679
21805W        W37614   2.762   9.084  15.240 -0.3356  0.0122  0.4389
21806W        W37615   7.677  13.139   2.521 -0.2166 -0.0644  0.3624
21807W        W37616  14.347   0.104  12.707  0.0253  0.1200 -0.1556
21808W        W37617  15.823   2.842   1.369  0.2075  0.0211  0.0673
21809W        W37618   8.479   8.715  14.692 -0.2192  0.2551  0.0532
21810W        W37619   3.696  11.731   1.789 -0.3986 -0.0181  0.1833
21811W        W37620  17.738  10.416  14.362  0.0649  0.2272 -0.2931
21812W        W37621  16.315   4.828  11.286 -0.0831 -0.3577  0.2943
21813W        W37622   5.027   4.614   3.134 -0.1154  0.0325 -0.0702
21814W        W37623  14.136  12.031   2.210 -0.2618 -0.2186 -0.0483
21815W        W37624   7.980   9.084  15.275  0.1846  0.0100 -0.0233
21816W        W37625  15.268   9.062  12.892  0.0238  0.1193 -0.4481
21817W        W37626   2.167   0.680   0.487 -0.1720  0.2237  0.0451
21818W        W37627   1.062   1.250  10.868  0.3036 -0.0873 -0.1052
21819W        W37628  11.022  10.635  10.412 -0.1472  0.0952 -0.0061
21820W        W37629   2.221  12.984  10.831  0.1400 -0.3562 -0.1062
21821W        W37630  16.903  18.785  12.823  0.0276 -0.2784 -0.4465
21822W        W37631   3.340   1.599  10.810  0.0174 -0.1073  0.2737
21823W        W37632  12.078  15.653   2.222 -0.1234 -0.0700 -0.0988
21824W        W37633  12.456  17.418   3.329 -0.0255 -0.0093 -0.1003
21825W        W37634  10.233   8.289   1.354  0.0126 -0.1335 -0.1092
21826W        W37635  16.188  13.795  12.017 -0.0641  0.1300 -0.1915
21827W        W37636   2.354   7.396   0.234 -0.2316  0.1321  0.1354
21828W        W37637   6.683   3.184   3.401  0.0728  0.2118 -0.1782
21829W        W37638   2.224  11.925  11.471 -0.1265 -0.0162 -0.0995
21830W        W37639  13.377  13.825  14.385 -0.1202 -0.0547 -0.0080
21831W        W37640   3.899  15.240   4.118  0.1586 -0.0104  0.1874
21832W        W37641   9.616   2.173  10.740 -0.0763  0.3821  0.2246
21833W        W37642   2.347   3.801  12.915  0.2012 -0.1011 -0.1292
21834W        W37643   8.721   3.993   9.551  0.1499  0.1334  0.3212
21835W        W37644   2.342   5.848   3.268 -0.1318 -0.0716  0.2121
21836W        W37645   0.467   3.596  13.845 -0.4531 -0.0830  0.0299
21837W        W37646  18.259   8.325  12.414  0.0318  0.0618  0.2452
21838W        W37647  14.973  11.097  10.049  0.0027  0.0976  0.0891
21839W        W37648  10.141  11.229   3.504 -0.3132 -0.0758  0.1774
21840W        W37649   8.275  10.088  12.259 -0.1684  0.1245 -0.1432
21841W        W37650   3.365  17.053  14.088 -0.0177 -0.0343  0.0434
21842W        W37651  11.681  10.874   2.761  0.1161 -0.1694  0.0095
21843W        W37652  15.496  10.880   3.303 -0.1434  0.0074 -0.3439
21844W        W37653   2.379   4.589  14.654 -0.0027 -0.2103 -0.3403
21845W        W37654   7.419   6.673   1.811 -0.2640 -0.0874 -0.0402
21846W        W37655   5.044   8.305   2.750  0.0438 -0.2032 -0.0338
21847W        W37656   9.866  10.726   2.675  0.1767 -0.0886 -0.2101
21848W        W37657  14.854   8.177   3.973  0.3657 -0.0654 -0.3091
21849W        W37658  10.357   1.219  14.035 -0.1218 -0.2213 -0.1302
21850W        W37659   5.374   4.703   3.865  0.3319  0.2365  0.2707
21851W        W37660  16.611   9.995  10.923 -0.1469 -0.4812 -0.0509
21852W        W37661   0.703   2.572  10.713 -0.1989 -0.2745 -0.1247
21853W        W37662  12.859  15.165   6.075  0.0469  0.0023  0.1256
21854W        W37663  18.315  15.952  12.899 -0.3442  0.3804 -0.3621
21855W        W37664   5.374  14.666   0.421 -0.1785 -0.0901 -0.1726
21856W        W37665   7.480  17.207  14.634 -0.0182  0.3651  0.0244
21857W        W37666   3.684   0.902  15.095  0.5368  0.1198  0.1504
21858W        W37667   1.321   6.682   3.940 -0.0945 -0.0750 -0.2855
21859W        W37668  13.048  18.797   5.170  0.2606  0.1917  0.0283
21860W        W37669   6.018   9.550   0.285 -0.1949 -0.0764  0.3539
21861W        W37670  10.181  12.889  13.130 -0.2006 -0.2544  0.0951
21862W        W37671   5.743  15.322  10.412  0.1614  0.0545  0.1240
21863W        W37672   3.110   0.023  14.823 -0.2104  0.1268 -0.0859
21864W        W37673  17.092  17.948  12.337  0.0468  0.2325 -0.2590
21865W        W37674  14.842  11.645   0.248  0.0011  0.1271 -0.2318
21866W        W37675   4.653   5.907  10.113 -0.0794  0.3176 -0.0196
21867W        W37676   8.968   0.019   1.034  0.0639  0.0467 -0.0055
21868W        W37677  15.812   9.097   2.146 -0.1384 -0.0256 -0.1905
21869W        W37678   2.651  12.921   3.200 -0.3265  0.0354  0.0374
21870W        W37679   2.815   4.965   1.981 -0.1995 -0.0771 -0.0500
21871W        W37680  14.111  14.809   0.160  0.0296 -0.0131  0.1887
21872W        W37681  13.748  15.300  14.201 -0.1658 -0.0369  0.0895
21873W        W37682  12.744  12.906   3.138 -0.2141 -0.0616 -0.0753
21874W        W37683  13.786  17.065   0.617 -0.1546  0.0525  0.6664
21875W        W37684  13.534  16.943  13.991 -0.1655 -0.1741  0.0289
21876W        W37685   1.624  16.016   1.923 -0.0827 -0.4031 -0.0918
21877W        W37686   6.189   6.962  10.774  0.1261  0.0890 -0.0714
21878W        W37687  16.908  17.464  12.169  0.1239 -0.0926 -0.0650
21879W        W37688   2.277   4.468   0.476  0.1799 -0.2614 -0.1323
21880W        W37689  13.995   6.018  11.611  0.0187 -0.2522  0.0422
21881W        W37690   9.864   8.887   5.276  0.4501 -0.1399 -0.2576
21882W        W37691  11.277   9.355   3.499 -0.0767  0.0866 -0.2096
21883W        W37692   1.995  17.529   2.023  0.3863 -0.1704  0.3489
21884W        W37693  17.426  15.456  11.697  0.0838  0.0214 -0.0655
21885W        W37694  18.159   1.631  13.357 -0.1119 -0.0528  0.0800
21886W        W37695  18.188  14.702   0.285  0.3598  0.1892  0.1052
21887W        W37696  13.054   3.351   0.322 -0.0353 -0.0005 -0.0834
21888W        W37697  15.122   0.369  12.600  0.2808  0.0511 -0.2836
21889W        W37698   6.405   2.585  12.423  0.3986 -0.0690  0.3161
21890W        W37699  14.878   0.043   5.519 -0.0120  0.0614 -0.0016
21891W        W37700   6.048  17.398   3.680  0.3042 -0.0580 -0.2290
21892W        W37701  12.534  12.666  13.969 -0.0822  0.1912 -0.2491
21893W        W37702   4.333   3.704  11.835  0.1244 -0.2554  0.0399
21894W        W37703  13.614   0.057   0.574  0.1024  0.3627 -0.0143
21895W        W37704  14.155   3.582   0.526 -0.0005  0.0409 -0.2689
21896W        W37705   7.500   9.660  14.222  0.2079  0.0677 -0.1314
21897W        W37706  11.183  11.439   4.686 -0.0992 -0.3373  0.0221
21898W        W37707  18.706   3.232  12.386 -0.0921  0.1535 -0.1119
21899W        W37708   8.432   0.991  14.391  0.3696  0.0628 -0.0741
21900W        W37709   6.775   6.383  11.794 -0.0281  0.3409  0.1057
21901W        W37710  14.353   8.226   4.782  0.1002 -0.3585 -0.1211
21902W        W37711  14.536  13.822   5.149 -0.1262  0.1487  0.0467
21903W        W37712   0.555   0.608  14.360 -0.0720  0.3329 -0.0285
21904W        W37713  17.418  13.987  12.719 -0.0781  0.0754  0.0126
21905W        W37714   5.899   2.952  11.960 -0.0685 -0.0273  0.1691
21906W        W37715  17.540   4.748   2.464  0.0100 -0.1667  0.1339
21907W        W37716  14.235   4.492   1.382 -0.0684  0.1192 -0.1450
21908W        W37717   3.780   2.705  14.863 -0.1085 -0.0410  0.2657
21909W        W37718  11.123  18.669   3.444  0.0439 -0.1130  0.0968
21910W        W37719  12.657  11.829  11.736  0.1046  0.0564  0.1088
21911W        W37720   7.114   1.664  14.940 -0.0643  0.0898 -0.1757
21912W        W37721   8.839   3.498   1.567 -0.2905 -0.1729 -0.0501
21913W        W37722  12.346  16.511   2.098  0.1574  0.1498  0.2270
21914W        W37723  12.377   7.277  13.228  0.0707 -0.1271  0.1452
21915W        W37724   4.036   7.175  10.912 -0.0417 -0.0681  0.0349
21916W        W37725   2.007   1.536  12.492 -0.2755  0.0192 -0.1859
21917W        W37726  10.170   7.471   2.153  0.1591 -0.0579  0.3946
21918W        W37727  18.922  17.536  11.800  0.1487  0.0846 -0.4212
21919W        W37728  11.879   7.155   3.625 -0.0937  0.0646  0.1710
21920W        W37729   7.348  12.589  11.210 -0.0585  0.0216  0.0779
21921W        W37730  15.231   3.543   4.436 -0.3845 -0.0358  0.2550
21922W        W37731   8.795   3.565  15.232 -0.0617 -0.0246  0.1282
21923W        W37732   6.359  19.032  13.544 -0.2138  0.0129  0.1855
21924W        W37733   3.804  16.533  15.234 -0.0668 -0.0875  0.0557
21925W        W37734  13.680   1.391  13.473  0.3951 -0.2044  0.3376
21926W        W37735   6.056  13.337   4.444 -0.1324 -0.0579  0.1394
21927W        W37736   2.197   5.974   4.075 -0.1662 -0.2758  0.0904
21928W        W37737  12.305   0.108  11.078 -0.0651 -0.2749 -0.2858
21929W        W37738  10.141  18.115   3.560 -0.2727  0.2111 -0.0048
21930W        W37739   1.822   6.363  10.275 -0.2145 -0.0078 -0.1247
21931W        W37740   9.507  13.804   4.024  0.1908  0.0666 -0.2765
21932W        W37741   0.924   6.554   3.185 -0.2270 -0.1193 -0.0427
21933W        W37742  16.913   5.426   3.980 -0.1752 -0.2462 -0.0810
21934W        W37743  11.503   4.907   2.601 -0.0574  0.1130  0.2382
21935W        W37744   8.923  18.592  13.969  0.0705 -0.1451  0.0553
21936W        W37745  13.385  10.602   1.470  0.2557  0.4014 -0.2310
21937W        W37746   0.497  15.209  14.139 -0.2686 -0.0866 -0.3294
21938W        W37747   9.919   3.983  11.061 -0.0580  0.0991 -0.1718
21939W        W37748  16.128  18.027   3.734 -0.3523  0.1604 -0.3216
21940W        W37749   2.399   2.413   1.313 -0.1121  0.1617  0.0297
21941W        W37750  14.233   4.246  13.352  0.1851 -0.0949 -0.2302
21942W        W37751  14.848   5.583  14.220 -0.1817 -0.0930 -0.0516
21943W        W37752  17.360  18.084   2.062 -0.0995  0.1566 -0.0729
21944W        W37753   4.678  14.969  12.011  0.0663 -0.0203 -0.4012
21945W        W37754   9.009  16.662   3.079 -0.3241  0.0495 -0.0847
21946W        W37755  13.889   9.041  10.521 -0.0580 -0.0165  0.0537
21947W        W37756  11.297   0.326  13.510 -0.0911 -0.0100 -0.0376
21948W        W37757   6.132   5.094   9.742 -0.1272  0.2344 -0.2389
21949W        W37758  14.949  11.519  11.781 -0.2086  0.1663  0.1286
21950W        W37759   3.145   8.211   4.009 -0.0179  0.1210 -0.0711
21951W        W37760   8.972  16.429  13.132 -0.0109  0.0427  0.0966
21952W        W37761   8.908  10.851  12.487 -0.1322 -0.2220 -0.0384
21953W        W37762   6.662  15.446  11.255 -0.0507  0.0261  0.1200
21954W        W37763  13.952   7.524  13.398 -0.1688 -0.0020 -0.0460
21955W        W37764   9.788   9.258   3.679  0.1659 -0.0962  0.0600
21956W        W37765   5.211  10.741  10.602  0.2598  0.3667  0.1814
21957W        W37766   9.610  10.716  10.960  0.0802 -0.3394  0.1480
21958W        W37767  19.014  16.378   0.767 -0.1331 -0.2176  0.1684
21959W        W37768   1.880  16.966  13.477 -0.0224  0.1338 -0.1551
21960W        W37769  17.924  10.357   3.469  0.1818  0.2821  0.0208
21961W        W37770   9.307  14.725   1.577 -0.2222  0.1915 -0.4234
21962W        W37771   2.287   3.282  12.704  0.1424  0.0410 -0.0762
21963W        W37772  16.736  10.709  11.937 -0.2637 -0.0182 -0.0625
21964W        W37773   3.676  16.550   2.392 -0.1533  0.1837 -0.1878
21965W        W37774   1.704  11.271  10.375 -0.0899  0.4063 -0.0726
21966W        W37775  14.168  18.972   0.181  0.0800 -0.2472 -0.0134
21967W        W37776  14.685  12.078  11.965  0.0015 -0.0481  0.1275
21968W        W37777   6.183  13.243  11.374  0.0869 -0.0586 -0.2871
21969W        W37778   9.624   0.616   2.373 -0.3284 -0.3375  0.1563
21970W        W37779   3.544   0.718  12.007 -0.0480 -0.0664  0.3981
21971W        W37780   3.355   8.978  13.821 -0.3334 -0.0483 -0.1167
21972W        W37781  12.400   2.380  13.010 -0.2536  0.1250  0.2234
21973W        W37782  12.049   7.275  15.091  0.1777 -0.1716  0.1087
21974W        W37783  11.070  17.690  13.305  0.2493  0.3812  0.2093
21975W        W37784   8.086  15.578   4.163  0.1819  0.1623  0.1997
21976W        W37785  10.828   2.142  14.931 -0.1165 -0.1780  0.1779
21977W        W37786   9.136  14.683  13.867 -0.0010  0.0385 -0.2275
21978W        W37787  11.240  16.560  12.872  0.1854  0.0631  0.1684
21979W        W37788  15.230   6.875   3.611  0.0805 -0.1189 -0.0636
21980W        W37789   7.271   1.014  12.418  0.2595  0.2047 -0.1316
21981W        W37790  10.607  15.169   5.195 -0.3323 -0.0937  0.0101
21982W        W37791   8.051  11.097   2.447  0.1751  0.3664  0.0156
21983W        W37792   1.210  17.666  11.691 -0.1030 -0.2293  0.3130
21984W        W37793   0.992  13.681   3.369 -0.0965  0.1483  0.1028
21985W        W37794   6.192   6.817   3.279  0.2021  0.0535 -0.0046
21986W        W37795   9.982  11.443  10.460 -0.1606 -0.1767  0.3125
21987W        W37796  11.144  11.345  14.750  0.0013  0.0816  0.1669
21988W        W37797   8.795  17.950  11.219 -0.0072 -0.1267 -0.1143
21989W        W37798   9.362   4.045  10.277  0.0208 -0.4000  0.0886
21990W        W37799   8.401   8.433   1.523 -0.1381  0.2226 -0.1737
21991W        W37800   3.977  14.966   4.938  0.0248 -0.1940  0.1105
21992W        W37801  15.862   7.541   6.159 -0.0111  0.0409 -0.0983
21993W        W37802   4.932   8.461  13.474  0.1303  0.2395 -0.1709
21994W        W37803   0.960   7.351  14.843  0.0100  0.0520  0.0087
21995W        W37804   1.572   8.803   2.095  0.3098 -0.0599 -0.0931
21996W        W37805   1.766   0.702   9.544  0.2512 -0.1925 -0.2500
21997W        W37806  12.958  17.591   2.266 -0.2264  0.2923  0.1125
21998W        W37807  17.614  13.549  12.245  0.2447  0.2861 -0.1453
21999W        W37808  16.617  12.812  13.851 -0.3526 -0.2041  0.0263
22000W        W37809   4.188   2.030  10.927  0.1130 -0.1482 -0.0047
22001W        W37810  17.148   3.246  14.505 -0.0051  0.0808 -0.3097
22002W        W37811   5.670   1.636  12.423  0.1408 -0.0471  0.0612
22003W        W37812   9.070  11.324  14.059  0.1028  0.1760 -0.2489
22004W        W37813  14.235  13.869  10.955 -0.5329 -0.1806 -0.0200
22005W        W37814  12.841  12.951   1.862 -0.0889 -0.0833  0.0230
22006W        W37815  10.265   9.710  12.232 -0.1722 -0.1777  0.2967
22007W        W37816  15.856  11.151  12.923 -0.0628  0.1301  0.4377
22008W        W37817  18.921   9.196  14.331  0.1078 -0.1573 -0.0464
22009W        W37818  13.683  11.083   2.272  0.0098 -0.0949  0.1062
22010W        W37819  18.924   8.542   5.114 -0.0702 -0.0858 -0.2118
22011W        W37820  13.686  12.473  12.992 -0.1195 -0.1461  0.1303
22012W        W37821  15.471  13.491  13.535 -0.0458 -0.3945  0.3718
22013W        W37822  14.448  12.537   0.839 -0.1090  0.0992  0.0738
22014W        W37823  11.815   3.762  14.651  0.0484  0.0271 -0.0750
22015W        W37824  14.562  10.751   4.324  0.2635  0.0735 -0.0136
22016W        W37825   1.957  13.500   4.703  0.0169 -0.0259  0.0740
22017W        W37826  15.166   8.649  15.038 -0.2503  0.1802 -0.1148
22018W        W37827   9.446  15.375   0.783 -0.0851  0.3778  0.0269
22019W        W37828  12.278  12.625   4.137  0.2912 -0.0364 -0.2686
22020W        W37829   4.431  15.689   5.126 -0.0426 -0.3144 -0.0235
22021W        W37830  17.945  11.210   4.610 -0.1607  0.2578  0.1081
22022W        W37831  17.820   7.704  12.630 -0.1403  0.2720  0.1143
22023W        W37832  13.794   5.236  10.665  0.0285 -0.0032  0.0008
22024W        W37833  18.236   9.176   4.697 -0.3069  0.0375 -0.2382
22025W        W37834  16.141  12.301  14.991 -0.0524 -0.1699 -0.3101
22026W        W37835  15.231  16.506   1.414 -0.0181  0.0418 -0.2421
22027W        W37836   3.756   7.001  11.959  0.0754  0.0751 -0.0893
22028W        W37837   2.996  14.755  10.524 -0.1493  0.1267 -0.3532
22029W        W37838   4.995  15.998  11.009  0.0884  0.0270  0.0912
22030W        W37839   8.857  18.415  14.523  0.1201  0.0165 -0.0187
22031W        W37840   7.672   2.118  14.239 -0.0058 -0.1008  0.0920
22032W        W37841  18.942  15.097  14.003 -0.0570 -0.1788 -0.1641
22033W        W37842   6.246  11.536  14.783 -0.1781 -0.4130  0.2299
22034W        W37843   2.817  12.542  10.968  0.2039 -0.2168 -0.4051
22035W        W37844   1.141   6.954  12.116 -0.2601  0.1942 -0.0443
22036W        W37845  15.861  12.666   4.548 -0.2648 -0.2603 -0.1959
22037W        W37846  13.748  18.795  15.185  0.1358 -0.0361  0.0757
22038W        W37847  12.221  10.822  10.734  0.0246  0.4062  0.1342
22039W        W37848  18.156  17.004   1.377  0.1599 -0.1250 -0.0041
22040W        W37849   0.116   9.944  13.784  0.1920  0.3544  0.1636
22041W        W37850   6.292   9.837   0.678  0.1660 -0.1743  0.1951
22042W        W37851  18.854   7.579   3.235  0.2539 -0.2429 -0.0496
22043W        W37852  11.858   8.952   5.958  0.0362  0.2857 -0.0865
22044W        W37853   0.458  16.527  10.621  0.1771 -0.0394  0.4224
22045W        W37854   1.071  16.675   0.009  0.2036 -0.2054 -0.1982
22046W        W37855  13.553   8.902  13.801  0.3155  0.3514  0.4697
22047W        W37856  11.031   6.071   1.966 -0.2342 -0.1281 -0.1541
22048W        W37857   5.850   3.599  10.925  0.0966 -0.0157 -0.0825
22049W        W37858   0.972   5.673   3.866  0.2217 -0.0148  0.0059
22050W        W37859  14.756  17.271   5.500  0.1177 -0.1684 -0.1135
22051W        W37860   6.127   0.141   3.519  0.0428 -0.0691 -0.2090
22052W        W37861   8.494   8.978  11.346 -0.0223 -0.0640  0.0115
22053W        W37862   8.691   1.263   4.822  0.0333 -0.0344  0.3627
22054W        W37863  19.036  15.260   1.887  0.1031 -0.2162  0.2636
22055W        W37864   8.484  16.701  13.346 -0.2573 -0.0936  0.0612
22056W        W37865   7.299   2.857   0.797 -0.0474 -0.0636 -0.0992
22057W        W37866  11.483   5.792  12.746 -0.0554  0.1304  0.2071
22058W        W37867  10.306   4.066   1.276  0.0963  0.0539 -0.1183
22059W        W37868  17.660   0.954  14.403  0.1928 -0.1391 -0.3344
22060W        W37869  14.128   1.703   1.307  0.4109 -0.1231  0.0152
22061W        W37870  12.245  15.257  14.558 -0.1898  0.2993 -0.1707
22062W        W37871  15.570   7.971  11.182 -0.1607  0.0691  0.1351
22063W        W37872  17.626  11.083  12.412  0.1442 -0.0961  0.0013
22064W        W37873   1.250  13.835   4.775  0.1232 -0.0983 -0.0070
22065W        W37874   7.330   1.710   4.052 -0.2198 -0.0946  0.0312
22066W        W37875   0.025   5.104  13.327 -0.1439 -0.1767  0.2151
22067W        W37876   1.460  16.471   3.051 -0.0091  0.0267  0.2399
22068W        W37877   5.136   0.898  10.307 -0.0800  0.0593  0.0303
22069W        W37878   5.668   6.548   0.065 -0.0146  0.1348  0.0563
22070W        W37879   2.630  13.088  13.018 -0.1088  0.0078  0.0313
22071W        W37880   3.847  10.079  11.629 -0.2119  0.0422  0.0765
22072W        W37881  13.664  13.152  10.943  0.2124  0.2155 -0.2707
22073W        W37882  13.519   1.223   4.050  0.0433 -0.2630 -0.1220
22074W        W37883  16.477   6.775   2.857 -0.2931 -0.0913 -0.1373
22075W        W37884   0.352   9.666  14.177 -0.0090 -0.0498  0.0350
22076W        W37885   8.093  13.443   2.791  0.2969  0.1239  0.0533
22077W        W37886   4.437  18.383  15.278  0.2892  0.3397 -0.1566
22078W        W37887  12.201   5.454  12.712 -0.2737  0.5376 -0.2844
22079W        W37888  18.178  10.154   4.312  0.0259 -0.2827  0.2336
22080W        W37889   8.228   5.320   2.006 -0.1278 -0.0073  0.0120
22081W        W37890  10.328   7.997  11.861  0.0866 -0.0138 -0.1179
22082W        W37891   9.666  11.761  13.591  0.2464  0.0594 -0.1458
22083W        W37892   7.374  12.391  10.306 -0.0048  0.1327  0.2710
22084W        W37893  14.596  15.360   5.324 -0.0714 -0.2033 -0.0405
22085W        W37894  18.163  11.343   3.918 -0.1464  0.2294 -0.0193
22086W        W37895   0.925   0.776  13.220 -0.0136  0.3770 -0.1232
22087W        W37896  18.512   4.534   4.290 -0.0021 -0.1142 -0.0860
22088W        W37897  10.109   9.031  14.092  0.1380  0.0855 -0.2329
22089W        W37898   2.982  15.905   3.531 -0.0332 -0.4489  0.0798
22090W        W37899   7.459   3.154   1.220 -0.2160 -0.0310  0.0354
22091W        W37900  11.755   9.889  14.928 -0.0577  0.0722 -0.0950
22092W        W37901   9.853   6.159   4.140  0.0504 -0.2015  0.0116
22093W        W37902   7.409  14.062   5.281 -0.1011 -0.1591 -0.0913
22094W        W37903  10.916   7.763   0.212 -0.0722  0.0449 -0.1035
22095W        W37904  12.368   5.592   2.448  0.0229  0.0427 -0.0145
22096W        W37905  16.083   1.855  15.013 -0.0305 -0.0927 -0.2111
22097W        W37906   4.154   5.990   1.014 -0.0059 -0.3473  0.1276
22098W        W37907  11.287  13.405   2.617 -0.2776  0.1033 -0.0447
22099W        W37908   6.619   1.666  11.348 -0.1068  0.3578 -0.0432
22100W        W37909  12.493   4.562   3.896  0.1228  0.0432 -0.0718
22101W        W37910   8.974   3.159   3.538 -0.5696  0.2004  0.0008
22102W        W37911   7.846   3.415  12.822 -0.1545 -0.0723  0.0131
22103W        W37912  12.785  14.685   4.131  0.3707 -0.1509  0.1853
22104W        W37913   0.243  12.411   4.754 -0.0289 -0.1091 -0.0289
22105W        W37914   2.814   9.107  10.375 -0.1274 -0.0839 -0.1061
22106W        W37915   1.588  15.014  11.925 -0.2619 -0.0075 -0.3453
22107W        W37916  11.290  16.445   0.626 -0.0856 -0.3266  0.0513
22108W        W37917   5.212  15.760   1.312  0.0712  0.2387 -0.0738
22109W        W37918   9.503  17.969   4.769  0.0507  0.1483 -0.2050
22110W        W37919   2.909  11.590   3.323 -0.1715 -0.1986  0.1542
22111W        W37920   8.368  11.697   4.520  0.0181 -0.2908  0.1263
22112W        W37921   3.225  12.867  10.036  0.1801 -0.1136 -0.4087
22113W        W37922  12.895  14.893  14.440  0.1551 -0.0103 -0.1971
22114W        W37923  10.832   5.098  11.018 -0.0734  0.0724  0.3083
22115W        W37924   6.154   0.738   3.569  0.0006 -0.1364  0.0911
22116W        W37925   4.015   9.282  11.788 -0.1969  0.0281 -0.0031
22117W        W37926  10.576   0.565   4.702 -0.0243 -0.0396  0.4198
22118W        W37927  12.908   4.043   0.772 -0.3037 -0.1245 -0.0254
22119W        W37928  13.792   1.249   3.612  0.1341  0.0883  0.2855
22120W        W37929  10.561  17.164  10.758  0.0503 -0.2262  0.2176
22121W        W37930  18.424   6.282   3.684  0.2609 -0.2005  0.5484
22122W        W37931   2.805  17.075   2.857 -0.2690  0.0084 -0.2451
22123W        W37932  12.128   1.702  12.299  0.2241 -0.1146  0.0065
22124W        W37933  10.877  11.560  14.237  0.1484  0.5039 -0.2756
22125W        W37934   7.058  18.572  12.428 -0.0671  0.2165 -0.1136
22126W        W37935  16.861   3.383  10.711  0.4539  0.1518 -0.0981
22127W        W37936   0.750  14.644   4.427 -0.1957  0.1216 -0.1346
22128W        W37937   8.469  10.552   2.390  0.0907  0.0941 -0.1053
22129W        W37938  11.763  18.316   2.561 -0.0355  0.1185  0.0133
22130W        W37939  16.504   6.777   0.821  0.1905  0.0323  0.1014
22131W        W37940  17.030   4.692   5.136  0.1655  0.1258  0.0395
22132W        W37941  11.626   5.897  13.929  0.1344  0.0485 -0.1479
22133W        W37942   7.768   0.603   1.741 -0.0480 -0.2867  0.0093
22134W        W37943  16.655   4.185  14.979 -0.0431  0.1545  0.0487
22135W        W37944  14.094   8.585   3.803 -0.0941  0.0444  0.2294
22136W        W37945  16.137  15.110  13.546 -0.1199 -0.0134 -0.0160
22137W        W37946  17.840   7.456   2.689 -0.0538 -0.1703  0.1324
22138W        W37947   4.193   9.624  11.420  0.0582  0.2696  0.0508
22139W        W37948  14.970   3.087   5.191 -0.3395 -0.0336 -0.2335
22140W        W37949  11.466   1.969  13.340 -0.1402  0.1123  0.1103
22141W        W37950   5.677   0.207   0.442  0.0338  0.0248 -0.0322
22142W        W37951   7.669   3.515  10.420 -0.3570 -0.1005  0.3772
22143W        W37952   0.449   0.404   1.674 -0.0618  0.0667 -0.1302
22144W        W37953   8.816   6.583   4.356  0.0822 -0.1406 -0.1112
22145W        W37954   8.447  10.174  14.960 -0.2059  0.2679  0.0326
22146W        W37955  16.062   5.550  13.796 -0.0617 -0.1403  0.0867
22147W        W37956   6.448   1.887  12.666  0.2090 -0.2871  0.1080
22148W        W37957   5.240  10.875  12.098 -0.0056  0.3693  0.4539
22149W        W37958  13.272  18.957   4.266  0.1379  0.3220  0.0955
22150W        W37959  15.516  19.030  11.752 -0.3678  0.0223  0.1280
22151W        W37960   7.995  13.725  13.921 -0.0036  0.3470 -0.1312
22152W        W37961   6.234   9.002   3.509 -0.2363  0.0920 -0.2367
22153W        W37962  13.658  14.880   0.329 -0.1472 -0.1911 -0.0642
22154W        W37963   4.977  18.137   1.535  0.2012 -0.1168 -0.2681
22155W        W37964  15.639   0.926  12.057 -0.2133 -0.1221  0.3605
22156W        W37965   0.715  14.613  14.607 -0.1094 -0.1516  0.1617
22157W        W37966  18.898  17.299  13.087 -0.0739  0.1964  0.3216
22158W        W37967  15.016   7.389   3.358 -0.1901 -0.0723 -0.3873
22159W        W37968   4.577  16.222   3.832 -0.0469  0.0741 -0.1457
22160W        W37969   2.584   0.129   9.931  0.2369  0.1180  0.3414
22161W        W37970   0.696  17.013  12.370 -0.2970 -0.1199  0.0041
22162W        W37971  17.987   8.515  10.493  0.1181 -0.2620  0.2012
22163W        W37972   5.051  11.023  11.061 -0.1807  0.0216 -0.1716
22164W        W37973   2.126   3.074   3.797  0.2438 -0.2411  0.2683
22165W        W37974  13.037   7.216   4.846 -0.0836  0.1298  0.1898
22166W        W37975  10.355   6.441  11.417 -0.1502  0.2816 -0.2330
22167W        W37976  16.875  13.338   5.086  0.1435 -0.2391 -0.1241
22168W        W37977  10.538  14.959  10.092  0.0845  0.0792  0.2906
22169W        W37978  17.572  16.769  13.411 -0.2836  0.0253  0.1398
22170W        W37979  14.326  14.743   4.512 -0.1687 -0.1611  0.2310
22171W        W37980  13.755  15.469   3.762  0.0608 -0.0306 -0.2509
22172W        W37981  14.757   9.863  11.403 -0.0578  0.3467  0.1487
22173W        W37982   6.998   0.716  14.742 -0.0186 -0.1187  0.1245
22174W        W37983  10.481  18.729   3.470 -0.0042 -0.3934 -0.0534
22175W        W37984   8.827  11.566   4.407  0.0627  0.0426  0.1737
22176W        W37985  13.256   2.493  11.676  0.2163  0.0168  0.2619
22177W        W37986  13.007   2.466   2.977  0.1866  0.0902  0.0700
22178W        W37987  12.537   0.552  14.336 -0.0233  0.0236  0.4711
22179W        W37988  15.848  15.426   2.285  0.2386 -0.1471 -0.0450
22180W        W37989   9.478  13.604  14.206 -0.2964 -0.1564 -0.2801
22181W        W37990   3.063  16.795   9.578 -0.0593 -0.2690 -0.2725
22182W        W37991   5.469  15.335   1.828 -0.2123 -0.0781  0.1044
22183W        W37992  10.266  18.916   0.228  0.2285 -0.2715  0.2646
22184W        W37993   6.894  13.758   4.545  0.1885 -0.0700 -0.3264
22185W        W37994  13.943   8.618  15.025  0.4091 -0.1094  0.0896
22186W        W37995   3.662  16.183   0.295  0.0253  0.0641  0.2568
22187W        W37996  18.433   8.210   4.397 -0.1150 -0.0509  0.2158
22188W        W37997   3.194   5.971  14.796  0.2372 -0.1639  0.0204
22189W        W37998  10.870  15.897  10.445 -0.0831 -0.2922 -0.0069
22190W        W37999  18.211  18.484   1.942 -0.0640 -0.0527 -0.0687
22191W        W38000   1.455   7.318  15.087 -0.1971 -0.0047 -0.1923
22192W        W38001  16.143   6.281   1.225 -0.0741  0.1810 -0.1641
22193W        W38002  13.369   6.222   3.591 -0.2196  0.1707 -0.0544
22194W        W38003  11.893   0.020  13.319  0.2390 -0.1116  0.0073
22195W        W38004   2.654   4.702  11.834  0.0078  0.1352 -0.1998
22196W        W38005  16.137   1.962   5.374 -0.0489  0.0720 -0.1940
22197W        W38006  18.196  16.724   2.794 -0.1412  0.2633 -0.0046
22198W        W38007  18.216   5.221  14.588 -0.0706  0.1732  0.0012
22199W        W38008  10.852   8.254  12.384 -0.0265 -0.1051 -0.0374
22200W        W38009  17.312   9.477   0.260 -0.3791  0.0189  0.1304
22201W        W38010   4.608   5.778   2.309 -0.0024 -0.2235  0.1431
22202W        W38011  15.732  13.017  11.072 -0.0419 -0.2300  0.4849
22203W        W38012   0.174  13.382   1.996 -0.0959 -0.1679  0.0553
22204W        W38013  13.820  13.643   0.690 -0.0483  0.1858  0.0644
22205W        W38014  17.543  11.221  15.227 -0.0057 -0.0452 -0.1649
22206W        W38015   8.936   0.097  10.907  0.1691 -0.3672  0.1648
22207W        W38016  10.666  13.637   1.869 -0.0554 -0.1157 -0.0508
22208W        W38017  13.909   2.573   1.306  0.1737  0.0176  0.1195
22209W        W38018   3.894   3.772  10.475  0.1940  0.3190  0.1703
22210W        W38019  10.902  11.554   9.433  0.0638  0.0959  0.0777
22211W        W38020  11.471  10.542  14.123  0.0933 -0.2858 -0.1755
22212W        W38021   3.724  14.015  12.909  0.0319 -0.3025  0.0873
22213W        W38022   1.790   5.497  10.845 -0.0732  0.0553  0.1608
22214W        W38023  14.575  13.383  12.496 -0.4187 -0.1013 -0.2810
22215W        W38024  10.523   5.961  11.218 -0.1846  0.0516  0.3303
22216W        W38025   1.154  15.502  12.698  0.0998 -0.3235  0.3622
22217W        W38026   5.473   5.274  11.776  0.0490 -0.0154 -0.0830
22218W        W38027  16.866  18.984  11.010 -0.1986 -0.0104 -0.2767
22219W        W38028  12.719   0.660   5.476  0.0365 -0.0692 -0.2927
22220W        W38029   1.058  12.018  14.676 -0.1885 -0.3861 -0.1865
22221W        W38030  11.286   0.931  11.355  0.2205  0.1063 -0.1307
22222W        W38031   8.859  12.279  12.987 -0.1555  0.0085  0.4340
22223W        W38032   2.179  12.650  13.182 -0.0741 -0.3494 -0.1419
22224W        W38033   4.307   8.253  12.135 -0.0574 -0.0740  0.1321
22225W        W38034   0.317  16.208   5.467 -0.1883 -0.3439  0.2541
22226W        W38035  11.807  16.882   0.764  0.0700  0.0464  0.3584
22227W        W38036  17.439   5.340   4.677  0.3115  0.2196 -0.0948
22228W        W38037   1.681  12.713   0.987 -0.1198 -0.0315 -0.0010
22229W        W38038   0.353   2.270   5.092  0.1198  0.0017  0.0121
22230W        W38039  13.075  17.554  13.128  0.1588 -0.1836 -0.0380
22231W        W38040  17.536   6.412   4.220 -0.1371 -0.0014  0.0509
22232W        W38041  18.649  14.906   1.083 -0.2320 -0.1313  0.3693
22233W        W38042   8.662  12.547  13.446  0.0630 -0.0902  0.1488
22234W        W38043  10.596  13.531  10.184  0.2532 -0.0090  0.0474
22235W        W38044   2.337   5.865  11.702 -0.2801 -0.0136 -0.3408
22236W        W38045  16.712   9.522  13.569  0.0886  0.0343  0.0207
22237W        W38046  12.364   4.316  14.150  0.1902 -0.2007  0.0455
22238W        W38047   9.933  16.598  14.938 -0.0441 -0.4438  0.3397
22239W        W38048  14.252   4.966   3.236  0.2130  0.3923 -0.2371
22240W        W38049  16.020  10.752  15.110  0.0642 -0.0882 -0.0394
22241W        W38050   9.691  14.277  10.787 -0.2292  0.2603  0.0606
22242W        W38051  15.963   9.662   1.005  0.2897 -0.0996  0.0474
22243W        W38052   3.487   4.588  13.217 -0.0726 -0.0538  0.1965
22244W        W38053  12.631  14.762   4.589 -0.0672 -0.1250 -0.0362
22245W        W38054   7.471   0.425  12.989 -0.1468  0.1474  0.4028
22246W        W38055   7.567  10.540  15.186  0.0551  0.1193  0.0026
22247W        W38056  16.105   9.644  14.452 -0.0680 -0.0362  0.1704
22248W        W38057  14.593   6.685  11.249 -0.4675 -0.2508  0.0450
22249W        W38058  14.235   0.637  10.992 -0.2216  0.0942  0.1218
22250W        W38059   3.709  12.613   4.604  0.0840  0.0887  0.0026
22251W        W38060  11.884  12.767  13.816  0.1442 -0.2597  0.3190
22252W        W38061  11.719   4.759  14.689 -0.2377 -0.0869 -0.0031
22253W        W38062   5.492  16.396  13.092 -0.0278  0.2845 -0.2685
22254W        W38063   0.851  13.920  12.366  0.0154 -0.0186  0.3934
22255W        W38064   6.372   4.004  10.077 -0.3615  0.0906 -0.0107
22256W        W38065   6.389   4.688  10.784  0.5531  0.1796  0.0328
22257W        W38066   9.456  11.298  12.591 -0.0478  0.1186 -0.0270
22258W        W38067  16.056   6.807  15.220 -0.1578 -0.2928  0.3815
22259W        W38068   9.960   1.980   3.544 -0.0204  0.1140 -0.0664
22260W        W38069  18.659   4.412  12.118  0.2136  0.0394  0.2354
22261W        W38070   4.762  13.652  13.140  0.2561  0.1901  0.2522
22262W        W38071  15.914  11.501  13.322 -0.0764 -0.2400  0.1189
22263W        W38072   4.197   9.079  13.824 -0.2547 -0.0133 -0.1066
22264W        W38073  12.668   0.370  14.773  0.1009  0.0392  0.1585
22265W        W38074   4.281   6.244  11.840 -0.1583  0.1147  0.0172
22266W        W38075   0.329  11.719   1.985 -0.0767  0.2088  0.1211
22267W        W38076   0.181  17.229   0.813  0.2395  0.2210  0.1803
22268W        W38077   4.398  18.039   2.391  0.0322  0.2621 -0.1811
22269W        W38078   2.218  16.474  11.313 -0.1613  0.0068  0.1975
22270W        W38079  13.417  10.082   3.626 -0.0545  0.0315 -0.1735
22271W        W38080   4.642   3.861  14.895 -0.0893 -0.1087  0.1262
22272W        W38081   6.929   1.686  13.283 -0.1612  0.1400 -0.0028
22273W        W38082  17.036   8.527  12.941  0.1099 -0.1144 -0.0275
22274W        W38083   9.692  12.785   3.104  0.2807  0.0778  0.2875
22275W        W38084  14.841   3.160  13.448 -0.1743  0.1836  0.2238
22276W        W38085   7.819   4.308  12.484 -0.1418 -0.0467 -0.1773
22277W        W38086   5.998   0.209   0.858  0.2971 -0.0111 -0.0870
22278W        W38087   5.211  12.356  15.133 -0.2153  0.2230 -0.0427
22279W        W38088   5.214  10.456  10.106  0.1872  0.0706  0.0639
22280W        W38089   3.937  15.242  10.543 -0.3343 -0.1915  0.2586
22281W        W38090   6.260  10.931   2.038  0.0592 -0.3383  0.0416
22282W        W38091   2.647   7.665  10.535 -0.0873 -0.2580 -0.0523
22283W        W38092  10.046   8.968   2.369 -0.0125 -0.0380 -0.1153
22284W        W38093   4.739  15.051   0.216 -0.0483  0.0078 -0.1348
22285W        W38094  18.428   0.614  11.036 -0.1524 -0.1157  0.1130
22286W        W38095  14.834  15.739  12.831  0.4157  0.1076 -0.0188
22287W        W38096   0.761   6.002  12.058  0.0893 -0.1632 -0.1061
22288W        W38097   3.538  16.130  11.573 -0.1049 -0.0059  0.2089
22289W        W38098  16.017  12.661  10.794  0.0522  0.1640 -0.0543
22290W        W38099   7.960   7.979   9.269  0.2464 -0.3566  0.1366
22291W        W38100   3.193   7.824  15.263 -0.3725  0.1604  0.0011
22292W        W38101   9.620   2.368  14.340 -0.3777  0.1976  0.0969
22293W        W38102  18.324  14.330  13.449  0.1485 -0.3735 -0.1954
22294W        W38103  10.250   0.953   0.140  0.3735  0.3748  0.1676
22295W        W38104   7.549  17.183   9.941 -0.1767 -0.2219 -0.0391
22296W        W38105   6.797  12.747   4.144  0.1866  0.1752 -0.0409
22297W        W38106   2.870   2.673   0.350  0.0120  0.1621 -0.0489
22298W        W38107   0.065   0.686   0.516  0.0749 -0.1162  0.0499
22299W        W38108  11.891   4.812   5.172 -0.1328  0.1157 -0.0082
22300W        W38109  18.489   2.880   1.545  0.0963 -0.1746  0.2073
22301W        W38110  12.381  12.596  11.499  0.1051  0.0186 -0.0461
22302W        W38111   1.593   3.990   4.836 -0.0446  0.1116 -0.2433
22303W        W38112   8.872   1.428  12.234 -0.0272  0.0984  0.1201
22304W        W38113   5.102   2.741   3.928 -0.1892  0.3607 -0.0406
22305W        W38114  18.108  18.905  15.007  0.0319 -0.1310 -0.2016
22306W        W38115  16.607  10.365   0.904 -0.0893 -0.3436  0.0936
22307W        W38116   3.604  14.326   3.562  0.1801 -0.1862 -0.2652
22308W        W38117   5.219  15.023   4.097 -0.1250 -0.5258  0.1211
22309W        W38118   2.173  16.561  13.021 -0.1418  0.1501  0.1503
22310W        W38119  13.674   6.977  14.045 -0.0009 -0.0212 -0.1338
22311W        W38120   4.830   9.567  10.467 -0.1458 -0.0274  0.1671
22312W        W38121   7.480   3.353   1.688 -0.0171  0.0427 -0.1162
22313W        W38122   9.992  18.522   2.100  0.4655  0.2143  0.1909
22314W        W38123  15.088   7.185  14.070  0.4743 -0.2401  0.0365
22315W        W38124   3.912   5.899   2.512 -0.0482  0.3762  0.2947
22316W        W38125  18.469  15.832  11.209 -0.1790 -0.0514 -0.3508
22317W        W38126  18.029  12.620  14.908  0.1380  0.2018  0.2302
22318W        W38127   7.368   7.439  10.741  0.1273 -0.0745 -0.1037
22319W        W38128  13.873  15.730   2.917  0.3046  0.1081 -0.0555
22320W        W38129  13.212  18.268  12.917  0.0446 -0.0910 -0.1498
22321W        W38130  13.392  14.986  14.731 -0.1531 -0.0589 -0.1424
22322W        W38131   1.443  15.889  12.884  0.2074 -0.0026 -0.1014
22323W        W38132  12.756  13.190   2.325 -0.2656  0.0038 -0.1510
22324W        W38133   0.226  15.533  13.857  0.4049 -0.1505  0.2569
22325W        W38134   4.174  15.559   1.445  0.1593 -0.1254  0.0914
22326W        W38135   3.118  11.009   2.646 -0.0863  0.2986  0.1558
22327W        W38136   3.453  18.863  11.403  0.2642  0.2495 -0.1097
22328W        W38137   5.800   4.421   9.672  0.2470 -0.0644  0.4025
22329W        W38138   2.265  12.439   4.902  0.4264 -0.1084  0.2328
22330W        W38139  15.936  18.101  11.705  0.1773 -0.0726  0.0560
22331W        W38140   8.755  11.761  10.444  0.1698 -0.0844  0.0765
22332W        W38141   6.299  19.023  10.347  0.0286  0.3442 -0.1208
22333W        W38142  12.760  17.653  13.895  0.1391  0.1307 -0.2090
22334W        W38143  16.020   0.249   4.426  0.0050 -0.0297 -0.2074
22335W        W38144   4.212  13.775  11.763 -0.0465 -0.2689  0.0212
22336W        W38145  13.591  12.435   0.197  0.0962  0.1352  0.0004
22337W        W38146   4.601  14.876  14.421 -0.1422  0.1239  0.0999
22338W        W38147   5.810   3.309  14.479  0.0664  0.0343  0.2261
22339W        W38148  12.148  13.877   2.284  0.1511  0.2168 -0.1149
22340W        W38149   9.023  13.478  12.442 -0.0192 -0.1649 -0.5966
22341W        W38150  10.546  12.725   3.554 -0.1440 -0.3402 -0.0495
22342W        W38151  18.736  12.793  14.501  0.1083  0.1035 -0.2338
22343W        W38152  16.766   8.564  10.821 -0.0767  0.0983  0.0731
22344W        W38153   2.881  18.604  13.412  0.0441 -0.1713 -0.0726
22345W        W38154  12.057   4.522  13.652 -0.2925  0.0370 -0.2228
22346W        W38155   5.642  10.002  14.164 -0.0150 -0.0868 -0.0794
22347W        W38156   5.011   1.764   0.929  0.0777  0.1606 -0.1004
22348W        W38157  14.733   7.014  10.901 -0.3113 -0.1601  0.0397
22349W        W38158  12.679  16.081   0.167 -0.1006  0.0899  0.0922
22350W        W38159  16.166  15.536   1.877 -0.1314  0.0799  0.0299
22351W        W38160  12.473   3.708   5.018 -0.0506  0.0035 -0.0725
22352W        W38161  13.506  19.028  10.848 -0.0478  0.1955 -0.0062
22353W        W38162   7.887   0.857   4.680 -0.3221 -0.0369  0.1500
22354W        W38163  11.056  11.176   0.720 -0.0919 -0.0994  0.0461
22355W        W38164  16.674   2.507  11.147 -0.1161  0.0149 -0.1753
22356W        W38165  10.318  14.003   2.764  0.0308 -0.0618  0.2409
22357W        W38166  16.939  11.375   1.706  0.1729  0.0756 -0.0403
22358W        W38167   9.126  10.668   9.956 -0.1612 -0.1137  0.0410
22359W        W38168  17.900   7.390  10.161  0.0629  0.2001  0.0034
22360W        W38169   6.516   3.178  10.648 -0.1374  0.1876  0.1229
22361W        W38170  12.149  11.192   0.841  0.0699  0.0117  0.3237
22362W        W38171  13.271  14.796  10.957  0.3810 -0.0560 -0.2128
22363W        W38172  11.847  18.516   0.919  0.1010 -0.3019  0.1338
22364W        W38173   0.008  18.181   2.239  0.1888  0.1603  0.1060
22365W        W38174   4.040  15.844  10.746 -0.2199 -0.1938 -0.0011
22366W        W38175   3.182   9.127  11.415 -0.2755  0.0995 -0.0382
22367W        W38176  10.773  18.137  13.141  0.4698  0.2839  0.0060
22368W        W38177  10.121  15.416  10.674 -0.0458 -0.1394  0.0923
22369W        W38178  15.565  10.803  11.213 -0.1160  0.2821  0.1803
22370W        W38179   9.433  14.307   3.131  0.1936  0.3660  0.0591
22371W        W38180  18.497  13.749  15.077 -0.1256 -0.0485  0.4212
22372W        W38181   6.093  18.720   4.333  0.4546 -0.0680  0.1985
22373W        W38182   7.265  18.579   3.079 -0.0889 -0.2223  0.2696
22374W        W38183  10.609  15.383   4.356  0.1075 -0.1122  0.0419
22375W        W38184  15.551   5.747  12.052 -0.2540  0.4143 -0.2483
22376W        W38185   6.570   0.235   9.963  0.1765  0.0735 -0.0454
22377W        W38186  10.353   0.373   3.265 -0.1242 -0.0213 -0.0880
22378W        W38187   2.878  12.448   2.556  0.0112  0.3096 -0.1188
22379W        W38188   0.614  13.434  13.483  0.2546  0.3210 -0.0602
22380W        W38189   5.400   1.433   2.684  0.1709  0.2579 -0.0242
22381W        W38190   4.980   0.615  11.613 -0.0535  0.1209 -0.0363
22382W        W38191  12.833  13.209  11.255  0.0199  0.0085  0.0733
22383W        W38192  17.854   1.416   2.191  0.0146  0.0178  0.2055
22384W        W38193   8.175   1.595   1.049  0.2395  0.2661 -0.0538
22385W        W38194  10.571   6.153  13.254  0.1371 -0.1135 -0.1450
22386W        W38195  16.734  13.841   1.648  0.1749 -0.2637  0.1013
22387W        W38196  12.974  13.876   9.899 -0.0987  0.0185 -0.0111
22388W        W38197   0.244  14.065   1.947 -0.3066 -0.0231 -0.0964
22389W        W38198   0.862  17.742   4.154 -0.1775 -0.1795  0.0008
22390W        W38199   2.139   5.899  13.512 -0.1262  0.1951  0.1480
22391W        W38200  13.107  16.762  14.102 -0.0615  0.2388  0.2357
22392W        W38201   7.846   4.095   3.397 -0.0530  0.0212 -0.2578
22393W        W38202   4.388  15.825  13.798 -0.0077 -0.2729 -0.2916
22394W        W38203   7.253  18.516  13.018 -0.0708  0.0540  0.0205
22395W        W38204  16.425  16.992   4.494  0.3194 -0.1382 -0.1610
22396W        W38205   1.842  12.427   4.586  0.2405 -0.1658 -0.3893
22397W        W38206   0.451   8.352  11.327  0.0313  0.1051 -0.0236
22398W        W38207  10.666   3.723  10.732  0.1787 -0.0298  0.0997
22399W        W38208  17.955   9.636  12.661  0.2682  0.0425 -0.1004
22400W        W38209   2.354  16.283  12.047  0.2347  0.3319  0.3063
22401W        W38210  14.041  10.649  12.081  0.0951 -0.2953  0.0090
22402W        W38211   3.430  11.767   5.486 -0.1056 -0.0210  0.0440
22403W        W38212  16.869  11.151  14.774 -0.2191 -0.1009  0.2445
22404W        W38213   1.432  11.542  14.089  0.1313 -0.1862 -0.1707
22405W        W38214  15.063   1.725  14.094 -0.1838  0.2417 -0.1739
22406W        W38215  11.229   1.465  11.267 -0.2050 -0.0485 -0.1398
22407W        W38216  15.577  10.825   5.238 -0.2650  0.2477  0.1367
22408W        W38217   5.460   6.286  14.597 -0.1366 -0.1301 -0.4694
22409W        W38218  14.221  18.812   1.940  0.1074  0.2408 -0.2170
22410W        W38219  10.592  14.744  11.043  0.0363  0.1694  0.1074
22411W        W38220  13.792   8.522  13.555 -0.0346  0.0250  0.1619
22412W        W38221  11.351  15.846  15.035  0.0378 -0.0134 -0.0621
22413W        W38222   2.082   0.306   1.521 -0.0437 -0.0098  0.2204
22414W        W38223   0.627  14.435  13.664  0.1273 -0.1395 -0.1606
22415W        W38224   0.592   5.548  15.126  0.1902 -0.1951 -0.2077
22416W        W38225  16.515   1.977   4.371 -0.4634 -0.1464  0.0360
22417W        W38226  12.998  13.286   3.277 -0.2924 -0.0800 -0.0516
22418W        W38227   7.980   0.044   1.172 -0.1238  0.1550  0.0688
22419W        W38228  13.509  16.980  13.515 -0.2963  0.2674  0.2331
22420W        W38229  10.567  18.648  13.261  0.1001 -0.1178  0.2354
22421W        W38230   9.473   6.500   4.280 -0.2150 -0.2056  0.0479
22422W        W38231   9.435  18.166  12.764  0.2025 -0.1011  0.1995
22423W        W38232   5.177   5.710   5.258  0.3536 -0.2265 -0.0517
22424W        W38233  18.535  17.642   5.363 -0.1678  0.2919  0.0970
22425W        W38234   0.093   1.541   4.052 -0.2907 -0.3505 -0.1960
22426W        W38235  10.695   1.708  10.188  0.1289 -0.0115  0.1237
22427W        W38236  11.088   7.175   3.348  0.1189 -0.1166 -0.0818
22428W        W38237   6.070   7.723  11.833 -0.0065  0.3984  0.2496
22429W        W38238   0.071  12.992  12.525  0.5204 -0.1342  0.1271
22430W        W38239   4.777  15.910   3.539 -0.1773  0.1603  0.0422
22431W        W38240  15.362   5.633  12.537 -0.2079 -0.0895 -0.2502
22432W        W38241   2.092  18.618   3.747 -0.2870 -0.0290 -0.1173
22433W        W38242   2.973  16.519   1.560 -0.3273  0.0718 -0.1015
22434W        W38243  18.400  10.874   2.217 -0.3534 -0.1505 -0.0655
22435W        W38244  12.114  17.091  11.023  0.0750  0.1103  0.5462
22436W        W38245   8.805  14.409  10.897 -0.1070  0.0476 -0.0521
22437W        W38246  16.678  14.827  12.840  0.2337 -0.4145  0.2039
22438W        W38247   5.400  12.012  10.154  0.0966  0.1607 -0.2012
22439W        W38248  11.020  10.438  13.221  0.4266  0.0402  0.2958
22440W        W38249   7.705   4.159   1.920 -0.2573  0.0363 -0.1046
22441W        W38250  14.593   9.666   1.796 -0.0730 -0.0416 -0.0450
22442W        W38251   7.511   7.633   5.027 -0.2296 -0.0922 -0.1467
22443W        W38252  16.067  14.232   5.475  0.1844 -0.1881  0.1116
22444W        W38253   3.554   7.216  10.950  0.2181 -0.2916 -0.1136
22445W        W38254   5.400  17.042  11.732 -0.2620  0.0925 -0.1377
22446W        W38255   8.368   6.962   3.533  0.1220 -0.2430  0.1227
22447W        W38256  14.610  11.242  10.407 -0.0110  0.1977 -0.1864
22448W        W38257   6.751  12.060   9.987  0.0513 -0.2411 -0.0105
22449W        W38258  10.543  15.793  13.723 -0.0538  0.2667 -0.1499
22450W        W38259   9.934   5.411  10.685  0.1308 -0.0243 -0.2837
22451W        W38260   8.112  12.266   9.672  0.0432  0.0841 -0.3795
22452W        W38261   0.310  18.050   4.278 -0.1644 -0.0081 -0.1157
22453W        W38262   8.195   2.086  12.640  0.1212  0.0633 -0.2850
22454W        W38263  10.907   1.347   1.053 -0.1551  0.2383  0.2924
22455W        W38264  15.029   4.847  14.769  0.1505  0.2113  0.3320
22456W        W38265   0.221   1.497   3.160 -0.1982  0.1151  0.0599
22457W        W38266   4.492  11.475  10.557 -0.2127 -0.2771 -0.0458
22458W        W38267   0.754  10.761  13.547 -0.0244  0.0296  0.1334
22459W        W38268   1.452   4.899  10.908  0.0863 -0.2547 -0.0300
22460W        W38269   2.440  17.376  12.918  0.0770 -0.1963 -0.3418
22461W        W38270   2.330   9.737   1.845  0.1298 -0.1465  0.0472
22462W        W38271  13.749  10.825  10.808  0.1735 -0.1396 -0.1522
22463W        W38272  11.860  15.683   4.831  0.1820  0.1265 -0.4233
22464W        W38273   7.231  15.440   3.571  0.1638 -0.2451  0.0895
22465W        W38274  16.649   6.719  14.640  0.1344  0.1214 -0.0879
22466W        W38275  16.095  14.485   3.375 -0.1843 -0.2555 -0.0541
22467W        W38276  16.371   3.712  15.030 -0.0079 -0.1784 -0.3230
22468W        W38277  16.873  16.063  14.877  0.1709  0.1994 -0.1543
22469W        W38278   1.706   6.260   3.975 -0.0987 -0.1695 -0.1535
22470W        W38279   6.400  15.022   3.858  0.2023 -0.2297 -0.1099
22471W        W38280   9.478  15.701  15.212  0.1134  0.2102 -0.0119
22472W        W38281  18.230   0.314   5.141 -0.0007  0.0578  0.0119
22473W        W38282   2.651  13.274   0.984 -0.0535  0.0400 -0.3012
22474W        W38283  13.252   5.008   2.674  0.1684 -0.1665  0.2597
22475W        W38284   3.139   9.326  15.110  0.1226  0.1339  0.3307
22476W        W38285  11.659   8.008   0.421  0.2121 -0.1352  0.1402
22477W        W38286  15.027   8.120   0.197 -0.0379  0.1054  0.0006
22478W        W38287  12.283  11.917  10.030 -0.2037  0.1343 -0.2650
22479W        W38288  18.501  15.762   3.733 -0.1668  0.1615 -0.1866
22480W        W38289   2.566  11.325  12.153 -0.2264  0.0756 -0.1054
22481W        W38290  15.455   3.153   5.409  0.0560  0.1689 -0.1868
22482W        W38291  15.281  15.546   4.714  0.1051 -0.0369 -0.1714
22483W        W38292  12.085  13.999  14.303 -0.3359 -0.2123 -0.0853
22484W        W38293   9.673   1.766   4.837  0.2238 -0.0760  0.1111
22485W        W38294  10.735  18.101   4.943 -0.0347  0.2840 -0.0331
22486W        W38295  15.281   7.052   4.824 -0.2903  0.2958  0.2385
22487W        W38296  16.403   9.784   1.839  0.2707 -0.0953 -0.1454
22488W        W38297   0.092   2.593  10.651  0.0074  0.1177  0.0801
22489W        W38298  15.221  11.463  14.040 -0.0294  0.1221 -0.0831
22490W        W38299  13.060   4.112   2.135 -0.1005 -0.1329 -0.0975
22491W        W38300   8.302   4.505  12.634 -0.0882  0.1098  0.0726
22492W        W38301   3.411  16.802  13.690  0.0434  0.0415 -0.2228
22493W        W38302   4.277   9.178   0.089 -0.3531 -0.0829 -0.2130
22494W        W38303   8.076  16.013   4.469  0.0448  0.3820 -0.3585
22495W        W38304   1.220  12.914  13.677 -0.3193  0.2370  0.4400
22496W        W38305   3.409   0.702   5.736 -0.1000  0.0082  0.2063
22497W        W38306   7.730   3.097  12.471  0.0814 -0.1223  0.2854
22498W        W38307  10.575  10.969   3.167 -0.2492 -0.0213 -0.2130
22499W        W38308   2.857  10.356   5.598  0.1946 -0.1368 -0.0222
22500W        W38309   0.849   6.527   4.116 -0.0581 -0.2155  0.0206
22501W        W38310  10.700  14.014   0.714  0.1048  0.0525 -0.2957
22502W        W38311  16.501  18.353  14.431 -0.1724 -0.4261 -0.0287
22503W        W38312  18.532   6.328  11.926 -0.0256 -0.2067  0.0163
22504W        W38313   8.053  14.953   0.081  0.1482  0.0575  0.1914
22505W        W38314   3.680  16.603   2.939  0.0514  0.3347 -0.0397
22506W        W38315   1.505   7.589  12.073  0.1077  0.1376  0.0588
22507W        W38316  18.433  14.782   2.906 -0.1135 -0.1351  0.1574
22508W        W38317  15.021   9.768   0.758 -0.1997  0.0686 -0.5354
22509W        W38318   9.178  14.483  14.886  0.1319 -0.2640 -0.0671
22510W        W38319  13.700   6.889  12.713  0.2317 -0.0774 -0.0806
22511W        W38320  15.993   1.409  11.528 -0.1586  0.1598  0.1967
22512W        W38321  11.711   1.180   3.389 -0.0033 -0.0887 -0.1738
22513W        W38322  12.449   6.070   4.087 -0.1412  0.0747 -0.3018
22514W        W38323   7.586  17.639  12.273  0.1474  0.0350  0.0784
22515W        W38324  18.657   4.416   9.867 -0.0915 -0.2537  0.1560
22516W        W38325  17.376   8.632  11.603 -0.2540 -0.1943  0.0622
22517W        W38326   2.861  14.981  12.345 -0.1500 -0.1347  0.3296
22518W        W38327   9.558  13.412  11.045 -0.0843 -0.1112 -0.1439
22519W        W38328  15.841  15.402   0.960 -0.1555 -0.1650  0.0545
22520W        W38329   8.829  11.639  12.958  0.0343 -0.0576  0.2020
22521W        W38330  17.112   7.333  11.989  0.1873  0.1074  0.0272
22522W        W38331  13.185  10.575  13.360 -0.0727 -0.1863  0.0759
22523W        W38332   8.946  14.940   2.780  0.1275 -0.1023  0.1612
22524W        W38333  17.531  12.653   5.012 -0.1688 -0.0658  0.1715
22525W        W38334  13.355  13.844   0.733  0.0468 -0.2160  0.0066
22526W        W38335   2.836   8.822  10.820 -0.3254 -0.0286 -0.2716
22527W        W38336  17.506   9.466   3.304 -0.0522  0.1225 -0.0990
22528W        W38337   6.483  12.490  10.829  0.2235  0.0282  0.1532
22529W        W38338   6.070   4.225  11.511 -0.1712 -0.1660  0.4784
22530W        W38339   5.815  12.030   9.361 -0.1999 -0.0502  0.0990
22531W        W38340   0.694   4.793  11.268  0.0177  0.1067  0.1148
22532W        W38341  12.956   6.343   4.655  0.1300 -0.2835  0.1777
22533W        W38342  13.492  11.599   2.920  0.1226 -0.2370 -0.0637
22534W        W38343   2.037   5.042  10.861 -0.1655  0.1192 -0.2630
22535W        W38344   6.455  13.241  13.508 -0.0347  0.1734 -0.1030
22536W        W38345  17.808  12.741  14.403  0.0534  0.1019  0.4425
22537W        W38346  11.527   0.116  11.614  0.1319 -0.2653 -0.0502
22538W        W38347  13.278   5.021  11.796 -0.1484  0.0208  0.0792
22539W        W38348  13.418   2.107  14.343 -0.1638  0.2394 -0.3575
22540W        W38349   0.331   4.775  15.190  0.0936 -0.2855 -0.2639
22541W        W38350  12.946  12.165   2.247 -0.1678  0.2864  0.2482
22542W        W38351   6.975  14.011  10.789 -0.0804 -0.0851  0.2853
22543W        W38352  18.595  16.971   1.148 -0.2720 -0.0618 -0.0765
22544W        W38353   9.378   4.413   3.094 -0.1886 -0.3244  0.0223
22545W        W38354  16.807  11.123  12.343  0.3052  0.0735 -0.0797
22546W        W38355   7.932  11.616   0.906  0.0658 -0.0662 -0.3354
22547W        W38356  17.470  11.519   4.923 -0.3718 -0.2499  0.5799
22548W        W38357  10.592   4.484  12.574  0.0993  0.0872 -0.0692
22549W        W38358   6.818   1.212  10.512  0.1262  0.0507 -0.1942
22550W        W38359   1.771   9.575   9.407  0.0566  0.1210 -0.0585
22551W        W38360   1.547   3.743  13.998 -0.4288  0.0267 -0.1857
22552W        W38361   6.830   1.983  14.702  0.0520  0.0394  0.1203
22553W        W38362   1.974   1.530   0.425  0.3073 -0.3829 -0.2714
22554W        W38363   4.015  12.796  10.399 -0.0047 -0.0198  0.1137
22555W        W38364  15.862  13.912   5.121  0.1740  0.0895  0.4472
22556W        W38365   3.132  12.092  10.345 -0.4733 -0.1658 -0.3536
22557W        W38366  14.907  16.974   0.401  0.0178  0.1538 -0.2032
22558W        W38367  13.734   6.552   3.503  0.4492 -0.1090 -0.1675
22559W        W38368  12.062   7.985   5.418 -0.1212 -0.1317  0.3674
22560W        W38369   9.484  12.439  11.902 -0.2654  0.0650 -0.0076
22561W        W38370   1.422   7.639   5.224  0.1696 -0.1629  0.2334
22562W        W38371   0.711  18.858  13.527 -0.1095  0.1108  0.0529
22563W        W38372  15.141   1.732   0.015 -0.1740  0.1137 -0.1694
22564W        W38373   2.341  15.558   1.313 -0.2209  0.0150  0.0119
22565W        W38374   5.493  17.148  10.912 -0.0866 -0.0981 -0.0217
22566W        W38375  16.967   3.202   2.340 -0.3765 -0.2270  0.0241
22567W        W38376  11.224   2.669   2.531  0.1544  0.0366 -0.1894
22568W        W38377  16.224   6.468  13.808 -0.1849 -0.3414 -0.0560
22569W        W38378   8.399   2.792  10.521  0.0291  0.2169 -0.2063
22570W        W38379   3.845  16.526   3.429  0.1589 -0.0040 -0.1256
22571W        W38380   3.623   7.868  12.629  0.1009 -0.2954  0.0176
22572W        W38381   8.790   7.645   4.544  0.2716  0.1613  0.0947
22573W        W38382  10.204  14.915   5.003  0.0910 -0.1262 -0.1155
22574W        W38383  10.241   3.746  12.934  0.1189  0.1522  0.1408
22575W        W38384   7.896   0.323   4.002 -0.1079  0.0339  0.0177
22576W        W38385   4.210  13.088  14.817 -0.2958  0.0672  0.1549
22577W        W38386  17.787   4.532   3.207  0.1248  0.1494  0.0003
22578W        W38387  11.655   3.195   3.550 -0.0244 -0.0069 -0.1001
22579W        W38388  10.344   6.108   3.701 -0.0658  0.2651 -0.1287
22580W        W38389  12.049  12.875   1.687 -0.1134 -0.1618 -0.0453
22581W        W38390  15.395  13.483  11.165 -0.1933  0.1652  0.1590
22582W        W38391   4.560  16.894  13.951  0.0268 -0.2390  0.0186
22583W        W38392   1.827  17.561  14.372 -0.4117 -0.2454  0.3183
22584W        W38393  16.994  12.495  15.099 -0.1014 -0.0810 -0.1390
22585W        W38394   8.723  13.156   3.233 -0.0099 -0.1090  0.2674
22586W        W38395  10.530   8.319   3.653 -0.0977 -0.3129  0.0157
22587W        W38396   3.777  13.589   2.034  0.0024  0.3411  0.0840
22588W        W38397  12.467   9.269  12.862  0.0905 -0.1548  0.1536
22589W        W38398   7.458   5.137   1.150  0.1127 -0.1455  0.1195
22590W        W38399  15.265   6.017   2.228  0.0719 -0.1924  0.2852
22591W        W38400   8.380   0.429  12.963 -0.2904 -0.1226  0.2322
22592W        W38401  17.739   0.872  12.832 -0.0963  0.2463 -0.0689
22593W        W38402   8.547   4.383  11.017 -0.2703 -0.0187  0.3107
22594W        W38403  18.230   7.608   1.487 -0.1572 -0.1085  0.0083
22595W        W38404   7.261  16.348  12.474 -0.1468 -0.0017 -0.0655
22596W        W38405  14.144  10.018  11.191 -0.0979 -0.1476 -0.1067
22597W        W38406  14.393   9.348  14.606 -0.3099 -0.0235 -0.2133
22598W        W38407   4.676   7.787  11.185  0.0035 -0.0662 -0.1195
22599W        W38408   0.276  14.232   0.229  0.1478  0.2554 -0.1685
22600W        W38409   7.189  10.381  11.813  0.0610 -0.2306  0.0489
22601W        W38410   2.693  12.547  12.549  0.1242  0.2079  0.0617
22602W        W38411  11.036  12.555   0.695  0.1212 -0.1527 -0.0481
22603W        W38412   6.056   8.834  13.226  0.0508 -0.2892  0.1742
22604W        W38413   7.384  14.631  15.204 -0.1961 -0.1292  0.2069
22605W        W38414   8.156   9.299   2.643 -0.1949 -0.1616 -0.2249
22606W        W38415   8.099   9.239   4.131  0.0486  0.0627  0.0274
22607W        W38416   3.708   5.891   0.707 -0.0007  0.0232 -0.2448
22608W        W38417  12.448  17.817   4.437  0.0408 -0.1042  0.2969
22609W        W38418  10.152  17.978  14.340 -0.2285  0.0580  0.1560
22610W        W38419   9.017  15.438   2.720  0.0455 -0.1207  0.0930
22611W        W38420   9.650  16.602  12.869 -0.5396  0.2322 -0.2974
22612W        W38421   4.512   1.276   3.030  0.2168 -0.1574 -0.1328
22613W        W38422   9.365   1.067   1.267  0.0265  0.2211  0.0264
22614W        W38423  17.561  17.538   1.072 -0.2670 -0.6504  0.1362
22615W        W38424  16.397   9.316   2.017  0.1671 -0.2402  0.2142
22616W        W38425  16.457  15.592   5.424 -0.0485 -0.0093 -0.4657
22617W        W38426   2.811   6.867  15.010 -0.2686  0.1681 -0.2941
22618W        W38427  10.570  12.644  12.960 -0.0250 -0.2246 -0.1197
22619W        W38428   7.714   4.428  13.890 -0.2248 -0.0285  0.1289
22620W        W38429   2.179   4.508   4.063  0.3562  0.2073  0.2337
22621W        W38430   1.294  18.261   3.005  0.0395 -0.0155 -0.1082
22622W        W38431  18.655   4.645  10.690  0.0320  0.1267  0.0163
22623W        W38432   1.235   3.973   4.257 -0.0357  0.2823 -0.3562
22624W        W38433  14.743   9.351   0.779 -0.2036  0.0853 -0.0326
22625W        W38434  12.578  17.274   0.652 -0.0074  0.0261 -0.0855
22626W        W38435   2.504  12.917  11.206 -0.2837  0.0067  0.0776
22627W        W38436   4.867  12.515   0.770  0.0670 -0.1473 -0.2215
22628W        W38437   0.058  15.292   3.243 -0.0688  0.1781  0.3033
22629W        W38438  17.456   4.323   4.817 -0.0344  0.0904 -0.0653
22630W        W38439  16.057  16.436   3.796  0.0668 -0.0617 -0.1360
22631W        W38440   1.111   5.712   5.223 -0.0437 -0.0422  0.1487
22632W        W38441  15.692  14.183   4.689  0.1853 -0.1734  0.0739
22633W        W38442   7.291   8.278  10.343  0.4347 -0.3039  0.0608
22634W        W38443  18.775   6.482   1.372  0.0130  0.0264 -0.3254
22635W        W38444  15.077   2.697  12.613  0.4342 -0.0157  0.1468
22636W        W38445  18.318  10.945   2.871  0.4055  0.3098 -0.1982
22637W        W38446   9.195  11.865   3.134 -0.0748 -0.3174  0.4005
22638W        W38447   5.318  17.829   0.912  0.2563 -0.0124 -0.0069
22639W        W38448  18.677  10.166  13.745 -0.0569  0.1201 -0.2773
22640W        W38449  16.101  14.588   3.831 -0.1076  0.1533  0.0079
22641W        W38450  12.827  10.421  10.990  0.1717 -0.1075 -0.0972
22642W        W38451  12.928  15.777  10.937 -0.3776 -0.2146 -0.0973
22643W        W38452   3.392  16.247  15.164 -0.1271  0.0316  0.0033
22644W        W38453   8.796  10.719  12.967 -0.1107  0.3522 -0.0210
22645W        W38454   8.285  12.669   2.796  0.0263  0.0262 -0.1165
22646W        W38455   2.770  13.018  10.750  0.0682  0.1187  0.1526
22647W        W38456   3.664  15.126   1.935  0.0189 -0.0319  0.5359
22648W        W38457   8.442  14.089  11.792 -0.1297 -0.2237  0.0885
22649W        W38458  13.477  12.135   2.195 -0.0857  0.1402  0.1638
22650W        W38459   8.644   3.893   1.300 -0.1863 -0.4864  0.2123
22651W        W38460  18.390  13.517  11.945 -0.0347 -0.2784  0.0497
22652W        W38461   8.670   9.395   0.242  0.1949  0.1429  0.2184
22653W        W38462  15.502  10.718  10.619  0.1783  0.1469 -0.0929
22654W        W38463  11.694   9.928   0.713 -0.0765  0.2232  0.1520
22655W        W38464   5.762   5.270  13.602 -0.1347  0.1695  0.1601
22656W        W38465   5.277   5.574  11.408  0.2764 -0.1193  0.0447
22657W        W38466   6.590   7.355   4.106  0.0556  0.0254  0.3004
22658W        W38467  18.275   3.863   5.240 -0.2786  0.2088  0.3872
22659W        W38468   8.199   3.844   5.165  0.0680 -0.0116 -0.0639
22660W        W38469  14.744  10.344  14.177 -0.1810  0.0065  0.2021
22661W        W38470  11.564  18.487   3.309  0.0713 -0.2984  0.1778
22662W        W38471  10.262  11.885   0.412  0.1001 -0.1301 -0.1712
22663W        W38472   2.017   0.165  10.056 -0.0212 -0.4352 -0.0718
22664W        W38473   0.558   8.225  13.589 -0.1011 -0.1592 -0.4764
22665W        W38474   3.827   3.333   4.124  0.0247  0.1144 -0.2066
22666W        W38475  16.711  10.468  14.518  0.0171  0.2326 -0.1097
22667W        W38476   4.228  14.279   1.418  0.2572  0.1238  0.0526
22668W        W38477   0.656  13.051   5.047  0.0839 -0.0222 -0.0812
22669W        W38478  14.427  18.305  12.773 -0.6270 -0.0180 -0.1689
22670W        W38479  17.998   2.512   4.335  0.3160 -0.2798  0.2593
22671W        W38480  13.245   1.303   3.625  0.1513  0.0651 -0.1062
22672W        W38481   7.042   0.449   3.602  0.1940 -0.0679 -0.0392
22673W        W38482   6.979  15.027   2.844 -0.3118 -0.2843  0.1260
22674W        W38483  12.331  14.404  11.220  0.3613  0.0448  0.0509
22675W        W38484   4.062   3.729   1.417 -0.1389 -0.0282  0.2134
22676W        W38485   9.169  18.883  14.728 -0.2782 -0.0421 -0.0698
22677W        W38486  11.852  11.805   4.282 -0.0775 -0.0071 -0.0113
22678W        W38487   9.475   4.966   0.386 -0.2590 -0.1610 -0.1056
22679W        W38488   5.619   0.349  11.815  0.2118  0.1112  0.0522
22680W        W38489   1.469   5.147  13.593 -0.1215  0.0337 -0.2156
22681W        W38490   7.983  17.918  13.090  0.3289 -0.3456 -0.0723
22682W        W38491  11.844   6.737   4.271 -0.3948 -0.1395  0.0167
22683W        W38492   7.758  16.147   3.595 -0.6543 -0.0102  0.1253
22684W        W38493  10.529  14.698   0.516 -0.2832  0.2330  0.0233
22685W        W38494   3.803   8.793  10.367 -0.0737  0.2499  0.2841
22686W        W38495   3.430  14.199  11.178  0.1225  0.1552  0.0043
22687W        W38496  11.364  10.950   9.956 -0.0346 -0.1696  0.1034
22688W        W38497   4.269  16.772   4.618 -0.1900  0.0207  0.1490
22689W        W38498  12.220  12.499   0.480 -0.0144  0.0898  0.3602
22690W        W38499  18.801   2.785  13.957  0.3438 -0.3804 -0.0003
22691W        W38500   5.468   0.532  14.107  0.0668 -0.2249  0.0348
22692W        W38501  11.917   7.004  13.246 -0.2674 -0.0181  0.0888
22693W        W38502   1.458  14.980  15.024 -0.1313 -0.1297 -0.0488
22694W        W38503  12.357  18.996   4.883  0.0965  0.3463  0.1164
22695W        W38504  15.151  11.569  11.208  0.1640 -0.0083  0.0152
22696W        W38505  17.830   2.370  12.752  0.0309  0.3283  0.0636
22697W        W38506   2.222  11.191   4.988  0.0377  0.4977 -0.1028
22698W        W38507  17.126  18.808   5.430 -0.0482  0.0687  0.1442
22699W        W38508   6.551  17.376   3.582  0.3782 -0.2342  0.0992
22700W        W38509  13.011  19.035  10.776  0.2281  0.1403  0.2828
22701W        W38510  10.143   3.119   2.773  0.0544 -0.0234  0.3252
22702W        W38511  15.628  14.433   5.316  0.1679 -0.2724  0.2953
22703W        W38512   5.642   3.653   9.704  0.1251 -0.0734 -0.1680
22704W        W38513   4.967   8.690   0.398  0.1300  0.2681  0.0830
22705W        W38514  14.359  14.516   5.789  0.2099 -0.2789 -0.0742
22706W        W38515   6.368   6.734  10.284 -0.0440 -0.1286 -0.0528
22707W        W38516  11.667  11.665  13.279  0.0581  0.1720 -0.1597
22708W        W38517   0.281  16.320   4.629 -0.0814  0.2436 -0.1690
22709W        W38518   5.343  17.376   4.305 -0.1709  0.2430  0.4911
22710W        W38519  13.146   7.641   3.791 -0.0704  0.3449  0.2303
22711W        W38520  14.355  11.042  11.950  0.1891  0.0523 -0.0745
22712W        W38521  17.594  17.031  12.118 -0.2296  0.1175  0.0179
22713W        W38522  13.818   7.344   3.427  0.0688 -0.1037  0.0504
22714W        W38523   4.180  18.887   3.020 -0.1348 -0.1669  0.2267
22715W        W38524  18.834  18.854   1.464  0.1950  0.0648  0.4048
22716W        W38525  19.024   3.512  13.228 -0.1552  0.2284  0.0424
22717W        W38526   6.129   5.691  11.933  0.0657 -0.0326  0.1852
22718W        W38527   1.585  10.232  13.183  0.3169 -0.2840  0.1023
22719W        W38528  10.349  16.888   2.465 -0.0342 -0.3190 -0.1860
22720W        W38529  13.121   5.220   2.143  0.1006  0.1451  0.0419
22721W        W38530  12.356   0.867  12.731  0.2420  0.0067  0.1016
22722W        W38531   3.614  16.672   5.284  0.0852  0.2229  0.1358
22723W        W38532   3.536   7.993  13.122  0.0595 -0.0023  0.0493
22724W        W38533  12.702  10.642   5.061 -0.1014 -0.2440  0.2680
22725W        W38534   4.647  13.132  11.491  0.0401 -0.2369 -0.2191
22726W        W38535  16.676  16.720   2.561 -0.2458 -0.1793 -0.1797
22727W        W38536  11.525   5.629   0.171 -0.3081  0.3011  0.0724
22728W        W38537   3.944   0.450  13.263  0.1339  0.0106  0.2989
22729W        W38538  15.803  17.284   0.953 -0.0154  0.3096  0.3580
22730W        W38539  14.561  17.182  11.885  0.1667 -0.2579 -0.0883
22731W        W38540   4.586  15.401  13.091  0.2739 -0.0271 -0.0570
22732W        W38541  14.367  11.168  12.420 -0.1685 -0.1507 -0.2898
22733W        W38542  16.060   8.079  11.350  0.3266  0.4322  0.0117
22734W        W38543  15.714  10.117   1.246 -0.0582 -0.3542  0.0680
22735W        W38544   2.811   1.657  10.986 -0.1824 -0.0818 -0.0867
22736W        W38545  15.196  16.831  14.576  0.0045  0.2673  0.3449
22737W        W38546   0.566  13.838   3.456  0.1262 -0.2650  0.1235
22738W        W38547  14.258   6.455   2.385  0.1219 -0.3585 -0.0978
22739W        W38548  15.917  10.418   3.882  0.0531  0.0085  0.1578
22740W        W38549   7.608  10.881   9.785  0.1506 -0.1315  0.1089
22741W        W38550  17.687   5.285  12.932 -0.1267 -0.4561  0.0639
22742W        W38551   3.120   2.062  11.734  0.0178  0.0360  0.0617
22743W        W38552   6.423   6.130   4.078 -0.1563 -0.0077  0.0372
22744W        W38553  12.785   9.976   2.397  0.0040 -0.1445 -0.2052
22745W        W38554  15.147  17.900   0.859  0.1316 -0.0149 -0.1075
22746W        W38555   1.559   9.850   2.415  0.3814  0.2812 -0.1062
22747W        W38556  11.377   5.017   3.083 -0.0327 -0.0665 -0.0276
22748W        W38557   2.577  11.887   4.434  0.2992  0.3226 -0.1710
22749W        W38558  13.480  18.337   1.925  0.1935 -0.0344 -0.0186
22750W        W38559  17.965   5.624   1.783 -0.0348  0.0909  0.0803
22751W        W38560  12.634  14.763   1.491  0.3581 -0.1558 -0.1821
22752W        W38561  10.891  17.894   4.502  0.1818  0.1536 -0.1822
22753W        W38562   4.575   1.766  14.046  0.0278  0.3315 -0.0975
22754W        W38563   9.759   1.201  15.093  0.1586  0.2325 -0.1420
22755W        W38564  15.383  16.466   4.168 -0.2480 -0.0540 -0.0987
22756W        W38565   6.131   8.358   2.873 -0.1753 -0.4576  0.1860
22757W        W38566   6.516   3.487   2.237 -0.2554 -0.0903 -0.2801
22758W        W38567   0.300   9.447   3.449  0.1130  0.0554  0.1953
22759W        W38568  16.981  18.106   2.372 -0.0179  0.2995  0.2589
22760W        W38569  13.556   0.743   5.125 -0.0474  0.2935  0.0158
22761W        W38570   4.167   9.693   3.438 -0.0618  0.3115  0.1467
22762W        W38571   0.131   5.808  13.443 -0.0584 -0.1103  0.0173
22763W        W38572  18.539  12.205   4.153  0.0633 -0.0010  0.2446
22764W        W38573  17.114  13.432   0.057  0.3773 -0.0401  0.0406
22765W        W38574   2.754   3.064   2.611 -0.2755 -0.0560 -0.3474
22766W        W38575   7.644  15.779   0.804 -0.1991  0.0362  0.0536
22767W        W38576  15.068   5.317  12.311 -0.0042 -0.1555 -0.2106
22768W        W38577  16.067   9.162   3.202  0.1732  0.0029 -0.0040
22769W        W38578   5.305  14.022   3.575 -0.0841  0.0048  0.3091
22770W        W38579  17.651   7.942  13.032  0.0900 -0.4875 -0.0802
22771W        W38580  18.085  10.415  15.123  0.1436  0.0266  0.1308
22772W        W38581   8.354   9.561   1.864 -0.0468  0.0608 -0.0879
22773W        W38582  16.435   0.458   4.185  0.2598  0.0758 -0.0169
22774W        W38583   4.451  10.362  12.396 -0.0263  0.1591  0.1334
22775W        W38584  17.323   2.325   5.009 -0.2434 -0.2361  0.0222
22776W        W38585  11.116   1.648   2.030  0.2070 -0.2903  0.1929
22777W        W38586  15.838   4.035   2.524  0.1477 -0.1155 -0.2822
22778W        W38587   0.201  16.383   0.156 -0.0416 -0.0386  0.0361
22779W        W38588   3.409   4.366   3.615 -0.4445  0.1563 -0.4227
22780W        W38589   2.115  15.415  10.608  0.1391 -0.0993  0.1494
22781W        W38590   6.317   4.501   4.880  0.1696  0.0402 -0.0443
22782W        W38591   0.571  11.450   0.779 -0.2116  0.0263 -0.1250
22783W        W38592  12.987   3.522  11.154 -0.0624 -0.1582  0.2393
22784W        W38593   0.281  10.625   0.038  0.0623 -0.1357 -0.1746
22785W        W38594   2.750  17.557  12.546  0.1739  0.0016 -0.1519
22786W        W38595   8.878  14.483   1.606 -0.0333  0.2004  0.2286
22787W        W38596  14.112  16.211   2.601  0.1968  0.3977 -0.2538
22788W        W38597  17.836   4.368   1.543 -0.4555 -0.1634 -0.0380
22789W        W38598   0.012  16.773  14.519 -0.3787 -0.2936  0.0622
22790W        W38599   6.552   3.301  11.657  0.1879 -0.3223  0.0301
22791W        W38600   7.738  12.563   2.016  0.0580 -0.0443  0.1597
22792W        W38601   0.660   4.547  14.865 -0.1626  0.1248 -0.0268
22793W        W38602  11.170   4.789  11.293 -0.1724  0.1981 -0.0920
22794W        W38603   7.835   9.327  14.435  0.3089  0.3502  0.0297
22795W        W38604  11.892   1.245  13.132 -0.4774 -0.2749 -0.1417
22796W        W38605   5.552  18.112   3.849  0.0118 -0.1654  0.0840
22797W        W38606  16.569   6.329  11.084  0.2742 -0.3687  0.4159
22798W        W38607  16.903   6.748   2.072  0.0995  0.3826  0.2480
22799W        W38608  16.938   4.036  13.568  0.1434 -0.1737 -0.3080
22800W        W38609   4.506  16.823  11.077 -0.5905 -0.0253 -0.0728
22801W        W38610   0.995  12.245  10.873 -0.0939 -0.0501 -0.1617
22802W        W38611   2.532   0.720  14.681 -0.0340 -0.1755  0.0194
22803W        W38612   1.863   5.443  12.639 -0.0570  0.2861  0.0445
22804W        W38613  12.517   9.707  14.158  0.0743 -0.1043  0.0308
22805W        W38614   4.376   4.267   0.442  0.1276  0.0258  0.2348
22806W        W38615   8.957   6.099   5.081  0.2673  0.0522  0.0485
22807W        W38616   1.696   2.830   3.414 -0.1907  0.1629 -0.2023
22808W        W38617  13.932   3.709   0.022  0.1841  0.0971 -0.1352
22809W        W38618  13.518   2.283   5.682 -0.2212 -0.0999  0.0915
22810W        W38619   7.868   0.986  11.808 -0.2009 -0.1894 -0.0438
22811W        W38620  18.343  12.482   5.557  0.0821  0.1137 -0.1638
22812W        W38621   1.971   0.073   3.907 -0.0702  0.2112 -0.1225
22813W        W38622   4.629   6.732  14.271  0.2981  0.2223  0.1681
22814W        W38623   8.223   4.004  11.580 -0.0936 -0.1181  0.3728
22815W        W38624  11.135   2.961   1.857 -0.1036  0.3381 -0.3439
22816W        W38625   5.922   2.693  13.129  0.1193  0.1665  0.1912
22817W        W38626  11.490   7.464   1.629 -0.1371  0.0909  0.1718
22818W        W38627   5.981  18.534  11.043  0.1231  0.2178 -0.3109
22819W        W38628   9.283  10.234  14.331  0.0926  0.1897  0.1192
22820W        W38629   9.611  15.470  11.465 -0.2352 -0.2040  0.1198
22821W        W38630  14.815   4.824  12.889  0.0569  0.5689  0.1185
22822W        W38631   9.719   2.921   1.916  0.0921  0.4025  0.0872
22823W        W38632  13.557   2.917  11.744  0.0709 -0.1299 -0.1548
22824W        W38633   2.249   0.923  12.718  0.4202  0.0251 -0.1150
22825W        W38634  16.195   9.660  11.180 -0.0554  0.0874 -0.1698
22826W        W38635  11.891   5.346   0.349 -0.2818 -0.1655  0.0472
22827W        W38636  12.386   7.888  10.680 -0.0997 -0.1291  0.1786
22828W        W38637  18.972   2.956   3.417  0.2416  0.1920 -0.0106
22829W        W38638  16.663  18.436  10.916 -0.0242 -0.2732 -0.3342
22830W        W38639  13.450   3.693   2.188  0.0332 -0.4714 -0.1677
22831W        W38640  10.134  11.885  13.521  0.0860 -0.4298 -0.2175
22832W        W38641   5.223  15.393  14.992  0.1583 -0.3763  0.1430
22833W        W38642  14.240   4.156  12.284 -0.0327 -0.2905  0.3653
22834W        W38643  17.229   6.896   9.885 -0.2471  0.2164  0.0327
22835W        W38644   4.862  10.920  13.559 -0.1291 -0.0784  0.0799
22836W        W38645   1.763  10.059   3.607  0.0236  0.2040 -0.1688
22837W        W38646   8.605  15.289  12.414 -0.1395 -0.1910  0.0862
22838W        W38647  12.738   0.969  10.998 -0.0091 -0.0306 -0.0265
22839W        W38648   4.874   6.765   0.651  0.1020 -0.1683 -0.4203
22840W        W38649   6.455  12.854   2.813  0.2401 -0.2184  0.2783
22841W        W38650  16.846  18.414   3.290  0.1278  0.1153 -0.3512
22842W        W38651   3.222   5.771   4.530 -0.3293 -0.0098 -0.2808
22843W        W38652  14.445   0.575   1.464 -0.5412 -0.0858 -0.2435
22844W        W38653   9.320  11.477   2.632  0.2576 -0.1686 -0.1622
22845W        W38654  14.647   6.728   2.260  0.1840  0.0172 -0.0277
22846W        W38655   9.900  13.468  15.127  0.0058  0.1882  0.3091
22847W        W38656  12.846   4.325  13.396 -0.0694  0.0220 -0.1143
22848W        W38657  10.657  12.391   3.160  0.1736  0.0326  0.0427
22849W        W38658  12.835  13.026  15.115 -0.1338 -0.0093  0.1190
22850W        W38659   3.342   6.158  12.202  0.0542 -0.3340 -0.0315
22851W        W38660   6.151   3.151  14.901  0.3236 -0.0303 -0.0141
22852W        W38661  12.604  15.591   5.071  0.0711 -0.2215  0.0669
22853W        W38662   5.897   6.777   1.200 -0.3401 -0.1647  0.0784
22854W        W38663  14.331  14.271  11.368 -0.0670  0.0094  0.0493
22855W        W38664   3.250  10.105   3.148 -0.0831  0.0086 -0.0665
22856W        W38665   9.077   3.984   4.567 -0.1241  0.2219 -0.0242
22857W        W38666   3.331   6.086   2.116 -0.0056 -0.0475  0.2588
22858W        W38667  13.593   0.774  15.127 -0.0344  0.0683 -0.0155
22859W        W38668   1.129  16.086   2.762  0.0858  0.2391 -0.1122
22860W        W38669   1.857   3.733  10.845 -0.0689  0.1818 -0.0267
22861W        W38670  17.223   0.858  14.756  0.2479  0.0561 -0.0998
22862W        W38671   4.198   8.592  12.976  0.0339  0.0132  0.0644
22863W        W38672   5.285   5.990  10.196  0.0325  0.0887  0.2026
22864W        W38673  12.603   1.590  11.192 -0.2216  0.3004 -0.0217
22865W        W38674  13.706  17.904   2.080 -0.0060 -0.2387  0.1592
22866W        W38675   8.068   8.609   4.310  0.1484 -0.1831  0.0355
22867W        W38676  17.553  13.477  15.061  0.0338  0.1613 -0.1864
22868W        W38677  17.056   6.845   0.686 -0.0569  0.0912  0.0128
22869W        W38678  17.288  10.047   0.287 -0.2148 -0.0140 -0.1532
22870W        W38679   4.018  12.791  13.511  0.0312 -0.0097  0.0150
22871W        W38680   4.878   1.586  10.329 -0.1650  0.0391  0.0631
22872W        W38681  17.355   0.535   4.044 -0.2267 -0.1015  0.2000
22873W        W38682  14.305  15.771   0.143  0.1540  0.0426 -0.0625
22874W        W38683   2.141   4.091  10.583 -0.2736  0.1352  0.0003
22875W        W38684   7.202  16.887   1.436 -0.0355  0.2215 -0.0168
22876W        W38685   0.401  13.502   0.659 -0.1887 -0.0151  0.1447
22877W        W38686  16.085  12.763  12.004  0.0223 -0.0948  0.2913
22878W        W38687   7.019  18.261  13.983 -0.1894 -0.1398 -0.0505
22879W        W38688   7.546   1.499   1.126 -0.0516 -0.1219  0.2888
22880W        W38689   2.066   5.633   3.737  0.1027  0.2228  0.4730
22881W        W38690  11.263  10.254  10.563  0.1557  0.1716 -0.1108
22882W        W38691  18.899  17.177   0.367  0.1568 -0.0754  0.1372
22883W        W38692   0.753   4.229   3.970 -0.2357  0.1322 -0.4834
22884W        W38693  10.008   6.432  10.797 -0.2194 -0.1662  0.0717
22885W        W38694   9.181   1.961   4.159 -0.2429 -0.3409 -0.2304
22886W        W38695   5.918   6.398  14.791 -0.2871 -0.0976  0.2736
22887W        W38696  16.414   1.673   1.225  0.0031  0.1591 -0.0808
22888W        W38697  18.596  10.743  12.934  0.0110 -0.0907  0.1173
22889W        W38698  12.764   0.959   5.881  0.2215 -0.0490 -0.2709
22890W        W38699   2.427  10.393   2.091 -0.1872  0.3044  0.0664
22891W        W38700   6.893  13.457   4.150  0.3128 -0.2139 -0.0772
22892W        W38701   3.289  16.801   2.606 -0.0891  0.1372  0.1287
22893W        W38702   5.064   8.833   0.977  0.0585  0.4176 -0.0259
22894W        W38703   6.837   5.770  14.814  0.2003 -0.2763 -0.2358
22895W        W38704  15.352   5.766   0.886  0.2303 -0.2024  0.1061
22896W        W38705  10.188   5.479   4.625  0.0443  0.0962 -0.0337
22897W        W38706  16.194   7.346   4.580  0.3416  0.0566  0.1379
22898W        W38707  16.496   2.927  12.633  0.0798  0.0653 -0.3024
22899W        W38708  11.179  17.097  12.676 -0.1990  0.2524 -0.2453
22900W        W38709   0.619   4.205   3.496 -0.3276 -0.1908 -0.0215
22901W        W38710   5.804  18.191  10.216 -0.0015  0.3404 -0.3154
22902W        W38711  14.157  12.951   4.137  0.0328 -0.2092  0.0782
22903W        W38712   1.016  10.468  12.530 -0.0909  0.3001  0.0948
22904W        W38713  11.937   3.557  11.525  0.1017 -0.0376  0.1913
22905W        W38714   8.882   2.787   2.738 -0.1805 -0.0747 -0.0762
22906W        W38715   6.795   7.155  12.961 -0.2454  0.1617 -0.0570
22907W        W38716   8.220   3.616   1.221 -0.0482  0.1815  0.2048
22908W        W38717   0.644   9.857  12.884 -0.1491  0.2191  0.0477
22909W        W38718  14.046  16.484  10.926  0.1281  0.1815  0.0515
22910W        W38719   9.131   9.063   1.086  0.0840 -0.1464  0.0270
22911W        W38720  17.809  17.279  13.504 -0.1076  0.0534  0.3229
22912W        W38721   0.162  13.054   0.971 -0.2432  0.1635 -0.1350
22913W        W38722   4.355   1.033  10.229  0.0849 -0.0170 -0.0183
22914W        W38723   6.103   3.149  10.958  0.1844  0.0514 -0.1655
22915W        W38724  15.852   2.482   9.751 -0.0088 -0.3209 -0.3038
22916W        W38725   5.103   2.424  12.176 -0.1258  0.5727 -0.1020
22917W        W38726  18.916   4.940  14.780 -0.0701  0.1648  0.1550
22918W        W38727   1.724   8.397   1.875 -0.0615  0.1639 -0.1298
22919W        W38728  16.059   2.654  12.587  0.0717  0.3902 -0.1184
22920W        W38729   4.882   2.036  11.114  0.1815 -0.0852  0.0532
22921W        W38730  17.100   7.677  14.614  0.2869 -0.1709  0.2404
22922W        W38731  10.721   4.602   4.180 -0.1823 -0.0375  0.1397
22923W        W38732  17.154  15.221   1.008  0.0057 -0.0062  0.2184
22924W        W38733   0.452  14.201  14.372  0.4303 -0.3318  0.1081
22925W        W38734  13.514   3.979   4.821  0.0308  0.0402  0.0628
22926W        W38735   6.670  14.083   0.517  0.0749 -0.1397  0.0045
22927W        W38736   0.665   8.877   2.131  0.2214  0.0600  0.0861
22928W        W38737  14.168   3.700  12.541 -0.0226 -0.1224 -0.3428
22929W        W38738  13.942  15.363   0.185 -0.1701  0.4062 -0.0189
22930W        W38739   4.454  12.468  13.353 -0.2496 -0.3077 -0.0006
22931W        W38740   9.341   7.607  12.490  0.0445  0.3968 -0.0830
22932W        W38741   9.771  10.644   1.037  0.2580  0.2481 -0.2746
22933W        W38742  14.659  10.724  11.091 -0.1467  0.0181  0.1012
22934W        W38743   0.622   2.955  15.077 -0.0380  0.1569  0.2262
22935W        W38744   3.630  15.827  14.070 -0.0607  0.0549 -0.0331
22936W        W38745   9.892   6.134  14.768 -0.1095 -0.1046  0.0183
22937W        W38746  10.799  12.034  12.423 -0.0081  0.1517  0.2070
22938W        W38747   5.653  10.383   4.019  0.1329 -0.0992  0.2506
22939W        W38748  11.245   5.335   4.670  0.4019 -0.1321 -0.2324
22940W        W38749  18.336  14.616  11.146  0.0939 -0.3168 -0.2583
22941W        W38750   6.588   2.506  14.236 -0.0171 -0.0722  0.0717
22942W        W38751   3.824   1.879  10.616  0.0799  0.2103  0.1590
22943W        W38752   8.014  11.811   4.205  0.0205 -0.3420  0.2502
22944W        W38753  12.950   9.682   3.534  0.0419 -0.0302 -0.0293
22945W        W38754  18.362   8.670   4.262 -0.1717  0.1735 -0.0628
22946W        W38755  17.793  16.450   1.331 -0.3061  0.0760  0.0199
22947W        W38756  18.530  15.871  15.088  0.3395  0.2389  0.0382
22948W        W38757  11.055   3.204  11.427  0.1079  0.2440 -0.3033
22949W        W38758  17.798  14.828  11.466  0.0428  0.1538 -0.0569
22950W        W38759   6.542   3.336  11.142 -0.0293 -0.2151  0.2137
22951W        W38760   8.898   1.637  13.975  0.0376  0.0517  0.2265
22952W        W38761  14.569   9.783   1.025  0.0241  0.0190 -0.3019
22953W        W38762  17.844   5.178   6.352  0.0910  0.4644 -0.2197
22954W        W38763  17.682   5.448  11.921 -0.1294  0.0690 -0.0077
22955W        W38764  11.032  10.744  11.760 -0.0852  0.0611 -0.0699
22956W        W38765   3.420  13.061  11.360  0.0890  0.3018 -0.2190
22957W        W38766   7.479   8.055  11.379 -0.2410 -0.2707 -0.1702
22958W        W38767  10.807   2.615   3.352 -0.3042 -0.0150 -0.0872
22959W        W38768   3.265  13.622  14.915 -0.1450 -0.0003 -0.1968
22960W        W38769   9.101   9.788  14.532  0.0432 -0.0540 -0.2555
22961W        W38770   0.136  13.608   2.440  0.5332  0.0305 -0.1471
22962W        W38771  10.551   4.259   1.694 -0.0501  0.0207  0.0581
22963W        W38772  16.984  10.275   4.532 -0.2727  0.0584  0.0860
22964W        W38773  15.159  16.605   2.749 -0.0735  0.1957  0.0635
22965W        W38774   4.648   8.207  10.798  0.2313  0.3866  0.1088
22966W        W38775   9.331  14.601   5.576  0.1870 -0.0097  0.1036
22967W        W38776   1.235  12.780  10.550 -0.1884 -0.1109  0.2180
22968W        W38777   8.795  17.843  12.097  0.0198 -0.2025 -0.0395
22969W        W38778   1.416   5.437   1.393 -0.0205 -0.0421 -0.1524
22970W        W38779  18.581   3.275  13.262 -0.2091  0.2053  0.1622
22971W        W38780   5.250   4.484  13.359  0.3656 -0.1969 -0.0575
22972W        W38781   6.517   6.659   2.379 -0.2039 -0.0067 -0.0455
22973W        W38782   5.373   1.700   4.278 -0.0431  0.2946  0.0228
22974W        W38783   2.224  12.848   3.771 -0.2666  0.2006  0.0305
22975W        W38784   3.601   6.136   4.311  0.0999  0.0987  0.1370
22976W        W38785   2.906  15.813  13.005 -0.0743  0.2172 -0.1102
22977W        W38786  12.280   9.943   3.610  0.0403  0.1530 -0.2541
22978W        W38787  10.685  10.739   2.709  0.0753  0.1653 -0.0677
22979W        W38788  18.532  17.571   0.045 -0.1096 -0.2017 -0.2201
22980W        W38789   2.981  13.671  12.908 -0.1579 -0.0453  0.0339
22981W        W38790   1.619  15.976   3.040  0.1497  0.1333  0.1277
22982W        W38791   3.638   3.544   3.595 -0.1605 -0.0176 -0.0406
22983W        W38792  18.112   5.289   4.476 -0.0783 -0.0693  0.0340
22984W        W38793  18.112   2.435  13.237 -0.1932 -0.2906  0.0574
22985W        W38794   3.962  14.497   4.655  0.0575 -0.0983  0.0433
22986W        W38795  11.248   2.347   4.177  0.1177  0.0375 -0.0260
22987W        W38796   7.631  10.268  11.593  0.0454  0.0505 -0.0515
22988W        W38797  11.444  14.384   3.560 -0.0244 -0.0148 -0.1663
22989W        W38798   6.342  17.986  13.029 -0.2166 -0.1485 -0.2940
22990W        W38799   5.811   8.333  10.882 -0.1538  0.0654  0.1093
22991W        W38800  13.728  16.442  12.098  0.1679 -0.4712 -0.0414
22992W        W38801   4.048   2.491  15.267  0.4495 -0.1219 -0.0286
22993W        W38802  17.759   1.372  10.855  0.1959  0.1003  0.2298
22994W        W38803   7.000   6.528   1.939 -0.0386 -0.3688 -0.1776
22995W        W38804   4.101   0.516   9.812 -0.1475 -0.0436  0.0786
22996W        W38805   8.921  17.304  10.169 -0.4567 -0.0484  0.2611
22997W        W38806  16.577  10.692  13.040 -0.0684  0.1469  0.1398
22998W        W38807  12.335  12.769   1.044  0.0728 -0.2150  0.2495
22999W        W38808  14.533  13.982   2.061 -0.0486  0.1045 -0.4013
23000W        W38809  18.068  10.435  13.053  0.0500  0.2240 -0.0978
23001W        W38810  17.410  12.450   2.062 -0.0037  0.1559 -0.1196
23002W        W38811   2.648   0.697  14.197 -0.0928  0.0061 -0.1317
23003W        W38812   0.210   0.093  13.258  0.1463 -0.1358 -0.1960
23004W        W38813   6.930  18.250  13.345  0.2650  0.0179 -0.0700
23005W        W38814   5.402   2.113   0.140  0.1288  0.3770 -0.0171
23006W        W38815   0.862   7.702   0.708  0.1170 -0.1062  0.3918
23007W        W38816   0.268   3.619  11.774 -0.0429  0.0642 -0.2092
23008W        W38817   6.903  10.680  10.640  0.0024  0.0597 -0.1877
23009W        W38818  18.084   1.685   1.555 -0.0029 -0.0616 -0.1325
23010W        W38819   5.991  17.187  10.939 -0.1492  0.1350 -0.1667
23011W        W38820  16.095   8.132   0.394  0.1671  0.0516 -0.0610
23012W        W38821   6.670   4.974   2.074  0.1726 -0.1238  0.1829
23013W        W38822   8.985  15.574   1.736  0.0721  0.2436 -0.1229
23014W        W38823   4.718  17.227  14.823  0.1252 -0.1930 -0.0610
23015W        W38824   5.782   9.202  15.216  0.0463 -0.1255 -0.2246
23016W        W38825  12.523  17.885   2.332  0.0194  0.0054  0.0273
23017W        W38826  13.333   5.694  13.421  0.2178  0.2149  0.0207
23018W        W38827   5.271  11.156   2.440  0.2269  0.2324 -0.2451
23019W        W38828   5.062   1.122   3.351  0.1929 -0.0299 -0.0801
23020W        W38829  16.005   5.190  11.172 -0.0463  0.1730  0.0485
23021W        W38830  14.738  16.706  11.936 -0.0429 -0.0554 -0.2666
23022W        W38831   0.810   2.656  10.219 -0.3273  0.0055  0.0624
23023W        W38832  13.713  12.162   4.223  0.1280  0.1653  0.0163
23024W        W38833   5.004  15.411   1.655 -0.0291  0.2216  0.0012
23025W        W38834   0.704  18.954   3.661 -0.2063  0.0568 -0.0812
23026W        W38835  17.289  11.981   4.543 -0.0217  0.0953 -0.1200
23027W        W38836   1.780   5.701  14.982  0.1438 -0.2325 -0.2467
23028W        W38837   1.652  11.339   3.103 -0.1363  0.1132 -0.3901
23029W        W38838  12.586   0.398   4.907 -0.1365 -0.2862 -0.2145
23030W        W38839  11.030   1.395   2.882 -0.1806 -0.2710  0.0924
23031W        W38840  17.482   6.475  14.514  0.5598 -0.1787  0.3845
23032W        W38841  13.274   7.691  11.455  0.0215 -0.0253  0.2153
23033W        W38842  10.798  11.435  11.537 -0.1152 -0.1802 -0.0366
23034W        W38843   1.047   5.627   1.744  0.0674  0.1412 -0.1327
23035W        W38844  11.177   2.226  14.600 -0.0188 -0.1697  0.2417
23036W        W38845   0.476   7.601   0.949  0.2569  0.1042  0.0939
23037W        W38846   9.868   3.814   2.476  0.2212  0.0927 -0.1923
23038W        W38847  15.903   1.190   3.091 -0.4535  0.0465  0.1922
23039W        W38848   0.769  12.747   0.343  0.1334  0.1289  0.2786
23040W        W38849  11.655  17.450  11.318  0.2403  0.3836  0.0789
23041W        W38850   4.026  12.016  14.622  0.2799  0.1102  0.0682
23042W        W38851  19.021   8.500   3.322 -0.1594  0.3131  0.4997
23043W        W38852   0.334   7.114  14.017  0.1461 -0.2763 -0.2734
23044W        W38853  14.052   6.195   2.879 -0.1502 -0.1690 -0.0502
23045W        W38854   5.731  11.301  13.861 -0.4489 -0.2508  0.3118
23046W        W38855  13.676   1.327   0.402 -0.1942  0.0301  0.1500
23047W        W38856   6.299  10.589  14.341 -0.1255  0.0400  0.1896
23048W        W38857  17.839  10.019   3.900 -0.1038 -0.2655 -0.1742
23049W        W38858   2.630   0.816  10.693  0.3551  0.2452  0.4631
23050W        W38859  12.368  16.806  13.353 -0.0382 -0.1314 -0.0774
23051W        W38860  15.746   8.020   4.044  0.1795  0.6142  0.0909
23052W        W38861   1.429  18.866   0.407  0.6474 -0.0363 -0.1083
23053W        W38862  10.855   5.986   4.029  0.1018  0.1377 -0.0127
23054W        W38863  15.205  11.928   4.782 -0.3445  0.2010  0.0724
23055W        W38864   3.849   9.699  10.524 -0.1530 -0.0005  0.0177
23056W        W38865  17.350   7.651   5.077  0.3146 -0.3089  0.2923
23057W        W38866  12.400   0.619   3.523  0.0133 -0.2112  0.2180
23058W        W38867   2.986   7.263  10.897  0.0355 -0.1718  0.0439
23059W        W38868   8.561  13.093   0.009  0.1538  0.4744 -0.3796
23060W        W38869   3.899   5.861  13.677 -0.0749 -0.0034  0.1132
23061W        W38870   2.929  13.581  12.209  0.1123 -0.2491 -0.0620
23062W        W38871  17.314  16.042   4.200  0.2396 -0.0092  0.0252
23063W        W38872  10.208  11.522  14.819 -0.5195  0.0491 -0.0377
23064W        W38873   1.173   2.216   3.169 -0.0615  0.0360 -0.2732
23065W        W38874  10.562   5.680   4.985 -0.1933  0.0704 -0.0097
23066W        W38875   7.262   2.480   3.239  0.3195 -0.0123  0.2954
23067W        W38876  16.169  11.394   4.666 -0.0705  0.1071 -0.2201
23068W        W38877  16.344  13.648  13.527  0.2758 -0.1880  0.0832
23069W        W38878   4.311  17.473   0.959 -0.0725  0.0020  0.1048
23070W        W38879   4.975   4.287   0.880 -0.1041 -0.0759  0.3786
23071W        W38880  16.410  18.440   1.132 -0.1021  0.0195  0.2249
23072W        W38881  13.575  11.366   0.274 -0.0745  0.0715  0.0509
23073W        W38882   1.964  17.548  12.061 -0.1035 -0.0941 -0.2064
23074W        W38883  12.880  14.407   0.018 -0.0861  0.1413 -0.0103
23075W        W38884   4.551  16.539  11.484 -0.1184 -0.2577  0.3057
23076W        W38885   4.409  12.382   0.908  0.1357 -0.0324  0.3691
23077W        W38886   8.606   4.908   4.266  0.0189 -0.0110  0.2236
23078W        W38887  16.882  18.529   1.486 -0.1162  0.0288 -0.2132
23079W        W38888  17.192  13.424  12.667 -0.0776  0.0666 -0.1189
23080W        W38889  14.272  13.176   4.582 -0.1428  0.0329  0.2055
23081W        W38890  15.838   0.082   2.050  0.0232 -0.0296  0.0334
23082W        W38891   5.630   0.273   3.117  0.0713 -0.0218  0.0489
23083W        W38892   8.431   2.933  14.352 -0.0146 -0.0502  0.0037
23084W        W38893  18.426  16.064   1.408  0.0891  0.3481  0.0317
23085W        W38894  18.476  12.739   3.656 -0.1125 -0.1374 -0.0233
23086W        W38895   1.006  18.207   4.324  0.0340  0.3153 -0.3320
23087W        W38896   6.272   1.381  11.029 -0.0454 -0.2685 -0.0110
23088W        W38897   0.116   7.636   3.810 -0.1585  0.0272 -0.4123
23089W        W38898  10.163   6.130  10.376 -0.2733  0.1867  0.1059
23090W        W38899  11.337   1.284   2.301  0.1892 -0.3940  0.3678
23091W        W38900   6.013   2.120   2.964 -0.0183  0.3865 -0.1229
23092W        W38901   4.059   1.558   1.935  0.2193 -0.0486 -0.1042
23093W        W38902  13.460   6.653   1.235 -0.1019 -0.0154 -0.0005
23094W        W38903  13.933   3.066  10.429 -0.2510 -0.1162 -0.1588
23095W        W38904  17.153   4.046  11.925  0.2009 -0.0887 -0.2983
23096W        W38905  11.238  12.474   3.071 -0.2800  0.1265 -0.1647
23097W        W38906   5.336  16.948  14.383  0.0450 -0.0592  0.0539
23098W        W38907  11.662   3.300  12.271 -0.0159 -0.3333 -0.2005
23099W        W38908   3.765  17.248  11.637 -0.1554 -0.1484  0.2451
23100W        W38909  11.135   8.501   3.046  0.1062  0.1706 -0.3082
23101W        W38910   3.659  16.470   1.306  0.1091  0.2786  0.0408
23102W        W38911   9.422   9.574  13.040  0.0756 -0.2562 -0.0081
23103W        W38912   5.168   5.895  13.168 -0.0400  0.1475  0.0410
23104W        W38913  17.115  10.508  11.644 -0.0435 -0.0510 -0.0173
23105W        W38914   4.479   2.448   3.380 -0.0727  0.2832  0.3691
23106W        W38915   9.179   1.519   2.044 -0.0677  0.0840 -0.0191
23107W        W38916  11.560  12.061  10.796 -0.0970  0.1277  0.2232
23108W        W38917  10.188   9.497  13.827  0.1002 -0.1080 -0.0060
23109W        W38918   9.027  18.760   0.182  0.0637 -0.1599  0.0332
23110W        W38919   6.873  13.162   0.354 -0.0184  0.1610 -0.0503
23111W        W38920  10.008  17.498  12.996 -0.1899  0.0500  0.0158
23112W        W38921   3.818  12.947   1.660 -0.1327  0.2482 -0.2349
23113W        W38922  13.842  15.198   5.231  0.0801 -0.0752 -0.3576
23114W        W38923  14.676   3.871  11.411  0.0522  0.1429 -0.0334
23115W        W38924  15.311   6.862  12.350 -0.3589  0.1403 -0.0065
23116W        W38925   5.278   9.262   0.801  0.1598 -0.0895 -0.0005
23117W        W38926  15.692  17.844   3.962 -0.0908 -0.1012  0.0996
23118W        W38927  10.906   3.176   5.799 -0.3882  0.0475 -0.0038
23119W        W38928   6.371  18.017  12.524  0.0506 -0.0139 -0.0377
23120W        W38929   6.052  15.558  13.944 -0.0488  0.0793  0.1183
23121W        W38930   9.748   0.014  13.375 -0.1008  0.0678 -0.2205
23122W        W38931  17.657  18.442   6.159  0.0002  0.3525 -0.1384
23123W        W38932   7.398   3.393  13.001 -0.1286 -0.2509 -0.4187
23124W        W38933   5.672   2.683   4.048  0.2028 -0.2738  0.2880
23125W        W38934  12.808   6.823   0.311 -0.1732  0.0827  0.0807
23126W        W38935  11.569   1.781  15.230  0.2797  0.0858  0.1894
23127W        W38936  10.227  16.228   4.271  0.1051 -0.2826  0.2061
23128W        W38937   2.979  10.606  13.307 -0.1738  0.0727  0.0185
23129W        W38938  14.654   1.856   5.163  0.1429 -0.2356  0.1203
23130W        W38939  17.912   9.193   3.576 -0.0336 -0.0234 -0.1850
23131W        W38940   1.925   5.608   4.894  0.1566 -0.0405  0.0960
23132W        W38941  13.942  13.637  13.554  0.3337 -0.1388 -0.3418
23133W        W38942   8.305   9.222   0.994 -0.0327 -0.2350  0.1267
23134W        W38943  13.549  12.585  10.893  0.3739 -0.1893  0.1781
23135W        W38944  11.951   4.506   0.898  0.1044  0.0104  0.0927
23136W        W38945  17.086  16.974   3.206 -0.0882 -0.2425  0.1189
23137W        W38946  13.671   6.602  13.752  0.0461  0.0883 -0.1459
23138W        W38947  13.241   0.511  14.905 -0.1695 -0.3860  0.0107
23139W        W38948  14.933   4.540  10.856  0.2601 -0.0662 -0.0877
23140W        W38949   0.641  15.402  10.452  0.5069  0.0818 -0.3383
23141W        W38950  12.510  12.459  12.089  0.2097  0.1022  0.0684
23142W        W38951  18.671   6.102  14.438 -0.2373 -0.1141 -0.1381
23143W        W38952   6.912   4.443  11.218  0.0290 -0.3930  0.2612
23144W        W38953  12.933   5.649   1.692  0.2326  0.1791 -0.0920
23145W        W38954   4.414  16.089  11.896 -0.0861  0.1609 -0.1715
23146W        W38955   6.436  13.779  10.196 -0.2456 -0.0501  0.2875
23147W        W38956   2.287   9.492  12.780  0.2948  0.1947  0.1053
23148W        W38957  18.977   6.621   0.890 -0.3036 -0.0439 -0.0339
23149W        W38958   4.172   4.606   3.402  0.1522  0.2374  0.1579
23150W        W38959   1.710  17.475   0.242 -0.0426  0.0649  0.0408
23151W        W38960   3.547   0.940   2.308  0.1371 -0.1077  0.0139
23152W        W38961  13.131   3.254   2.341 -0.1063 -0.1794  0.0104
23153W        W38962   9.409   1.852   1.386 -0.2585  0.0408 -0.6270
23154W        W38963  14.240  18.367  10.739  0.1814 -0.0503 -0.2666
23155W        W38964   8.796  11.593   1.822  0.1229 -0.1859 -0.2106
23156W        W38965  11.051   9.156   5.034 -0.0550 -0.7099 -0.1300
23157W        W38966   6.495  10.717   9.790  0.0638  0.1264  0.0926
23158W        W38967  18.215  17.576   2.509 -0.2002  0.2044  0.0718
23159W        W38968  15.543   9.657   0.688 -0.2222 -0.1325 -0.0909
23160W        W38969  14.631   8.007  14.543 -0.0923 -0.3501 -0.2028
23161W        W38970  18.081   0.349  14.840 -0.0231  0.1796  0.1896
23162W        W38971   0.796   2.638   2.765 -0.0193  0.0164  0.0902
23163W        W38972   2.605   1.172  11.171  0.1075  0.0394 -0.0452
23164W        W38973  15.002  18.992  13.462  0.1348 -0.0062 -0.0852
23165W        W38974  11.373  16.967   0.508 -0.1166  0.2589  0.0280
23166W        W38975   3.924  18.894  13.194  0.4255 -0.0584 -0.0610
23167W        W38976  17.896  12.970   5.331  0.0567 -0.0178  0.0236
23168W        W38977   3.225   5.795   0.296 -0.2437  0.0888  0.1341
23169W        W38978  15.482  18.997   5.255 -0.0364  0.0015  0.1086
23170W        W38979   2.824  16.363  11.259  0.2779  0.0202 -0.4315
23171W        W38980   7.989  15.925  12.861 -0.0433  0.0442 -0.2118
23172W        W38981   2.624  12.423   2.023  0.0751 -0.1625  0.2883
23173W        W38982  11.747   8.787  14.592  0.2581  0.2667 -0.0950
23174W        W38983   8.596   3.281   0.635  0.2763 -0.5526 -0.1403
23175W        W38984  16.535   2.447   4.090 -0.1122  0.0850  0.0321
23176W        W38985   2.498  13.583   3.843  0.0875  0.1834  0.1731
23177W        W38986   6.487  14.006   0.952 -0.0152  0.2424  0.3367
23178W        W38987   7.595  12.333   4.705  0.2676 -0.1248 -0.0691
23179W        W38988   5.423  17.931  13.406 -0.1844  0.0211 -0.0100
23180W        W38989  13.142  16.107   1.530  0.1360 -0.0141  0.1005
23181W        W38990   5.419   6.118  11.411 -0.4533  0.0445  0.0600
23182W        W38991   5.542  16.048   3.666  0.0016  0.2148 -0.0180
23183W        W38992  14.384   1.870  11.567  0.1948 -0.4548  0.1181
23184W        W38993   6.132  18.308  12.086 -0.1714  0.1377 -0.1330
23185W        W38994  12.988  13.495  14.209  0.2900 -0.1079  0.2904
23186W        W38995   3.874   7.503  12.399  0.1816 -0.2818 -0.0351
23187W        W38996  18.209  12.263   5.014  0.0035  0.2055  0.0554
23188W        W38997   7.239   9.082   2.536 -0.1638  0.3251 -0.3542
23189W        W38998  13.571  11.011   0.758  0.0553 -0.0896  0.0156
23190W        W38999   2.254   7.780   1.226  0.0462 -0.0550  0.1815
23191W        W39000  10.395  15.913  12.735  0.1408  0.0198 -0.1946
23192W        W39001  18.538   7.950   2.289 -0.1269  0.0011  0.2526
23193W        W39002   8.068   5.942  14.660  0.1316  0.0850 -0.1869
23194W        W39003  10.395  18.322   1.496  0.3573  0.0432 -0.1931
23195W        W39004  13.059  18.158   0.181  0.1020 -0.1467  0.0200
23196W        W39005   0.768   4.799   4.583  0.1821  0.0423  0.0007
23197W        W39006  17.522  10.012   3.531 -0.0700  0.0021  0.1578
23198W        W39007   0.246  14.175  10.791 -0.2507 -0.4622  0.0890
23199W        W39008  13.337  11.516  15.167 -0.0392  0.1373  0.2050
23200W        W39009   1.964   5.802   2.390  0.4334 -0.2020 -0.1878
23201W        W39010  16.513   6.335   0.511 -0.3291 -0.1333 -0.0593
23202W        W39011   9.950   1.352   0.829  0.3373 -0.0029 -0.1838
23203W        W39012   5.461   1.439  14.992  0.0100 -0.0331  0.2519
23204W        W39013  17.182   2.109   2.486 -0.2370 -0.2312 -0.0836
23205W        W39014   3.807   7.551   4.143 -0.0886 -0.0272 -0.1397
23206W        W39015  12.943   8.153  12.929  0.1435 -0.0691 -0.0108
23207W        W39016   8.882   7.777  12.730  0.1239 -0.0298 -0.0219
23208W        W39017   4.316   8.224   0.222  0.2656 -0.0237  0.0819
23209W        W39018   6.965  10.192  12.886  0.0655 -0.3029 -0.2890
23210W        W39019   3.232   2.847  14.911  0.1717  0.2649  0.2352
23211W        W39020   6.359   1.223   3.509  0.1004 -0.0599 -0.2345
23212W        W39021  14.019  14.616  11.310 -0.0302  0.1680 -0.2386
23213W        W39022   2.631   6.737  10.074 -0.1505 -0.2004 -0.0078
23214W        W39023  13.961   3.014   4.155 -0.1689  0.1337 -0.0477
23215W        W39024  18.914   5.843  12.000  0.1125  0.0585  0.5060
23216W        W39025   8.028  16.718   0.130  0.1489  0.0609 -0.2467
23217W        W39026   4.708  11.437   4.129 -0.3200  0.0186 -0.1531
23218W        W39027  12.912  13.907  13.085  0.0805  0.1497  0.1888
23219W        W39028  12.360  10.361   1.026  0.2299 -0.1520  0.4201
23220W        W39029   5.128  16.555  11.728 -0.3119 -0.0455  0.2748
23221W        W39030   4.522  18.077   3.924  0.3815 -0.0430 -0.0229
23222W        W39031  18.629   6.943   5.036  0.0768 -0.1719 -0.1800
23223W        W39032   6.053   8.538  10.273  0.0741 -0.5834 -0.1841
23224W        W39033  15.345  10.096   0.943 -0.2609 -0.3679  0.0391
23225W        W39034   7.886  18.904   4.706 -0.0880 -0.2409 -0.0444
23226W        W39035   9.828   7.735  15.026  0.1130  0.1044 -0.3408
23227W        W39036   9.348   2.743  14.329 -0.1209 -0.0929  0.1131
23228W        W39037   7.129   1.197   1.435 -0.0318 -0.1154 -0.1992
23229W        W39038  12.659   7.695   2.322 -0.1716 -0.2229  0.1249
23230W        W39039  13.151   0.264  12.119 -0.1699 -0.1703 -0.3105
23231W        W39040  10.378   1.946   3.213  0.2054 -0.0165  0.0060
23232W        W39041  12.787  13.394   2.837  0.0013 -0.0559 -0.2054
23233W        W39042   0.132   1.739  10.666  0.1588  0.0901 -0.3238
23234W        W39043   9.049   0.327   3.635  0.1739  0.2694 -0.2055
23235W        W39044  13.159  17.848  13.609  0.0138  0.2240 -0.0380
23236W        W39045   3.249  17.549  14.278  0.2042  0.1801 -0.0026
23237W        W39046  13.090   1.264  12.674 -0.0729  0.0551 -0.2036
23238W        W39047   7.612   5.999   3.761 -0.1735 -0.1661  0.1839
23239W        W39048   0.001  10.589   2.302 -0.0561 -0.0973  0.0708
23240W        W39049  17.033   8.594  12.400 -0.0205  0.1623 -0.0950
23241W        W39050   6.384   5.869   3.610  0.2809 -0.2216  0.1084
23242W        W39051  12.822  12.839  14.656 -0.2360 -0.1821  0.0900
23243W        W39052   8.335  13.752   3.891 -0.2530 -0.0648  0.1415
23244W        W39053   4.137   9.537  13.356  0.1061  0.0664  0.5386
23245W        W39054   7.883  14.622  10.845  0.0199 -0.2975  0.0416
23246W        W39055   9.797   3.346  10.122  0.1473  0.0454 -0.2005
23247W        W39056   6.019   6.493  13.857  0.4853 -0.3701  0.0359
23248W        W39057  13.311   3.554   0.767 -0.1819 -0.3327  0.0068
23249W        W39058  17.634   7.648  14.766  0.1387  0.2635  0.2022
23250W        W39059  12.077  15.928  13.438  0.1119  0.0031  0.1369
23251W        W39060   2.457   5.334   3.537 -0.0079  0.0575  0.3586
23252W        W39061   4.038   2.635   3.513  0.1427 -0.1991 -0.0913
23253W        W39062   9.162   4.010   0.106  0.0647 -0.0436  0.0348
23254W        W39063   6.022   6.271   3.747  0.0345 -0.1898 -0.0238
23255W        W39064   1.214  17.017  11.696 -0.0413  0.1722  0.0734
23256W        W39065  12.285   5.302  11.111 -0.2625  0.0176 -0.0252
23257W        W39066   4.823   8.091  12.844  0.1411  0.0508 -0.0948
23258W        W39067  12.185  16.960   2.096 -0.5153  0.1466  0.0085
23259W        W39068  18.935   6.172   3.906 -0.0830 -0.0082 -0.1451
23260W        W39069  11.637  16.122   2.395 -0.0236  0.0138  0.2319
23261W        W39070  15.172  13.060  11.181  0.1907 -0.0422  0.0686
23262W        W39071   1.562   4.648  13.401  0.4047 -0.0674  0.1296
23263W        W39072   3.521   6.767  11.037  0.0335  0.0040 -0.2556
23264W        W39073  13.548   6.492  10.813  0.0636 -0.0910  0.0351
23265W        W39074   4.096   5.918  10.694  0.0405  0.3086  0.0550
23266W        W39075  12.610   8.474  12.556  0.2156  0.0550 -0.1541
23267W        W39076   1.472   3.905   2.408 -0.2955 -0.1557  0.2447
23268W        W39077   7.099   0.090  10.596  0.1243  0.0458 -0.1499
23269W        W39078  16.450   7.633   3.452  0.0481 -0.0414 -0.2388
23270W        W39079   3.683   8.105   3.343 -0.3227  0.1264 -0.4531
23271W        W39080   9.885   3.162  10.732  0.1099  0.4256  0.4109
23272W        W39081  17.909   6.899  11.514 -0.0437  0.1814  0.3401
23273W        W39082   3.987   0.609  14.742  0.1377  0.3111 -0.2988
23274W        W39083   9.646  17.733   5.740  0.2152 -0.0077 -0.2216
23275W        W39084   8.812  18.119  14.971 -0.0911 -0.1847  0.1483
23276W        W39085  10.470  17.704   5.019  0.1681 -0.1768 -0.3204
23277W        W39086   4.750  11.163   3.600  0.1152  0.0528  0.0092
23278W        W39087   3.639  13.501  14.078  0.1444 -0.3318 -0.2417
23279W        W39088   8.547  17.148   3.388  0.2393  0.1325  0.3569
23280W        W39089   2.425   9.349   1.221  0.2352 -0.2372 -0.0411
23281W        W39090  17.898   2.685   1.446 -0.0291  0.0884 -0.3311
23282W        W39091   9.325   4.534   0.201  0.0228  0.3156 -0.0248
23283W        W39092  10.975   2.829   3.833 -0.0990 -0.1048 -0.0628
23284W        W39093   3.217  18.919   0.560  0.0613 -0.2056  0.0423
23285W        W39094   3.826   9.371   2.060 -0.1330  0.2710  0.0474
23286W        W39095   7.395   9.416   3.430 -0.0072 -0.2217  0.1537
23287W        W39096  10.738  17.785  14.502 -0.0395  0.0838 -0.0241
23288W        W39097   7.836  18.319   3.847 -0.0922 -0.2511  0.0176
23289W        W39098  12.169   0.492  14.699  0.0353 -0.0006 -0.0076
23290W        W39099   1.612   6.707   0.791 -0.1511 -0.1391  0.3103
23291W        W39100   8.601  15.050   9.256 -0.0147  0.0584  0.2109
23292W        W39101  18.559  12.870   9.860 -0.1895 -0.1374  0.0226
23293W        W39102  11.084  18.138  13.512  0.1444 -0.0727 -0.2186
23294W        W39103  16.548   6.326  14.367 -0.1129  0.0385  0.2642
23295W        W39104   3.478   0.310   2.173 -0.2657 -0.0999  0.2300
23296W        W39105   5.513  17.617  14.397  0.3219 -0.0953  0.3022
23297W        W39106   3.750  11.229   3.830 -0.0735  0.0756 -0.4461
23298W        W39107   4.449   1.613   3.817 -0.0976  0.1415 -0.0803
23299W        W39108   8.463  15.970  11.968 -0.1529 -0.1282  0.1445
23300W        W39109  18.359   7.231  11.529 -0.3505 -0.0870 -0.1006
23301W        W39110   9.438   8.168   5.040  0.1537  0.1324 -0.0817
23302W        W39111  11.671  15.629   1.407  0.0932 -0.0192 -0.0619
23303W        W39112  11.839   1.251  14.188 -0.0313  0.4331  0.0221
23304W        W39113   8.378  10.134  14.231 -0.3507  0.1794 -0.3613
23305W        W39114  18.125  11.539   5.326  0.2514 -0.0710  0.1000
23306W        W39115   1.734   6.155   1.973 -0.0091 -0.3449  0.0807
23307W        W39116  16.171  10.642  11.776 -0.1169 -0.1110  0.1745
23308W        W39117  13.550   8.589   3.759  0.1041  0.1069  0.0344
23309W        W39118  12.968   5.850   1.223  0.0537 -0.2559 -0.0381
23310W        W39119  12.844   7.164   2.810  0.1649  0.0085  0.0809
23311W        W39120   0.552   9.019   3.774 -0.2587 -0.1815  0.1106
23312W        W39121  10.573   7.335   4.864 -0.3512  0.2101  0.0841
23313W        W39122   8.120  18.563  11.180  0.0569  0.0039  0.1006
23314W        W39123   7.333   8.863   4.821 -0.1508  0.0207 -0.3173
23315W        W39124   2.730  18.139  11.988 -0.5191  0.1636  0.0107
23316W        W39125   0.033   8.775   4.285  0.2193  0.0121 -0.3963
23317W        W39126   5.616  14.411   3.794 -0.1956 -0.2244  0.2806
23318W        W39127   2.500   8.440   5.161  0.0537 -0.0460  0.0017
23319W        W39128  17.814  16.637  12.332 -0.0212 -0.2479  0.1950
23320W        W39129  12.168   4.469  14.665  0.1921  0.2336 -0.1660
23321W        W39130  19.032  10.347   2.799 -0.1241 -0.1767  0.1450
23322W        W39131  12.931   8.359   4.936 -0.1098 -0.1230 -0.1597
23323W        W39132   0.348  17.905  12.742  0.0086 -0.2777 -0.0920
23324W        W39133  18.908  18.825   0.533 -0.1150 -0.1221  0.0955
23325W        W39134  10.553  11.580  10.739  0.1700  0.0995 -0.0381
23326W        W39135   6.306  18.849   3.896  0.0674 -0.2815 -0.0077
23327W        W39136  18.379   9.693  12.377  0.4312  0.3204 -0.3143
23328W        W39137  15.662   3.582   2.353 -0.0187 -0.0216  0.1528
23329W        W39138  18.064   4.186   4.265 -0.1843  0.2419  0.1243
23330W        W39139   9.624  15.870  14.766  0.0028 -0.1348 -0.2000
23331W        W39140  12.111   5.709   3.427 -0.1269 -0.1945 -0.1213
23332W        W39141   5.100   9.285  14.003  0.1179 -0.2922 -0.0979
23333W        W39142  12.240   7.845  14.618  0.4338  0.1188  0.0421
23334W        W39143   4.847   8.705   2.525 -0.1773 -0.0879  0.2133
23335W        W39144   7.044  11.901   1.634  0.1606  0.1368  0.0558
23336W        W39145   2.937   0.328   1.801  0.3768  0.0039  0.1437
23337W        W39146  12.334   7.053  14.246  0.1596  0.3193 -0.3528
23338W        W39147   0.184  16.726  11.388  0.0338  0.1164  0.0660
23339W        W39148   7.423   9.146   0.022  0.0636  0.1340  0.2721
23340W        W39149   0.576   5.251   3.687 -0.1218 -0.1455 -0.0376
23341W        W39150  11.702   1.698   3.013  0.1840  0.0539 -0.1951
23342W        W39151  10.872   6.736   4.557 -0.1749  0.1729 -0.4620
23343W        W39152   8.477  19.032   2.295 -0.1769  0.1025 -0.4298
23344W        W39153   4.572  16.502   2.627 -0.0486 -0.2866 -0.1602
23345W        W39154   5.854  17.954   0.345 -0.1173 -0.1131  0.0404
23346W        W39155   1.053  10.447  14.439  0.0098 -0.1008 -0.0957
23347W        W39156  13.642   8.780   5.279  0.0917  0.0056  0.1608
23348W        W39157  17.712  10.184   2.136 -0.0990  0.1927 -0.2301
23349W        W39158  16.725  15.835   1.210  0.1197  0.1784  0.2574
23350W        W39159  14.938  10.360  13.235 -0.1928  0.1260  0.1173
23351W        W39160   6.535   1.657  10.405  0.0213  0.1405 -0.0012
23352W        W39161  13.373   7.261   0.659  0.0393  0.3778 -0.2460
23353W        W39162  17.429   1.939   4.765 -0.2368  0.1054 -0.1604
23354W        W39163   3.186   1.777  13.053  0.0607 -0.0978 -0.1269
23355W        W39164   6.860   4.238   2.508  0.2225  0.4404 -0.0403
23356W        W39165  15.441   7.994  13.440 -0.0462  0.1076  0.1536
23357W        W39166  12.713  16.148  11.303 -0.0041 -0.0396 -0.1739
23358W        W39167  13.261   9.659  10.775  0.2140  0.0597  0.1432
23359W        W39168   0.577  12.508  13.127  0.2049 -0.1951  0.3838
23360W        W39169  12.699   7.155   2.243 -0.0242  0.0109  0.0974
23361W        W39170   7.321   2.175  13.403 -0.0448 -0.2186 -0.2707
23362W        W39171   2.210  14.475   3.077 -0.2188  0.0547  0.0650
23363W        W39172   3.269   2.897  12.187  0.1282 -0.3134  0.0994
23364W        W39173  16.313   2.451  12.938 -0.6609  0.2862 -0.1444
23365W        W39174  18.440  12.265   2.132 -0.1520 -0.2626  0.2005
23366W        W39175   2.539   3.847   0.777 -0.1170  0.0150  0.2265
23367W        W39176  17.127   4.397  11.153 -0.0621  0.0922 -0.0302
23368W        W39177  17.328  18.628   3.105  0.1756 -0.1584  0.1743
23369W        W39178   7.422  12.307   0.456  0.1283  0.1938 -0.1682
23370W        W39179  11.223  14.142  14.830  0.1316  0.1332  0.0027
23371W        W39180  13.675   3.792   3.762 -0.2609 -0.3831  0.4534
23372W        W39181  15.970  10.248   2.140 -0.1803 -0.0419 -0.0059
23373W        W39182  13.324   8.997   3.100 -0.1790  0.0732 -0.2811
23374W        W39183   7.689  18.431  11.543 -0.1171  0.0865 -0.2808
23375W        W39184   5.014   9.042  11.671 -0.3321 -0.1869 -0.0810
23376W        W39185  14.428  19.018   3.150 -0.2980 -0.1972 -0.0826
23377W        W39186   1.296   0.476  10.415 -0.0932  0.1714  0.0259
23378W        W39187   2.897   3.235   4.257 -0.1299 -0.1234 -0.0555
23379W        W39188   5.445   8.196   4.308  0.3812 -0.1420  0.1308
23380W        W39189  11.308   5.496   2.882  0.0516 -0.0024 -0.2870
23381W        W39190  12.764  14.149  11.226 -0.0683 -0.0708  0.1059
23382W        W39191   2.941   3.050  13.039 -0.0505  0.1259  0.1527
23383W        W39192  12.957   4.871   1.789  0.0854 -0.1695 -0.0646
23384W        W39193  18.586   4.600  14.045 -0.3725 -0.0918 -0.1991
23385W        W39194   0.249  14.830   0.276  0.1800  0.1285  0.2243
23386W        W39195   0.238  18.313  13.992 -0.2188 -0.1265 -0.3523
23387W        W39196  10.417   0.888   3.426  0.1602  0.0190 -0.0588
23388W        W39197   6.170   2.336   0.408  0.0842 -0.2445  0.3465
23389W        W39198  17.189   3.606   1.025  0.1082  0.2257  0.1241
23390W        W39199   3.875   9.850   1.982 -0.2930  0.1363  0.1452
23391W        W39200  18.567  10.877  14.344 -0.0487 -0.0828 -0.1232
23392W        W39201   3.468   8.508   0.941 -0.0035  0.1723  0.0081
23393W        W39202  16.961   1.868   2.864  0.0484  0.1432  0.3754
23394W        W39203   7.271   6.434  12.615 -0.3852 -0.1723 -0.0288
23395W        W39204   8.889  10.529  10.387  0.1964 -0.0149 -0.2780
23396W        W39205  17.348   7.561   4.608  0.1558 -0.0495  0.3857
23397W        W39206   9.885  11.987   1.293 -0.0953  0.1084 -0.1694
23398W        W39207  15.018  11.180  15.049 -0.0426 -0.0840  0.2879
23399W        W39208   1.649   2.319   3.017  0.1251 -0.1510 -0.0745
23400W        W39209   3.276   4.220   2.110 -0.0632  0.0191  0.0576
23401W        W39210   6.382   2.350   3.867 -0.2255 -0.2798  0.1029
23402W        W39211   8.881   2.976  14.593  0.2387  0.0993 -0.0165
23403W        W39212  13.896   8.004  12.532  0.0920 -0.1572  0.3634
23404W        W39213   9.193  18.568  12.819 -0.1200  0.0909  0.2380
23405W        W39214   9.331  10.221   5.111  0.0669 -0.3192 -0.0915
23406W        W39215   5.040  16.400  11.269 -0.1051  0.0657  0.0015
23407W        W39216   0.080   7.729  10.216  0.2174 -0.0085 -0.5147
23408W        W39217  17.334  11.533   1.227 -0.0131  0.1676  0.2028
23409W        W39218   7.121  12.696  13.291 -0.0050 -0.0495 -0.5552
23410W        W39219   0.374  11.054  11.698 -0.0896  0.1117  0.0867
23411W        W39220  17.327   9.824   2.003 -0.1332 -0.0090  0.0789
23412W        W39221  12.011   3.451   1.043  0.2395 -0.1455 -0.0036
23413W        W39222   6.602  13.162   4.447  0.0435  0.1078  0.1767
23414W        W39223   7.463  18.394   3.597 -0.0845 -0.1077 -0.1266
23415W        W39224   5.360  12.884  11.685 -0.0120 -0.0783  0.1406
23416W        W39225  18.932   7.215  12.272 -0.0481  0.0606 -0.1331
23417W        W39226   2.358   2.997   2.945 -0.0214  0.1397  0.0468
23418W        W39227   4.945  10.238   0.468 -0.1037 -0.1450 -0.1887
23419W        W39228   3.796   5.719   1.280  0.2086  0.0796 -0.0157
23420W        W39229  14.526  10.272   1.975 -0.2310  0.1195  0.0684
23421W        W39230   2.681   5.740  13.495  0.3894  0.1046 -0.2928
23422W        W39231   8.641  14.596   5.000 -0.3732  0.1711 -0.1438
23423W        W39232   7.329  14.288  12.534 -0.3511 -0.2172  0.0035
23424W        W39233   1.754   0.704   0.863 -0.1235  0.0007  0.1571
23425W        W39234   5.665   3.145  13.993  0.2541 -0.2406 -0.0129
23426W        W39235  15.420  11.220  12.662 -0.2038  0.2431 -0.0280
23427W        W39236   6.950   3.620  14.406 -0.0402  0.4649  0.0427
23428W        W39237   4.076  12.084   1.143 -0.2129 -0.6556  0.0846
23429W        W39238   7.527   1.762  13.080  0.1477 -0.0079 -0.2320
23430W        W39239   2.009   4.479  11.289  0.0219  0.1545  0.2114
23431W        W39240  16.230   6.217   4.294 -0.0288 -0.0491  0.1956
23432W        W39241  12.481   9.596   1.723 -0.0854 -0.1103 -0.1764
23433W        W39242   7.286   6.092   3.418 -0.2125  0.1046  0.0413
23434W        W39243  13.141   1.970  12.057  0.1494  0.1305 -0.3155
23435W        W39244   2.552  14.342  13.555  0.4270 -0.0295  0.0240
23436W        W39245  12.533   9.880   4.556  0.1540  0.0139 -0.1686
23437W        W39246   9.369   7.290   1.136 -0.1787 -0.3310  0.0318
23438W        W39247   9.067   1.439   1.109 -0.1255 -0.1397 -0.3552
23439W        W39248  17.961   5.216  14.115 -0.4692 -0.4319 -0.5417
23440W        W39249  17.310  14.694   1.833 -0.0815  0.4720 -0.0168
23441W        W39250   2.581  18.151   3.578 -0.2874 -0.1345 -0.2909
23442W        W39251   9.490  18.885  13.832  0.1610 -0.2745  0.1349
23443W        W39252   7.661   7.935   1.037  0.1505  0.3363  0.2755
23444W        W39253   9.508  18.420   0.401 -0.0054  0.1119 -0.1254
23445W        W39254   4.152  18.513   4.007  0.3405  0.1376  0.0581
23446W        W39255   4.826   6.579   1.134  0.2341  0.3755 -0.2839
23447W        W39256   9.344   6.111  13.885 -0.1268 -0.0489  0.0397
23448W        W39257  13.274   6.397  11.269  0.1888  0.1395 -0.0046
23449W        W39258   2.658  11.916   5.558 -0.1737 -0.0166  0.1397
23450W        W39259   8.528  10.479   1.915 -0.2650 -0.3547 -0.1482
23451W        W39260   9.780   0.728   4.659 -0.1270  0.0419 -0.1684
23452W        W39261   7.751   5.828   2.409  0.1282  0.2087 -0.0022
23453W        W39262  13.724   4.900  11.497  0.0550 -0.1012  0.2974
23454W        W39263   2.970   9.895  12.783 -0.2688 -0.2217  0.1014
23455W        W39264  18.000  18.813   0.726 -0.1433  0.0622 -0.0223
23456W        W39265  12.209  18.305   5.187  0.1318  0.1348  0.1174
23457W        W39266   0.429   3.901  10.908  0.0857  0.2540 -0.2311
23458W        W39267   8.217   0.994   2.812  0.1262  0.2832 -0.1784
23459W        W39268   3.615   4.068   1.737 -0.1324 -0.1243  0.0275
23460W        W39269   9.586   2.358   0.633 -0.0411 -0.1822 -0.1752
23461W        W39270   8.865   7.059   3.569 -0.3505  0.0673 -0.2105
23462W        W39271   9.390  17.819  14.745 -0.1623  0.2082  0.2693
23463W        W39272   1.256   4.819   0.706  0.1037 -0.2780  0.5018
23464W        W39273   0.549  14.652   3.004  0.2594  0.0822  0.3508
23465W        W39274  10.451   2.334  15.245  0.0704 -0.1073 -0.1892
23466W        W39275  17.354  16.737   3.574 -0.1226 -0.2112 -0.0620
23467W        W39276   4.277  14.471  14.657  0.0474  0.2561  0.1223
23468W        W39277   5.750  12.229  13.562 -0.1758  0.0795 -0.0697
23469W        W39278   3.923  17.473   1.306 -0.3353 -0.0747 -0.3288
23470W        W39279  10.148  10.938   4.474 -0.1414 -0.0009  0.1394
23471W        W39280  17.215   2.706   0.579 -0.3341 -0.0897 -0.1636
23472W        W39281  13.544   3.288   1.145 -0.1416 -0.1033 -0.2572
23473W        W39282   6.396   9.397   3.865 -0.1006  0.1194  0.3545
23474W        W39283   0.628  14.921   1.191 -0.0088  0.0418 -0.0614
23475W        W39284  11.889   3.122  14.722  0.2372 -0.1809  0.1641
23476W        W39285  10.566  12.105   0.053 -0.2414  0.0963 -0.1082
23477W        W39286   2.003   0.818   2.497 -0.1963 -0.1438  0.0253
23478W        W39287   9.055  17.007   3.544  0.0937  0.1751  0.0186
23479W        W39288  18.899   1.466   1.707  0.2614 -0.0809 -0.3517
23480W        W39289  18.217   6.298   4.987  0.1377 -0.1929  0.2995
23481W        W39290   4.925   5.898   3.722 -0.2946 -0.1793  0.2364
23482W        W39291   1.084  15.394  15.184 -0.1396  0.1056  0.1397
23483W        W39292  13.784   2.569   4.561  0.1760 -0.1794  0.0544
23484W        W39293   6.417   7.956   4.464 -0.0516 -0.0115 -0.2337
23485W        W39294   8.243  18.152   3.475  0.1412  0.0984  0.3772
23486W        W39295   1.587   2.666   4.424  0.1415  0.2888 -0.2210
23487W        W39296   1.458   2.895  11.273  0.0409  0.2292 -0.1782
23488W        W39297  12.057  18.084   1.654  0.2331 -0.1724  0.0216
23489W        W39298  17.389  16.293   2.721 -0.0528 -0.3012  0.1340
23490W        W39299   7.698  15.717   4.442 -0.1568 -0.1415 -0.1487
23491W        W39300  17.605  16.189  12.192  0.1822 -0.0393 -0.0993
23492W        W39301   1.908  13.521   2.091 -0.1553 -0.1700 -0.1386
23493W        W39302  10.924   9.415   1.341 -0.3081 -0.0080 -0.0368
23494W        W39303  11.435  17.576  10.470  0.1413 -0.0585 -0.1053
23495W        W39304   5.975  15.638  12.415 -0.0068 -0.1906 -0.2018
23496W        W39305  16.936  18.609   4.409 -0.0014  0.1146  0.1036
23497W        W39306  18.013  17.095  15.248  0.5583  0.1070  0.0009
23498W        W39307  13.860  16.227   3.770  0.0218  0.0431 -0.0657
23499W        W39308   3.280   3.097   0.120  0.1058 -0.1930 -0.4644
23500W        W39309   9.746   4.044   2.921  0.1074  0.2025  0.0664
23501W        W39310   6.082  18.574  11.540  0.1377  0.2523  0.0577
23502W        W39311   5.425   0.839  11.527 -0.1500  0.1005  0.2141
23503W        W39312   2.170  15.452   3.516 -0.2038 -0.4038  0.0938
23504W        W39313   2.350  15.074  14.864 -0.3965  0.0344  0.2534
23505W        W39314  13.928   3.651   2.723  0.0381  0.0050 -0.0939
23506W        W39315  12.190  10.773   4.248  0.0981  0.2598  0.1156
23507W        W39316  15.468  11.473  15.030 -0.3797  0.2046 -0.0969
23508W        W39317   6.650   9.501   2.553  0.2968  0.3164 -0.0246
23509W        W39318  13.100   6.034  15.225 -0.3637  0.3260  0.0681
23510W        W39319  18.651   3.884  12.260 -0.2336  0.0581 -0.1343
23511W        W39320   1.903   3.096  13.967 -0.0341  0.3395  0.1442
23512W        W39321   2.138   4.984   0.169  0.2789 -0.0541  0.0803
23513W        W39322   8.021   3.210   1.573  0.0038 -0.2386 -0.0510
23514W        W39323   0.465   0.031   3.207  0.0596 -0.0249 -0.0866
23515W        W39324   8.047   9.630  10.600 -0.0111 -0.4490  0.0131
23516W        W39325  13.840  11.487  14.685  0.3244 -0.2587 -0.1477
23517W        W39326  16.377  16.784  10.544  0.0460  0.0538 -0.6860
23518W        W39327  15.247  16.073  14.187  0.1110  0.0990 -0.3944
23519W        W39328  12.649  10.815   1.247  0.1513  0.2131 -0.2597
23520W        W39329   1.923  16.460   4.172  0.1063 -0.2235 -0.2193
23521W        W39330  16.551   8.162   1.274 -0.1548  0.0552 -0.1202
23522W        W39331  14.587   2.666   3.426  0.2699 -0.0890  0.1627
23523W        W39332   3.627   2.717   1.062 -0.1539 -0.3577 -0.3519
23524W        W39333   8.745  16.893   4.588  0.0531 -0.1789 -0.1064
23525W        W39334  13.832  10.217   2.230 -0.2091 -0.0673 -0.1371
23526W        W39335   3.345   8.831   4.790 -0.3981 -0.0921  0.1883
23527W        W39336   1.079   0.737   4.496 -0.0494  0.1300  0.1256
23528W        W39337  13.343   3.152  10.967  0.0492 -0.4491  0.3462
23529W        W39338   1.615   6.475  11.816 -0.0152  0.2658 -0.2330
23530W        W39339  17.353   2.470   3.195 -0.2150  0.2545 -0.1633
23531W        W39340  10.350  17.624   4.486 -0.0503 -0.0700 -0.0234
23532W        W39341   8.799   4.585   3.935 -0.1656 -0.3769  0.0523
23533W        W39342  10.802  19.028  14.869 -0.0438 -0.2093  0.0873
23534W        W39343   8.170  18.693  13.023  0.0445  0.2554  0.0114
23535W        W39344   0.314   6.000  12.345 -0.0497  0.1007 -0.3934
23536W        W39345   3.098  14.413   0.817 -0.0554  0.0166  0.0181
23537W        W39346   7.516  17.019  13.129 -0.0795  0.1409 -0.2511
23538W        W39347  11.111  11.501   0.264  0.0501  0.0205  0.0210
23539W        W39348  10.420   4.903   9.983  0.1118  0.0324  0.3089
23540W        W39349   5.213  17.776  12.920  0.2477 -0.3132  0.1309
23541W        W39350   8.291   7.746  11.130  0.0304  0.2120 -0.1446
23542W        W39351  18.768   9.333  13.184 -0.2943  0.0375 -0.3003
23543W        W39352   6.612   3.719  12.468 -0.1512  0.2254 -0.2509
23544W        W39353   8.602   0.265  13.827 -0.1998 -0.0363  0.1170
23545W        W39354   1.513   4.831   3.751  0.0444 -0.1951 -0.1235
23546W        W39355  17.683   5.857   5.574  0.0549 -0.0204 -0.2222
23547W        W39356   9.063  13.279   4.512 -0.1518  0.1581  0.1258
23548W        W39357   4.466   7.049   4.645 -0.1445  0.4604 -0.0728
23549W        W39358   6.211  10.955  14.808 -0.0552  0.1462 -0.0587
23550W        W39359   6.432  16.697  14.333 -0.1704  0.1128  0.2406
23551W        W39360  11.497   3.795   3.655 -0.0497 -0.2811 -0.0568
23552W        W39361   3.289  18.737  12.223  0.1314 -0.2865 -0.1898
23553W        W39362   4.242  13.216   4.965  0.2690  0.0757 -0.1539
23554W        W39363  11.173  11.047   2.180 -0.1175 -0.0744 -0.0703
23555W        W39364   9.385   3.000   2.237 -0.1459 -0.3512  0.1680
23556W        W39365   9.141  18.709   3.480 -0.1813 -0.0439 -0.1399
23557W        W39366  15.608   1.401   0.684  0.0674  0.0138  0.1248
23558W        W39367  12.729   1.743   1.093  0.2395 -0.0866 -0.2025
23559W        W39368  12.347   6.749   0.529  0.2341 -0.0059  0.0836
23560W        W39369  11.182   1.414  14.347 -0.0900  0.1566 -0.0012
23561W        W39370   4.919   6.924   0.058 -0.0509 -0.1492  0.1994
23562W        W39371   5.906   2.168   3.670  0.3118 -0.4166 -0.1516
23563W        W39372  15.570  11.812  12.995 -0.4155 -0.2135 -0.2633
23564W        W39373  13.792  13.756  12.057 -0.0073  0.1238 -0.4158
23565W        W39374  15.135   9.293   3.241  0.1193  0.1805 -0.2485
23566W        W39375  13.186  18.902  14.885  0.1196  0.0225  0.2181
23567W        W39376   5.966  17.386   2.717 -0.1960 -0.0155 -0.0048
23568W        W39377  18.509   7.025   1.326  0.1311  0.2659  0.0556
23569W        W39378   0.904   3.505   0.481 -0.2283  0.0203  0.2202
23570W        W39379  17.591  15.768  11.309  0.2500  0.1775  0.1884
23571W        W39380  17.023  18.284  13.274  0.1599 -0.1317  0.1370
23572W        W39381   4.473  14.614   2.019  0.0735  0.1758 -0.0500
23573W        W39382  17.723  11.791  14.728 -0.1996 -0.0698 -0.1828
23574W        W39383  18.350  18.669  10.919 -0.1601 -0.1887  0.0927
23575W        W39384   8.350   8.198  14.918 -0.0751  0.0067  0.0208
23576W        W39385   8.317  16.479   0.447  0.0030 -0.0218 -0.3748
23577W        W39386  16.752  10.851   3.188 -0.3106 -0.1784 -0.2633
23578W        W39387  11.828  16.910   0.181 -0.4351  0.0482  0.0149
23579W        W39388   3.966  13.694  14.670 -0.2958  0.2581 -0.1466
23580W        W39389   3.838   2.263   1.109 -0.1192  0.1940  0.2531
23581W        W39390   6.136  10.225   2.470 -0.1417  0.0016 -0.1181
23582W        W39391  17.768   4.193  13.287  0.0372  0.0911 -0.0171
23583W        W39392  15.854  17.642   9.965  0.2775 -0.1173  0.2348
23584W        W39393  17.659   0.995   3.847  0.0860  0.2580 -0.0495
23585W        W39394  16.881   1.892  11.939 -0.2268  0.0310  0.2213
23586W        W39395   3.905  15.649   1.017  0.0763 -0.1510  0.1124
23587W        W39396  16.463  16.592  11.022  0.1469 -0.0151 -0.0291
23588W        W39397  14.549   0.994   3.499  0.3682  0.0922 -0.0620
23589W        W39398  17.263   0.511  13.829 -0.0151  0.1409  0.0007
23590W        W39399  13.363   3.353  12.575  0.2322 -0.0128  0.0568
23591W        W39400   4.007   2.733  13.881  0.1968  0.1296  0.1751
23592W        W39401  15.628   5.623   5.354 -0.1861  0.3027  0.0720
23593W        W39402  13.490  17.785  12.768 -0.0693  0.4102 -0.0754
23594W        W39403   5.622  12.743   3.866 -0.2758  0.0047  0.0955
23595W        W39404  16.942  15.525   4.170  0.0341  0.1981 -0.3724
23596W        W39405  18.597   7.410   5.528 -0.1948 -0.3032 -0.1113
23597W        W39406   4.287   8.757   0.670 -0.0255 -0.2467 -0.3051
23598W        W39407   3.875  13.298   0.442  0.0987  0.1563  0.0488
23599W        W39408   8.141  10.200   2.062  0.1058 -0.1160 -0.1078
23600W        W39409   5.225  12.248   1.646 -0.1200  0.3704 -0.0848
23601W        W39410  17.512   7.052  14.057 -0.0875  0.4510  0.3103
23602W        W39411   5.873   9.451  11.570  0.2444 -0.0041 -0.1081
23603W        W39412   6.928  14.212   0.983 -0.0351 -0.0403 -0.4870
23604W        W39413  11.030   9.510   0.051  0.1621 -0.3535  0.0789
23605W        W39414  12.108   6.186   1.933  0.1025  0.0111 -0.2579
23606W        W39415  16.604   6.254  10.364 -0.2441 -0.0045 -0.0335
23607W        W39416  11.416   7.835   3.690  0.3406  0.2035 -0.0162
23608W        W39417  13.882   4.398  14.728  0.0114  0.1645  0.1235
23609W        W39418  17.525   9.305  13.401  0.0857  0.0226 -0.1584
23610W        W39419  13.136  14.881  11.435  0.0015  0.0817  0.0872
23611W        W39420  11.627  15.991   0.562 -0.1908  0.3927  0.0240
23612W        W39421   4.953   5.116   0.888  0.1089  0.0791 -0.1949
23613W        W39422   1.145   4.995   0.239 -0.1049 -0.2868 -0.2283
23614W        W39423   8.909   2.332   0.460 -0.1181  0.0639  0.0369
23615W        W39424  16.445  10.062  14.326  0.0455 -0.0766  0.1918
23616W        W39425   2.403   9.804  12.302  0.0368  0.0313 -0.3342
23617W        W39426  17.266   8.793   5.156 -0.1910  0.1178  0.2954
23618W        W39427   1.468   1.917   1.195 -0.1147 -0.1945  0.2876
23619W        W39428   0.852  15.954   2.305 -0.3620  0.1977 -0.0318
23620W        W39429  11.859   9.168   3.661  0.0159 -0.1042 -0.0252
23621W        W39430   9.892   8.337  14.338  0.0132 -0.2421  0.4399
23622W        W39431   8.042  16.757   1.942 -0.1551  0.1094  0.4491
23623W        W39432   9.589  18.970   3.777  0.1350 -0.2539 -0.1501
23624W        W39433  15.838   0.810  13.103 -0.1630  0.0148  0.3460
23625W        W39434  12.873   3.368   1.909 -0.0202 -0.4652 -0.0126
23626W        W39435  11.014   4.142   0.600 -0.3364 -0.2234  0.1409
23627W        W39436  16.929   3.847  14.053 -0.1121  0.1073  0.0725
23628W        W39437  17.635   2.117   2.275  0.2409 -0.3935  0.1406
23629W        W39438   6.089   6.943  14.590 -0.3612 -0.0985  0.1183
23630W        W39439   3.446  16.321   1.886  0.2011 -0.0949  0.1576
23631W        W39440   4.906   4.265   9.165  0.3457  0.0497  0.1279
23632W        W39441   6.389  10.034  10.306 -0.2887  0.2495 -0.1282
23633W        W39442   2.845   1.314  12.016  0.0573  0.0401  0.0830
23634W        W39443  13.343   8.164   4.040  0.0236 -0.0222  0.1052
23635W        W39444   2.947  11.881   1.489  0.0703  0.2810  0.2137
23636W        W39445   7.978   4.769  12.364 -0.1264 -0.0398 -0.1232
23637W        W39446  10.575  11.941  11.126 -0.3237 -0.1365 -0.2105
23638W        W39447   7.764  12.110  13.748  0.1921  0.1429 -0.1826
23639W        W39448   4.962  10.619  13.106 -0.0466 -0.1998 -0.1380
23640W        W39449   5.751   4.376   4.846 -0.1591  0.0388  0.0967
23641W        W39450   7.928   7.624  10.133 -0.0670 -0.2210 -0.0126
23642W        W39451   7.811  18.369  12.919 -0.1777  0.1719  0.3067
23643W        W39452   8.498   5.284   0.901  0.1362 -0.0372  0.0714
23644W        W39453   4.173   5.067  10.765 -0.3390  0.0834 -0.2165
23645W        W39454   3.655  15.616  12.098 -0.1356  0.1629 -0.0556
23646W        W39455   6.016   4.719   3.295 -0.0327 -0.0764  0.1052
23647W        W39456   2.635  18.162   2.372 -0.4332 -0.3196  0.3552
23648W        W39457   2.460  18.438   1.641 -0.2508 -0.0930 -0.2892
23649W        W39458   4.999  18.441   3.195 -0.0046  0.1626 -0.0686
23650W        W39459   8.379   5.996  13.840 -0.0523  0.0901 -0.0433
23651W        W39460   2.912   2.518  11.905  0.0542  0.1236 -0.1020
23652W        W39461  18.117   4.310  13.848 -0.0620  0.1793 -0.2245
23653W        W39462  13.598  16.376   0.070  0.1631  0.3198 -0.2400
23654W        W39463  16.750   3.245  13.926  0.3517 -0.3030 -0.2184
23655W        W39464   8.973  18.000   0.800 -0.1419 -0.0646 -0.2131
23656W        W39465   3.243  10.903   4.963 -0.0416 -0.1578 -0.0626
23657W        W39466  18.439   5.767  12.253 -0.1348 -0.1576  0.5121
23658W        W39467   4.894   3.402  10.874 -0.0328 -0.2200 -0.1421
23659W        W39468   4.038  10.323   1.973 -0.2735  0.0945  0.0616
23660W        W39469  16.625   0.947   0.526  0.1398  0.0324  0.0413
23661W        W39470  12.926   0.326   5.889  0.1537  0.0773  0.0008
23662W        W39471   0.519  16.261  13.233 -0.3189  0.1045 -0.1292
23663W        W39472  11.017  18.256  11.652  0.0971 -0.3780 -0.1436
23664W        W39473   3.185   7.229   1.164  0.0769 -0.0691 -0.3667
23665W        W39474   8.463  14.195   4.005  0.1022  0.0975  0.2520
23666W        W39475  15.628  13.188   2.338 -0.2419 -0.2439 -0.3191
23667W        W39476   9.957   0.516   5.157 -0.0762 -0.0370 -0.2088
23668W        W39477  14.398   5.759  14.214 -0.0447 -0.3920 -0.1187
23669W        W39478   2.748  14.085   9.951  0.0244 -0.1042 -0.0777
23670W        W39479   9.777   2.887  10.241 -0.2973 -0.0673  0.2053
23671W        W39480  11.141   1.486   4.515 -0.0369  0.2125  0.4008
23672W        W39481   6.616  18.055   2.397 -0.1278  0.0679  0.0648
23673W        W39482   7.866   5.824  12.704  0.0649 -0.4084 -0.0499
23674W        W39483   9.166   0.533   0.060 -0.1290 -0.0493 -0.0625
23675W        W39484   6.650   8.247   1.971  0.0880 -0.0052 -0.0336
23676W        W39485   0.427  10.573  14.534  0.0705  0.2146  0.1296
23677W        W39486   3.264   5.631  12.483  0.1939  0.0177 -0.0759
23678W        W39487   7.837  10.644   2.868 -0.0304  0.0845 -0.0598
23679W        W39488  13.427   0.217  13.224  0.1417  0.0321 -0.2395
23680W        W39489   7.515  14.389   0.425  0.0612 -0.3517  0.0512
23681W        W39490  10.621   8.853   3.664  0.2287 -0.1250 -0.2458
23682W        W39491   8.335  17.663  10.261 -0.3710 -0.1036 -0.2205
23683W        W39492   5.785  15.242   2.190 -0.5980  0.0073  0.0689
23684W        W39493   4.847   5.403   1.947  0.2617  0.0938 -0.0635
23685W        W39494  15.709   8.815   0.028  0.0719 -0.1044 -0.0858
23686W        W39495  18.024   5.340   0.550 -0.1957  0.1481 -0.0064
23687W        W39496   6.383   7.277  12.619  0.0125 -0.1986 -0.0102
23688W        W39497   3.819  11.253   9.905  0.0935  0.0981  0.2611
23689W        W39498  18.987  16.092   5.960  0.2490  0.1080 -0.2328
23690W        W39499  14.251  14.947  14.054 -0.1503 -0.1551 -0.1228
23691W        W39500  16.863  16.606   1.146 -0.0231 -0.2470  0.0903
23692W        W39501   4.354  15.392   4.225  0.1575  0.0897  0.2683
23693W        W39502  13.739  10.897   1.211  0.1235 -0.0814  0.0796
23694W        W39503  18.935   8.402  13.213  0.1379  0.0353 -0.1682
23695W        W39504  18.093   5.405   2.301 -0.0124 -0.1483 -0.4111
23696W        W39505   3.897  17.372  14.144 -0.1022 -0.5136  0.1499
23697W        W39506   8.276   3.817   3.664  0.3304 -0.0188 -0.1414
23698W        W39507   7.538  16.778  14.887  0.2470 -0.2563 -0.3171
23699W        W39508   2.158  14.596  10.315  0.2233 -0.0557 -0.0747
23700W        W39509  10.041  15.761   5.011 -0.1759 -0.1816 -0.1132
23701W        W39510  10.291   7.265  13.404  0.0051  0.1275  0.1748
23702W        W39511  15.387  17.094   5.317  0.3418  0.0737 -0.0815
23703W        W39512   8.695  17.240   1.456  0.3406 -0.0443 -0.2305
23704W        W39513   0.317  15.600  11.299  0.1331 -0.3231 -0.1545
23705W        W39514  15.559   3.464   0.204  0.0988 -0.1173 -0.3014
23706W        W39515  14.711  10.460   4.786 -0.0702 -0.1144  0.1971
23707W        W39516  14.638   2.937  12.850 -0.2578 -0.6139  0.1885
23708W        W39517  10.986   0.879   5.504  0.2814 -0.0721 -0.1066
23709W        W39518   4.647   8.810  14.708 -0.2858  0.1603 -0.0409
23710W        W39519   6.816  16.090   3.378 -0.1912 -0.1814 -0.2883
23711W        W39520  13.027   5.960   9.680  0.2217  0.1103  0.0979
23712W        W39521  19.009   3.215  11.608 -0.2329 -0.0395  0.0057
23713W        W39522   0.876  13.090  12.928 -0.0050 -0.1851  0.0761
23714W        W39523  12.661  14.236  11.685  0.0458  0.0946  0.1453
23715W        W39524   7.223   3.327   3.989 -0.0667  0.1987  0.0370
23716W        W39525  17.912  13.934   4.097  0.0904  0.0196 -0.0128
23717W        W39526  10.125   9.541   3.896 -0.0083 -0.0852 -0.1579
23718W        W39527  18.255   4.322  14.400 -0.1139 -0.1244 -0.0023
23719W        W39528   7.629  14.064  15.196  0.2413  0.5795  0.1988
23720W        W39529   0.814   2.535  13.951 -0.0026 -0.3484 -0.1532
23721W        W39530   1.653   8.742  10.138 -0.0340 -0.0591  0.0575
23722W        W39531  10.367  13.360   0.898 -0.0581  0.2187  0.0369
23723W        W39532   9.306   7.599   3.236 -0.1128  0.0463  0.1560
23724W        W39533   0.762  11.607   1.744  0.0389 -0.0614  0.2079
23725W        W39534   7.296   8.337  11.703 -0.3709 -0.4353 -0.0884
23726W        W39535  14.981   0.105   5.038  0.1376 -0.1657  0.0181
23727W        W39536   4.175  12.431   3.379 -0.2182 -0.0730 -0.1690
23728W        W39537   2.262  15.535  11.946 -0.0494  0.2118 -0.1159
23729W        W39538   9.675  17.043  10.793  0.1989 -0.0767 -0.1186
23730W        W39539  15.092  11.844  12.137  0.1272  0.1905  0.1906
23731W        W39540  18.556   0.824  13.074  0.3925  0.0331 -0.0442
23732W        W39541  18.498   7.220  12.533 -0.1701  0.2606 -0.2860
23733W        W39542  11.046  18.101  15.008 -0.2347  0.3809 -0.0640
23734W        W39543  13.824  13.400  14.402  0.1430 -0.0004  0.0397
23735W        W39544  18.946  11.759  12.249  0.1594 -0.0515  0.2679
23736W        W39545  14.211   6.816  12.674 -0.1088  0.0350  0.0126
23737W        W39546  18.817  11.113   4.536  0.2192 -0.2482 -0.0148
23738W        W39547   0.959   4.695   2.479 -0.2436 -0.0644  0.0636
23739W        W39548   4.624  18.220   9.488  0.0114 -0.1209 -0.0976
23740W        W39549   4.033   5.202  12.804  0.2438  0.3072 -0.3489
23741W        W39550   6.528  17.565   2.512 -0.1859  0.0453  0.2186
23742W        W39551   9.876  14.514   3.135 -0.0958  0.2639 -0.1015
23743W        W39552  18.493   4.789   2.708  0.3033  0.1302  0.1064
23744W        W39553  17.444  16.914  10.149  0.1186  0.1591 -0.0606
23745W        W39554   2.641  15.992   4.381  0.2561 -0.2586  0.1633
23746W        W39555  14.620   9.773  12.141  0.3263 -0.0666  0.0223
23747W        W39556   8.528  10.784  13.835 -0.0344 -0.0099  0.2974
23748W        W39557   2.327   9.267   0.195 -0.3827 -0.1260  0.1947
23749W        W39558  15.991   5.631   4.503 -0.0223  0.2423 -0.0890
23750W        W39559  15.911  17.566   3.616  0.1998  0.0469  0.2196
23751W        W39560  16.750  15.452  10.302  0.2014  0.1636  0.3713
23752W        W39561   1.257   0.713   1.982 -0.0481  0.0526 -0.3502
23753W        W39562  17.272   5.120   1.371 -0.1488  0.1660  0.0986
23754W        W39563   9.575  14.843  14.906 -0.1279 -0.0906  0.0108
23755W        W39564   8.646   0.973   4.287  0.1153  0.0735 -0.1797
23756W        W39565  12.237  17.850   5.293  0.1490  0.0727  0.3027
23757W        W39566   0.767  16.714   4.643  0.4120 -0.0467 -0.0416
23758W        W39567   5.969   7.028  13.902 -0.1424  0.0443  0.0204
23759W        W39568  11.008  14.184  11.369  0.6993 -0.0643  0.0389
23760W        W39569   8.205  10.665   0.774  0.1909  0.0025  0.0288
23761W        W39570  10.148   0.463  13.020  0.0378 -0.1758 -0.2571
23762W        W39571   7.635  18.366   0.986 -0.2108  0.1904  0.0774
23763W        W39572   7.289   4.215  12.979 -0.2213  0.1280 -0.0143
23764W        W39573   7.892  13.395  13.396 -0.2354  0.0823  0.0911
23765W        W39574  12.053   8.652  11.634 -0.2698  0.0736  0.0331
23766W        W39575  12.746   4.414  14.457  0.2109  0.1707  0.1689
23767W        W39576  13.076   2.940  13.335  0.1572  0.1618  0.2169
23768W        W39577   0.411  18.121   1.576  0.0510  0.4718 -0.1817
23769W        W39578   2.890   8.814  14.644 -0.4105  0.0080 -0.0164
23770W        W39579   1.002   5.465   0.095 -0.0561  0.0548  0.1706
23771W        W39580   2.892   4.372   5.799  0.1789 -0.0487 -0.2981
23772W        W39581   6.519  15.424   1.901  0.1011 -0.2234 -0.1078
23773W        W39582   5.049  16.490   2.324 -0.4279  0.0085  0.0506
23774W        W39583   4.591  15.473   0.433 -0.0950  0.1988  0.0006
23775W        W39584  12.077   5.339  11.537 -0.2049  0.0795  0.0506
23776W        W39585  14.852   5.625   2.505  0.0017  0.3601 -0.1305
23777W        W39586   9.743  14.757  12.489  0.3834 -0.0012 -0.1658
23778W        W39587  18.359  14.975  13.767 -0.1294 -0.0085  0.0420
23779W        W39588   8.371   3.303  13.102 -0.0391  0.0194 -0.1381
23780W        W39589   2.527   0.173   4.573 -0.2452  0.4196  0.0697
23781W        W39590  15.390   1.145  12.874  0.1030  0.1311 -0.1117
23782W        W39591   3.396   3.692   2.789  0.1160 -0.2651 -0.0455
23783W        W39592   1.562   2.585  13.157  0.0206 -0.1464  0.0945
23784W        W39593   5.502   6.547  12.665 -0.0817  0.0563 -0.0099
23785W        W39594   2.384  18.270   4.027  0.3101 -0.2710 -0.1931
23786W        W39595   5.904  18.978  13.288 -0.0580  0.3756 -0.0815
23787W        W39596   5.403   7.462   3.370 -0.2537 -0.4848 -0.5064
23788W        W39597   0.827   7.073   0.576 -0.2092 -0.2577  0.4882
23789W        W39598   0.144   7.855  13.897  0.0435 -0.1247 -0.0271
23790W        W39599  13.257  17.198   4.224  0.0073 -0.0121 -0.3290
23791W        W39600  11.451   3.855  13.139  0.3482  0.4014 -0.2928
23792W        W39601  10.598   1.285   5.114 -0.1658 -0.3992 -0.1102
23793W        W39602  10.103   0.494  13.565 -0.0104  0.2113  0.1498
23794W        W39603   5.390   3.448   1.193  0.1708  0.0699  0.1085
23795W        W39604  18.731   0.765   4.312 -0.0615  0.1977 -0.0232
23796W        W39605   9.909  11.125  11.190  0.0521 -0.1288  0.2491
23797W        W39606  16.256  13.243  10.970 -0.3906  0.1025 -0.0755
23798W        W39607  15.523  18.060  10.442 -0.0522  0.2260 -0.0027
23799W        W39608   7.284   3.797   0.924 -0.3459 -0.0033  0.1389
23800W        W39609   1.374  13.255  12.811  0.0204 -0.0158  0.1334
23801W        W39610   4.599   9.524   1.402  0.1424  0.2917  0.0143
23802W        W39611  16.790   3.681   0.013  0.0755 -0.1649 -0.1587
23803W        W39612   1.901   9.715   4.659 -0.0127  0.2168  0.0816
23804W        W39613  17.857   4.405  12.822 -0.2634 -0.0983 -0.1683
23805W        W39614  10.882  12.912  11.807 -0.0766  0.0732 -0.1194
23806W        W39615   4.060   4.636   0.731  0.1214 -0.1227 -0.0896
23807W        W39616  15.801   5.065   0.858 -0.0324  0.1656 -0.0516
23808W        W39617   8.549  14.281   2.835  0.3278 -0.2457 -0.1321
23809W        W39618  11.979   9.117  11.544 -0.3621  0.1239  0.1003
23810W        W39619   6.678  18.529   2.319 -0.0079  0.0718  0.1301
23811W        W39620  17.667  12.214   3.253  0.0903 -0.1175  0.2802
23812W        W39621   0.104  15.317   0.240 -0.0155 -0.1053  0.1669
23813W        W39622   4.900   1.386  14.909  0.0935 -0.2810 -0.2219
23814W        W39623  18.303   3.879  14.079 -0.0904 -0.0222 -0.1171
23815W        W39624  10.921  18.483   0.265 -0.0672  0.4794 -0.1968
23816W        W39625  12.184   1.079   4.805  0.2915 -0.3771 -0.1571
23817W        W39626  18.429   8.753   0.289  0.1097  0.1225  0.0229
23818W        W39627  12.670   0.066  14.059 -0.2847 -0.4313  0.0554
23819W        W39628   4.195  10.485  15.106 -0.2544  0.1048 -0.1495
23820W        W39629  16.495   5.146  13.781  0.0600  0.2816  0.0684
23821W        W39630   5.186  11.439  14.911 -0.1492  0.1119  0.2191
23822W        W39631   6.294  11.538   2.197  0.0464 -0.2215 -0.1826
23823W        W39632   6.638   8.919   1.237 -0.4358  0.0715 -0.0567
23824W        W39633   3.978   9.214   2.583 -0.2470 -0.2690 -0.2552
23825W        W39634   4.539  11.188  14.172 -0.1802  0.2066  0.2105
23826W        W39635   4.347   4.241  13.755  0.2915  0.0076  0.0261
23827W        W39636  18.341  10.139  10.294  0.2191 -0.2000  0.1613
23828W        W39637  11.937   3.900  12.888  0.0474  0.0058 -0.1721
23829W        W39638   9.926   1.637   9.855 -0.0214  0.0431 -0.0728
23830W        W39639   1.199   8.441  10.853 -0.1348  0.0364 -0.4079
23831W        W39640  12.490   7.942   1.429 -0.1555 -0.0884 -0.0186
23832W        W39641  17.824   8.182   2.240 -0.0169 -0.1433 -0.1822
23833W        W39642   5.357  11.111   3.047  0.0622  0.0525  0.0635
23834W        W39643  15.485   7.659   2.781 -0.2551 -0.0431  0.2331
23835W        W39644  18.475   9.351  11.592 -0.1260  0.0988 -0.0250
23836W        W39645   0.991  14.169  12.798 -0.3285  0.1273  0.0913
23837W        W39646  16.348   7.022  12.916 -0.1447  0.0967 -0.2177
23838W        W39647   4.910   0.225  12.348 -0.0483  0.0034 -0.0122
23839W        W39648   1.459   6.425   5.152 -0.0376 -0.1026 -0.0929
23840W        W39649  14.922   5.785   1.975 -0.4224  0.0546  0.2149
23841W        W39650  11.438  10.734  11.390 -0.1708  0.1620  0.0448
23842W        W39651   8.420  18.267   0.894  0.1347 -0.1319  0.0005
23843W        W39652  18.885   5.344   1.673 -0.0395 -0.3076 -0.0558
23844W        W39653   2.528   8.422   1.940  0.0784 -0.3300 -0.0360
23845W        W39654   9.195  17.247  14.585  0.1099  0.2203 -0.1356
23846W        W39655  18.941   1.819   5.061 -0.1085  0.3554 -0.1970
23847W        W39656  11.034  17.032   0.197 -0.0945  0.2124  0.1685
23848W        W39657  10.089   8.749   4.316  0.4654  0.0906 -0.0116
23849W        W39658  17.790  18.178  11.674 -0.0073  0.0430 -0.0135
23850W        W39659  15.505  15.905   1.526 -0.3771  0.1934  0.1556
23851W        W39660   6.836  14.281   2.145  0.3117  0.3683  0.0825
23852W        W39661  15.064   6.710  13.144 -0.0331  0.1658  0.1041
23853W        W39662  18.203  14.327   3.031  0.2326 -0.0024  0.4995
23854W        W39663   7.445  10.350   3.085 -0.1216 -0.2490 -0.1158
23855W        W39664  13.893   3.484   5.529 -0.3026  0.0239 -0.4103
23856W        W39665   9.186   0.664   2.779 -0.2066 -0.0174 -0.1997
23857W        W39666  12.073  16.472  13.525  0.0327 -0.1714  0.0318
23858W        W39667   9.771   7.935   9.593 -0.1106 -0.1307  0.3176
23859W        W39668  11.033   0.328   4.431 -0.0677  0.0937 -0.0384
23860W        W39669   8.693   2.065  10.730 -0.0955 -0.0533  0.0482
23861W        W39670   9.307  10.862   2.403 -0.0103 -0.3973 -0.1016
23862W        W39671  12.983   4.825  14.308 -0.3512  0.0224  0.1617
23863W        W39672  12.112   8.542  10.205 -0.2126  0.2491 -0.1699
23864W        W39673   7.153   2.599  13.991  0.1673  0.1330  0.1437
23865W        W39674  14.651   5.365   5.069  0.0530 -0.0826  0.3087
23866W        W39675   5.547  17.863   2.655  0.3710  0.2264 -0.1032
23867W        W39676  10.692   6.801   0.071  0.0813  0.2303 -0.1948
23868W        W39677   4.848   3.241   0.623  0.2809 -0.2426  0.1494
23869W        W39678   5.100  17.417   2.609  0.0295  0.4449  0.1353
23870W        W39679   8.734   0.912  12.721  0.1019  0.2676 -0.1517
23871W        W39680  16.666   8.898   2.054  0.1855 -0.0459 -0.4401
23872W        W39681   3.482   3.331  15.060 -0.0742 -0.2140 -0.0905
23873W        W39682  10.520   4.035  12.155  0.0181  0.2679  0.6407
23874W        W39683   7.061   2.169   2.223  0.0112  0.1778  0.1524
23875W        W39684  14.097  17.618  14.019  0.0586  0.3094  0.0229
23876W        W39685   9.220  12.666   3.739  0.0945 -0.2867 -0.0397
23877W        W39686   8.600   2.558   4.855  0.3638 -0.0892 -0.0590
23878W        W39687  13.809  10.400  12.719 -0.3288 -0.0802  0.0109
23879W        W39688   5.373  10.028  15.010  0.0192 -0.0536 -0.0175
23880W        W39689   3.014  11.682   4.904  0.2513 -0.1186  0.1705
23881W        W39690  18.089  10.758  14.161 -0.2134  0.1951  0.2357
23882W        W39691   4.345  15.270   4.757  0.0917 -0.0392  0.0275
23883W        W39692   5.888   6.525   3.049  0.1086 -0.0591  0.1162
23884W        W39693  13.489   3.110   0.047 -0.0392  0.2663  0.0213
23885W        W39694   7.150  10.420  14.549  0.1326 -0.0849 -0.0404
23886W        W39695   6.883   0.476  10.361 -0.1119  0.2914 -0.2017
23887W        W39696   2.171   6.833   4.417 -0.1386  0.0918 -0.0047
23888W        W39697  13.673   1.760  14.913  0.2425 -0.3645  0.1831
23889W        W39698   2.744  10.105   3.941  0.0441  0.0438 -0.2432
23890W        W39699   8.168  17.808   3.845  0.3140 -0.1006 -0.1991
23891W        W39700   6.231   6.271   3.308  0.2218 -0.1876 -0.1190
23892W        W39701   1.756  18.528  14.907 -0.2311  0.1587  0.0399
23893W        W39702  14.643   5.487   5.572 -0.0473 -0.0260  0.0248
23894W        W39703   8.257  18.172  13.426  0.1241 -0.0367 -0.0508
23895W        W39704   7.015   2.975  11.407  0.0356  0.2958 -0.0437
23896W        W39705   1.219   6.968   2.957  0.0615 -0.1695  0.0904
23897W        W39706   9.999  16.208  14.564  0.2804 -0.1539 -0.1134
23898W        W39707  18.731   5.621  13.180  0.2815 -0.1310 -0.3034
23899W        W39708   8.080  16.396  12.726  0.3923 -0.3140  0.1757
23900W        W39709   3.525   4.628  11.284 -0.0304  0.1717  0.1023
23901W        W39710   6.219  15.817  14.334  0.1822  0.0446  0.2409
23902W        W39711  13.101  15.206  12.715 -0.0235 -0.2429  0.0743
23903W        W39712   5.840  11.260  14.952  0.4524  0.1764 -0.1807
23904W        W39713   1.673  16.688  13.088 -0.2803  0.0952  0.1329
23905W        W39714   7.023   2.561   0.494  0.2332  0.2060 -0.3139
23906W        W39715  13.093  16.953   4.626 -0.1920  0.1368  0.0945
23907W        W39716  14.458   0.090   3.638  0.1627 -0.1707  0.3873
23908W        W39717   6.850   8.248  11.954 -0.0525  0.0651  0.2488
23909W        W39718  13.797  14.959   3.727 -0.1702  0.1473 -0.0586
23910W        W39719   8.441   4.625  12.134 -0.2434  0.1482  0.0967
23911W        W39720  16.960  18.336   4.887  0.3089  0.1789 -0.2101
23912W        W39721  18.122  13.419  12.411 -0.0985 -0.2001 -0.0638
23913W        W39722   2.822  12.017   0.053 -0.1468  0.0795  0.1992
23914W        W39723  13.317  13.372   4.691  0.1847  0.0672  0.2079
23915W        W39724  18.018   6.292   2.036 -0.0223  0.1253  0.1355
23916W        W39725  16.027   3.393  13.332  0.0946  0.0801 -0.0002
23917W        W39726   0.949   4.980  10.887  0.0598  0.1333 -0.2953
23918W        W39727   2.621   5.058  10.990 -0.1900 -0.5380 -0.1634
23919W        W39728  17.166  17.168   3.774  0.0732  0.0391 -0.0050
23920W        W39729  13.268   2.112   1.603 -0.0893  0.2016 -0.3568
23921W        W39730  15.500   4.367  12.351  0.4202  0.1646 -0.1944
23922W        W39731   9.672  18.722  14.639 -0.1608  0.0516 -0.3502
23923W        W39732   7.620  11.349   9.585 -0.0828 -0.1900  0.0521
23924W        W39733   3.635  15.523   0.119 -0.1015  0.2476  0.2197
23925W        W39734   6.735   2.842  13.843  0.1967  0.1498  0.0870
23926W        W39735  10.645   3.096  14.359  0.1191  0.0028  0.1016
23927W        W39736  12.910  11.004  10.330 -0.2829  0.3827  0.0340
23928W        W39737   5.399  17.873  11.100  0.0051 -0.1210  0.1702
23929W        W39738  19.011   9.302   1.033  0.0901  0.0451 -0.1022
23930W        W39739  14.312  16.860   4.789 -0.5070 -0.1418 -0.0267
23931W        W39740  12.529   2.800   2.925 -0.0203  0.0405  0.2157
23932W        W39741  13.082   0.343   1.157  0.0571 -0.1548 -0.1684
23933W        W39742  18.567   6.827  10.769  0.1093  0.1827  0.0795
23934W        W39743   9.120  13.200   1.913  0.2733 -0.1289  0.1597
23935W        W39744  14.557   9.907   3.376  0.0753  0.0018 -0.1426
23936W        W39745  17.147   6.234   2.232 -0.0169  0.0408  0.1162
23937W        W39746   3.309   3.870   3.366  0.1506 -0.2242 -0.0141
23938W        W39747   3.391  10.813   2.265  0.1898 -0.0700  0.0481
23939W        W39748   7.392   9.021   1.056 -0.3209  0.3048 -0.2198
23940W        W39749  11.247  16.174   0.207 -0.0392  0.1846  0.3244
23941W        W39750   1.082   2.921  13.746  0.1579  0.1812  0.2128
23942W        W39751   3.814   1.266  12.918 -0.1405 -0.0250  0.0636
23943W        W39752  16.952  14.985  11.283 -0.0976 -0.1112 -0.0322
23944W        W39753  10.572   3.160   4.647  0.1832 -0.1601  0.1165
23945W        W39754   8.520  16.106   3.438  0.0387  0.0304 -0.0897
23946W        W39755  17.152  12.420   4.701 -0.1420 -0.3589 -0.0877
23947W        W39756  11.589   9.507   4.624  0.1443  0.0478  0.0730
23948W        W39757   8.888   5.594  14.642 -0.2013 -0.0223  0.1464
23949W        W39758  13.554  11.798   3.861 -0.0537  0.1090 -0.0047
23950W        W39759   4.914  15.093  13.992 -0.3737  0.2384  0.3060
23951W        W39760   3.525  18.697   2.212  0.1351  0.0425  0.0832
23952W        W39761   4.325   6.538   1.259 -0.1957 -0.2243 -0.0397
23953W        W39762   7.701  17.256  10.868  0.0279  0.2606  0.0496
23954W        W39763   6.559  17.516  10.216  0.0750  0.3380 -0.1344
23955W        W39764   2.848  18.307  14.362  0.0478  0.0338 -0.3180
23956W        W39765  10.518  10.735   1.569 -0.0200  0.0101 -0.0247
23957W        W39766  17.021  14.033  14.580 -0.0404 -0.0025 -0.1636
23958W        W39767   5.223  16.098  12.093  0.2147 -0.0461 -0.1758
23959W        W39768  11.535  16.404  11.156 -0.3380 -0.1939 -0.4068
23960W        W39769  17.332  12.770  10.242  0.1023 -0.0756 -0.4525
23961W        W39770   5.588  15.918   4.143 -0.1530  0.2142 -0.1593
23962W        W39771   4.037  16.558  13.115 -0.4377  0.4039  0.0463
23963W        W39772  11.907  18.544  15.103 -0.0140  0.1117  0.1638
23964W        W39773  12.750  12.459   1.809 -0.0985 -0.2170  0.0349
23965W        W39774   2.948   9.119   2.010  0.0764  0.0283  0.3762
23966W        W39775   5.629  10.509  13.892  0.1030 -0.1191 -0.0126
23967W        W39776  12.588   4.895   0.875 -0.0808  0.1994  0.0234
23968W        W39777  13.150   8.218   0.341  0.4048  0.1168  0.1452
23969W        W39778  14.623  15.327   3.128 -0.1059 -0.1599 -0.0891
23970W        W39779   2.674  12.618   3.618  0.0916 -0.0274 -0.1997
23971W        W39780  14.714  18.009  11.756  0.1164  0.0969  0.1175
23972W        W39781   1.820  13.422   0.223 -0.1145  0.1396 -0.3537
23973W        W39782   0.620   8.629  12.676  0.0235 -0.0215  0.0149
23974W        W39783   7.732  10.275  10.453 -0.1141 -0.0745 -0.1855
23975W        W39784   7.798  12.076   0.842  0.0021  0.1621  0.3444
23976W        W39785  11.686   1.898  13.760  0.0003  0.1476 -0.1030
23977W        W39786  11.338   5.938   4.158 -0.0195  0.3635  0.0564
23978W        W39787   6.097   9.445  14.927 -0.3726  0.0031  0.2715
23979W        W39788   4.560   5.299  12.863  0.0074  0.1739 -0.0036
23980W        W39789  16.702  15.351   3.710 -0.5379 -0.1115 -0.1071
23981W        W39790  15.298  14.750   4.220  0.1800  0.0164 -0.2252
23982W        W39791   2.319  15.733  10.931 -0.0529  0.0162  0.1882
23983W        W39792   9.533   3.697  11.191  0.0953 -0.0101  0.3705
23984W        W39793   9.992   9.945  14.068 -0.0413  0.0662  0.0027
23985W        W39794  17.289   1.897  14.655  0.0206 -0.2901 -0.0692
23986W        W39795  10.844   1.129   3.572  0.3469  0.1808 -0.2102
23987W        W39796  11.032   3.301   4.853  0.0328  0.1604 -0.2433
23988W        W39797   2.636  12.202   3.940 -0.0760 -0.2023  0.0857
23989W        W39798   9.026  13.208  14.216 -0.3527 -0.0142 -0.1418
23990W        W39799   8.853  13.262  10.906  0.0028 -0.0283 -0.0338
23991W        W39800   8.402  18.332  15.059 -0.0054 -0.0630  0.1151
23992W        W39801   4.223  10.095  12.017 -0.0934 -0.0287  0.0953
23993W        W39802   5.712  17.444  12.109  0.0626 -0.3534 -0.0702
23994W        W39803  11.612   4.250   0.626 -0.1357 -0.0291  0.1823
23995W        W39804   7.595   5.087   3.318 -0.2124 -0.3088 -0.0384
23996W        W39805   5.655   9.790  12.352 -0.0593 -0.3208  0.2358
23997W        W39806   1.532  10.536  12.221 -0.0170  0.1160 -0.1973
23998W        W39807  10.332   7.003  11.255  0.0441 -0.2103  0.1564
23999W        W39808   5.482  17.492   3.014 -0.1494 -0.1964 -0.0130
24000W        W39809  16.708   0.172   4.499 -0.1449 -0.0585 -0.1376
24001W        W39810   5.445   0.422  14.675  0.0265 -0.1108  0.0353
24002W        W39811   0.664  15.732  12.948  0.1549  0.2924  0.3539
24003W        W39812   3.354   1.747   0.881  0.1908  0.1395  0.1861
24004W        W39813   7.648  10.640   1.575  0.2709 -0.0702 -0.1933
24005W        W39814   7.523   3.632  11.803  0.1607 -0.1712  0.2867
24006W        W39815   3.349   1.716  12.138 -0.0831  0.1484 -0.3202
24007W        W39816  18.990   9.036   2.898 -0.1363 -0.0930 -0.1615
24008W        W39817  11.417  15.703   0.227  0.0918 -0.0533  0.0548
24009W        W39818  14.169  17.866   1.074  0.2449 -0.1755 -0.3344
24010W        W39819  17.476  13.672   0.302 -0.0044  0.0023  0.0048
24011W        W39820   7.490   1.720   4.646 -0.3518 -0.0815 -0.1433
24012W        W39821  14.811   2.960  11.817 -0.1385 -0.0251 -0.1444
24013W        W39822   9.765   6.765  13.006 -0.2084  0.1068  0.2277
24014W        W39823   0.656  13.333   1.080  0.1745 -0.0532 -0.0212
24015W        W39824   4.272   8.716  10.160 -0.0022  0.1389 -0.2216
24016W        W39825   6.011   8.451  14.569  0.0114  0.2069 -0.2644
24017W        W39826  17.155   9.838   4.491  0.0338  0.1192  0.2874
24018W        W39827   4.381   5.423   1.172  0.4643  0.2066  0.0270
24019W        W39828   2.774   2.663   2.954  0.2224  0.3142  0.1655
24020W        W39829  13.419   8.067  14.248  0.0881  0.0783  0.1033
24021W        W39830  13.587   4.948   0.253 -0.0557  0.4444 -0.3971
24022W        W39831   3.389   7.635   5.115 -0.5342 -0.1420  0.0725
24023W        W39832  17.924   4.626  11.118 -0.0224 -0.3841  0.2732
24024W        W39833   2.536   6.494  14.510 -0.0964  0.4598 -0.1685
24025W        W39834  14.122  14.073   1.747 -0.0243 -0.0015 -0.0978
24026W        W39835  17.879   8.073   0.461 -0.0377  0.1718  0.0433
24027W        W39836  10.441   4.108  14.724 -0.0179  0.1996 -0.0290
24028W        W39837  15.580   6.078  14.354  0.0917  0.1898 -0.3412
24029W        W39838  16.151   9.276  13.497  0.0812  0.2217  0.0360
24030W        W39839  15.806  14.487   4.247 -0.1252  0.0420  0.1666
24031W        W39840   3.172  13.041  13.069  0.1443  0.0177 -0.0426
24032W        W39841   9.084   6.808   1.798  0.1506 -0.0249  0.1338
24033W        W39842   2.437   2.085  14.006 -0.0285 -0.1178  0.1141
24034W        W39843  12.814  12.277   5.359  0.1705 -0.2269 -0.0474
24035W        W39844   4.491  13.482  14.916  0.2321 -0.0279 -0.2045
24036W        W39845  17.617   9.156   0.076 -0.0485 -0.0944 -0.2309
24037W        W39846  11.539  13.483  13.359 -0.0589  0.0041  0.0626
24038W        W39847  12.267  17.109   3.682 -0.5379  0.4527  0.3233
24039W        W39848   9.523  15.334   4.052  0.0837 -0.0486 -0.0101
24040W        W39849   4.534   1.863   2.843 -0.1758 -0.2010  0.0844
24041W        W39850   5.295   7.505   1.650  0.1650  0.0113  0.0193
24042W        W39851   3.254   9.712  13.372  0.3970 -0.1088  0.2311
24043W        W39852  18.927  15.051   0.641  0.2146 -0.3128 -0.0018
24044W        W39853   7.257  18.486   0.177 -0.0170  0.4369  0.1889
24045W        W39854  12.574  11.812   3.756 -0.0401 -0.0486 -0.1438
24046W        W39855  14.552   6.760  13.126 -0.0786  0.0533 -0.1675
24047W        W39856  16.622  18.695   0.667 -0.0926  0.2361  0.0101
24048W        W39857   8.827   8.120   1.667 -0.1355 -0.0093 -0.0049
24049W        W39858   3.282  12.266   0.075  0.1465 -0.1341 -0.3258
24050W        W39859  13.875  18.113   0.612 -0.1857  0.1694 -0.1073
24051W        W39860  18.697  16.520  10.613  0.1240  0.0001  0.4615
24052W        W39861   8.765   9.370  11.662 -0.2564 -0.1042 -0.1621
24053W        W39862   4.847   2.101  10.242 -0.2640 -0.0873  0.3137
24054W        W39863   5.329   8.459   0.067 -0.1785 -0.2833  0.1430
24055W        W39864  17.795  16.089  12.805 -0.0062  0.1030 -0.0318
24056W        W39865  11.033   7.576  10.716 -0.2240  0.1076  0.1277
24057W        W39866   5.645  15.033   2.657 -0.1778  0.0065  0.0861
24058W        W39867   7.521   7.372   3.113  0.1296 -0.0036  0.2239
24059W        W39868   6.548  18.459  13.119  0.0181 -0.0289  0.2235
24060W        W39869   1.816  16.145   9.974 -0.0128 -0.2355  0.0661
24061W        W39870   4.417  13.455  13.422 -0.1613 -0.2141  0.0668
24062W        W39871   5.474  11.365  13.395  0.0255  0.1239 -0.1644
24063W        W39872  10.335  10.660   4.854 -0.0310  0.5481 -0.1299
24064W        W39873   3.998  11.942  11.377 -0.1296 -0.4826  0.1209
24065W        W39874  18.142   0.809  14.696 -0.1045 -0.0673  0.0868
24066W        W39875  13.736  17.673  15.095 -0.1935  0.5344  0.1079
24067W        W39876  11.896   4.536  10.424  0.1196 -0.3700  0.3375
24068W        W39877   5.825  13.701  10.111 -0.0561  0.3566 -0.0803
24069W        W39878  10.860  15.010   2.127  0.3146 -0.1400 -0.2600
24070W        W39879   1.936   1.092   9.899 -0.1452  0.0504 -0.7637
24071W        W39880  18.593  12.423   3.122 -0.3555 -0.1097  0.0967
24072W        W39881   8.371   8.114   1.014  0.1028 -0.0577 -0.0867
24073W        W39882  12.805  13.532   0.523 -0.0751  0.0662 -0.0139
24074W        W39883  16.960   9.412   1.943  0.0937  0.1361  0.2271
24075W        W39884   3.324  13.398  10.007 -0.2166 -0.1048  0.0294
24076W        W39885   4.397  14.198   3.634  0.0713  0.0607 -0.1483
24077W        W39886   8.363  13.084  11.679  0.0543 -0.1125 -0.1076
24078W        W39887   8.288   7.174   2.576  0.1144  0.3494  0.1533
24079W        W39888  11.192   7.486   2.051 -0.1410  0.2135  0.0206
24080W        W39889   7.963   9.010  11.360 -0.2069 -0.0943  0.1351
24081W        W39890   0.488   8.538   5.191 -0.2019 -0.8010 -0.0836
24082W        W39891   6.972   8.666   3.288  0.0470  0.2303  0.2485
24083W        W39892   2.970   2.206  13.020 -0.1386  0.0230  0.1706
24084W        W39893  14.535  14.623  12.814  0.0674 -0.1395 -0.6409
24085W        W39894   4.182  18.689  10.765 -0.2305  0.0098 -0.2189
24086W        W39895  13.918   9.676  14.964 -0.3362 -0.1940 -0.2710
24087W        W39896   6.919  10.935   1.127 -0.2938 -0.0341  0.0387
24088W        W39897  14.540  15.729  14.286  0.0601  0.2194  0.2311
24089W        W39898   3.514   2.224  13.068  0.1069 -0.2165 -0.0893
24090W        W39899  17.928  12.609  12.060  0.0650  0.2357  0.1729
24091W        W39900   2.824   0.495   0.235  0.2935 -0.1527 -0.0349
24092W        W39901   9.457  15.427  14.387  0.0228 -0.3271  0.1596
24093W        W39902   7.580   1.675  13.990 -0.1990 -0.0230  0.1825
24094W        W39903   1.501  13.030  13.226 -0.2511 -0.0164 -0.3546
24095W        W39904  16.556  16.280   3.838 -0.3742 -0.1588 -0.0698
24096W        W39905   6.574   8.193  14.731  0.0694  0.1763 -0.3106
24097W        W39906  17.719  12.361  11.654 -0.1207  0.0418  0.4995
24098W        W39907   7.637  10.503   4.444 -0.0800  0.1092 -0.1123
24099W        W39908   0.338  17.134   5.392 -0.3277 -0.3214  0.1480
24100W        W39909  14.484   1.759   0.742 -0.1275  0.1548 -0.3336
24101W        W39910   5.809   1.406  11.948  0.0313  0.1356 -0.0950
24102W        W39911  13.802   8.949   3.355  0.0716 -0.1122  0.1395
24103W        W39912  18.038  10.935   1.872  0.0799  0.1481 -0.1082
24104W        W39913  18.508   7.190  12.026 -0.2264  0.2538  0.0248
24105W        W39914   9.710  10.204  12.351  0.0661 -0.0549 -0.0285
24106W        W39915  17.835  16.427   3.520 -0.3604 -0.3872  0.0388
24107W        W39916  13.305   9.002   4.320  0.0506  0.2065  0.3591
24108W        W39917  16.583  17.215  14.432  0.3856  0.2416  0.0060
24109W        W39918   6.560  18.808  12.326 -0.1654 -0.0643 -0.2899
24110W        W39919   1.065  18.376   4.862 -0.0689  0.2649 -0.0169
24111W        W39920  15.631  16.314  12.701 -0.1326  0.4277 -0.1015
24112W        W39921   1.015   8.268  14.519  0.2616  0.0732 -0.3493
24113W        W39922  17.845   4.062   6.046 -0.0375  0.0239 -0.3739
24114W        W39923   2.992   3.905   4.143 -0.0647  0.1283  0.2919
24115W        W39924   3.817  17.220  12.645  0.0949 -0.2853 -0.2390
24116W        W39925  12.164  10.680   0.201 -0.3018 -0.0800  0.2206
24117W        W39926   5.461   2.114   5.155 -0.1606  0.0575  0.2133
24118W        W39927  17.667  11.050  13.959  0.1509  0.0883  0.1705
24119W        W39928   0.426  13.423  10.677 -0.3599 -0.0529 -0.0095
24120W        W39929  10.668  16.798  11.084 -0.1250 -0.2577  0.0852
24121W        W39930  17.016   6.519   4.146 -0.0520 -0.2610 -0.1075
24122W        W39931  16.224   0.226   3.278  0.1296  0.2774  0.0464
24123W        W39932  15.029   4.173  13.802 -0.1140  0.4202 -0.1623
24124W        W39933  12.335   9.452  11.781 -0.0491  0.0158  0.0008
24125W        W39934   4.142  15.378  13.942  0.2048 -0.0778 -0.1522
24126W        W39935  12.332  14.485   3.147 -0.0927  0.2211 -0.1207
24127W        W39936   6.631   1.771  10.870 -0.1952 -0.0066  0.0902
24128W        W39937   7.860  12.882  10.747  0.1583  0.0391 -0.0412
24129W        W39938  14.637   6.059   2.409 -0.0595 -0.2207  0.0845
24130W        W39939  12.863  10.662  14.303 -0.1966 -0.4980 -0.1935
24131W        W39940   8.977   7.829   0.385  0.0198 -0.1357  0.2474
24132W        W39941   4.934  17.662   4.227  0.3500  0.0871  0.1461
24133W        W39942  18.592   9.661   2.382  0.5235 -0.0300 -0.2199
24134W        W39943   8.586   5.557   3.976 -0.3043 -0.1025  0.2203
24135W        W39944  17.652   7.717   2.182  0.0674  0.2480 -0.0191
24136W        W39945   4.649   5.421   2.891 -0.0801  0.0446  0.0023
24137W        W39946   4.162  10.081   2.983  0.3314  0.1134 -0.1262
24138W        W39947   1.051   3.193   5.132 -0.4356  0.2393 -0.0714
24139W        W39948   9.356   4.587  12.874  0.0133 -0.3472  0.0977
24140W        W39949   1.290  10.601   2.666  0.2503  0.1308 -0.1204
24141W        W39950  10.707   3.182   5.322  0.1864  0.0609  0.0996
24142W        W39951   2.793   0.970   0.561 -0.2801  0.0929  0.1910
24143W        W39952  12.321  15.206   2.400  0.2906  0.3594 -0.1687
24144W        W39953  14.230  17.866   9.887  0.1671  0.2090 -0.1945
24145W        W39954   4.823  15.585  10.264  0.0751 -0.0993  0.3703
24146W        W39955  10.093   2.516  14.303 -0.0117 -0.2060  0.2314
24147W        W39956   8.220  16.484  14.391 -0.0144  0.0893  0.0422
24148W        W39957   8.749  12.911   4.104 -0.2789 -0.1742 -0.1442
24149W        W39958   8.908   4.966   0.094  0.1421 -0.2261  0.2565
24150W        W39959   9.967  16.199   9.672 -0.2196  0.0458  0.0764
24151W        W39960   6.586   4.119   0.699  0.1848  0.1757 -0.0794
24152W        W39961   5.614  11.206   0.868  0.1030  0.1230 -0.1769
24153W        W39962   6.937  17.691   2.220 -0.0498  0.1676 -0.1118
24154W        W39963   0.885   8.235   0.787  0.2597 -0.1200  0.1646
24155W        W39964  12.891   9.626   1.292  0.2364 -0.2151 -0.0347
24156W        W39965   6.362  15.932   1.923 -0.0274 -0.1083  0.1327
24157W        W39966   3.606  18.278   4.835 -0.3794 -0.0141  0.2881
24158W        W39967  18.774   0.042  10.825  0.1543 -0.2593  0.0754
24159W        W39968   1.420   3.213   0.388  0.0074 -0.0059 -0.2503
24160W        W39969   0.757   8.204  10.434  0.0317  0.2495 -0.3019
24161W        W39970   1.965  10.123   2.149 -0.0436  0.0210  0.1013
24162W        W39971   7.482  10.050  12.926  0.0327  0.0593 -0.2231
24163W        W39972  17.894   4.694  13.643 -0.3004 -0.1054  0.3366
24164W        W39973   9.907   6.398   1.231 -0.1325  0.3718  0.4032
24165W        W39974   0.049   5.072   3.184  0.0015  0.1236 -0.3765
24166W        W39975   8.282  10.693  14.550  0.4287  0.2099  0.2097
24167W        W39976  10.326   4.659  13.453 -0.4228 -0.4732  0.1331
24168W        W39977  14.011   3.920  11.887 -0.0407 -0.1044 -0.0788
24169W        W39978   1.803  11.003  11.003 -0.3339 -0.0495  0.1426
24170W        W39979  12.166   6.720   9.411  0.2991  0.1359  0.0965
24171W        W39980  12.605   0.835   3.116 -0.3208 -0.2662  0.1416
24172W        W39981  14.008  18.309  13.475  0.1026 -0.1470  0.0684
24173W        W39982  18.179   9.612  14.747 -0.1289 -0.2326  0.3442
24174W        W39983   0.059   7.041  15.154  0.1289 -0.0188  0.2236
24175W        W39984   1.651   5.304   4.072 -0.1014 -0.0442  0.1695
24176W        W39985  15.025  14.485  15.146  0.4160  0.2706 -0.0911
24177W        W39986  12.394   9.763  12.764  0.1458 -0.1187  0.5007
24178W        W39987  14.581  10.050   5.131 -0.0526 -0.0274  0.1263
24179W        W39988   5.638   7.031   4.162  0.0164  0.0180  0.3644
24180W        W39989  12.790  17.565   4.717 -0.0268 -0.0580  0.3648
24181W        W39990   7.611  14.852  14.314  0.1714 -0.0534 -0.0692
24182W        W39991   3.097  17.811  13.484  0.0353  0.1836  0.0239
24183W        W39992   6.098   2.566  11.515  0.4033 -0.2208  0.0960
24184W        W39993   0.687   5.923   1.641  0.1114 -0.0660 -0.3397
24185W        W39994  11.446  14.714  13.779  0.0350  0.0136 -0.0173
24186W        W39995  14.877  17.404  13.657 -0.3205  0.0924  0.0834
24187W        W39996   4.612  12.245  12.123  0.1929  0.0716 -0.1418
24188W        W39997   2.313  11.018   1.491  0.0367  0.0937  0.1456
24189W        W39998   9.362   6.754   2.905  0.4701  0.3477 -0.0392
24190W        W39999   3.739  12.837  14.600  0.0207  0.1641 -0.1207
24191W        W40000  16.318  17.374  11.349  0.2766  0.0863  0.1718
24192W        W40001  13.477  10.556   2.322  0.0731 -0.3677  0.0300
24193W        W40002  14.705  17.082  13.200 -0.1325  0.5006  0.1561
24194W        W40003  11.333  11.883  10.383 -0.0545 -0.2647  0.0667
24195W        W40004   9.241   7.925   4.629  0.0727  0.1879 -0.1583
24196W        W40005  15.267   3.102  12.320  0.3011  0.0275  0.0332
24197W        W40006   1.437  13.922  11.385 -0.0166 -0.0646 -0.2994
24198W        W40007  11.106  18.606  13.781  0.0679  0.3560 -0.3245
24199W        W40008   7.583   1.227  13.714 -0.0403 -0.0213  0.0017
24200W        W40009  13.535  18.154   5.168  0.1386 -0.1221  0.1862
24201W        W40010  18.306  13.528  11.448 -0.3381 -0.0627  0.5002
24202W        W40011  15.086   5.243  10.799  0.0595  0.0935  0.3778
24203W        W40012  13.094   9.023   0.175 -0.0144  0.2338 -0.1059
24204W        W40013  11.867  18.875   4.483  0.0918 -0.3167  0.0057
24205W        W40014   0.775   5.017  13.820  0.0675  0.1292 -0.1235
24206W        W40015  12.329  14.718   0.548 -0.0716  0.1623  0.1015
24207W        W40016  10.819  15.469  11.299 -0.0230 -0.2182 -0.0619
24208W        W40017  11.200   2.275   2.842  0.3599 -0.0518 -0.1680
24209W        W40018  15.109  13.564  14.293 -0.2896  0.0499 -0.1222
24210W        W40019   2.079   6.821  11.860 -0.1122  0.1889  0.0029
24211W        W40020  16.922   8.861   4.730 -0.1605  0.0494  0.0116
24212W        W40021  10.081   5.822  12.759 -0.3119 -0.0620 -0.1662
24213W        W40022   7.399   5.520  13.861  0.1399 -0.2078 -0.3458
24214W        W40023  11.607  12.272   4.622 -0.1131 -0.1882  0.1195
24215W        W40024  16.702   3.451  14.365  0.3021 -0.0620 -0.0533
24216W        W40025  10.705   0.759   2.648  0.0417  0.0069 -0.1052
24217W        W40026  11.172   4.637  11.757 -0.0483  0.3309 -0.2243
24218W        W40027   5.465  16.130  10.828 -0.1477 -0.2208  0.0750
24219W        W40028   1.983  12.310  11.616 -0.2044 -0.1049 -0.2972
24220W        W40029  16.241  13.936   1.452 -0.0968  0.0084  0.2014
24221W        W40030  16.445   0.058  13.592  0.3309  0.1962  0.0059
24222W        W40031  11.609  15.109   3.105  0.3858 -0.0354 -0.4286
24223W        W40032  10.887   2.695  13.808  0.1560 -0.2415  0.1024
24224W        W40033   9.306   8.143  12.535 -0.0539 -0.1657  0.1169
24225W        W40034  15.297   6.232   1.086  0.1765  0.0440  0.1007
24226W        W40035  17.953  17.620  15.247 -0.0178  0.0104  0.0931
24227W        W40036   3.967   2.683   2.969  0.0078 -0.3754  0.1376
24228W        W40037  16.968   0.249   5.443  0.0281 -0.4003 -0.0592
24229W        W40038   1.028   0.125  11.615 -0.1759 -0.1390 -0.1213
24230W        W40039   3.799  13.753  13.642 -0.0330  0.0460  0.2113
24231W        W40040  16.375   4.953  10.224 -0.2020  0.3722  0.0547
24232W        W40041   5.965  18.618   1.832 -0.4211 -0.1766 -0.1613
24233W        W40042  15.788  15.976  14.647 -0.1357 -0.2314 -0.0407
24234W        W40043  13.839   2.448   3.511  0.0201 -0.0146  0.2043
24235W        W40044  16.269  14.752   4.247 -0.1395 -0.2593 -0.2116
24236W        W40045  16.120   5.009   3.757  0.0564 -0.1518  0.0942
24237W        W40046  10.653  18.503   3.048  0.3627 -0.2135 -0.0334
24238W        W40047   0.333  18.041  13.196  0.0028  0.1105 -0.1700
24239W        W40048   6.220   3.621  14.700  0.0876  0.1525 -0.0625
24240W        W40049  12.012   6.561  13.684 -0.1066 -0.4600  0.0174
24241W        W40050   4.857   5.675  12.590 -0.1079 -0.2242 -0.1467
24242W        W40051  10.316  14.968  10.535 -0.3519 -0.1025  0.2320
24243W        W40052  12.713   2.958  12.065 -0.0226  0.1937 -0.2358
24244W        W40053   1.561   2.282   0.808  0.6068  0.3255 -0.1336
24245W        W40054  13.531   7.284  12.362  0.1232 -0.0595  0.5885
24246W        W40055  18.664   9.003   4.087 -0.1162  0.0599 -0.0738
24247W        W40056   1.628   4.136   0.540  0.1125 -0.0553  0.5297
24248W        W40057  11.276   2.317  11.329  0.1421 -0.3439  0.0440
24249W        W40058   5.234  11.913   3.926  0.0395 -0.4419 -0.3565
24250W        W40059  13.327   8.565  11.486  0.1906  0.2809 -0.0077
24251W        W40060  14.952   4.817   1.808  0.1991 -0.0580  0.1999
24252W        W40061   0.458   0.351   1.069 -0.3531 -0.0205 -0.3106
24253W        W40062  18.987  18.947  12.188  0.0351 -0.0641 -0.2184
24254W        W40063   2.759  11.391  10.836  0.0702 -0.0377  0.2710
24255W        W40064  17.401  10.557   0.423  0.1412  0.2959  0.2070
24256W        W40065   9.814   4.538   0.091  0.0651 -0.0079 -0.0732
24257W        W40066   3.428  13.392  13.386  0.0761 -0.1052  0.1699
24258W        W40067   0.963  16.524  14.840 -0.0744 -0.2416 -0.1523
24259W        W40068   5.086   6.917  12.032  0.2114  0.4075  0.4482
24260W        W40069  11.597  18.438   5.323 -0.0909 -0.2942  0.2759
24261W        W40070   1.202   2.340   4.548  0.1315 -0.0175 -0.1048
24262W        W40071  15.674   3.894  13.160  0.3232 -0.2551 -0.2939
24263W        W40072  13.796   9.423  12.505  0.2227  0.0214  0.1231
24264W        W40073   8.624  13.284   2.199  0.2531  0.1352 -0.0102
24265W        W40074   2.111  16.483  12.447 -0.3013  0.1460  0.1310
24266W        W40075   9.594   5.965  15.152  0.1819  0.1981  0.3384
24267W        W40076   9.381  16.930   1.387 -0.1112 -0.1371 -0.1678
24268W        W40077  11.478  12.366   0.495  0.0367  0.3073  0.1689
24269W        W40078  15.660   3.867   6.038  0.1330  0.2315 -0.1291
24270W        W40079  17.743  14.545   0.218 -0.2270  0.2457  0.0769
24271W        W40080   3.282   8.708  11.613  0.0552  0.1817  0.3873
24272W        W40081   2.948   4.706   4.118 -0.1295 -0.5540  0.2311
24273W        W40082  18.754   0.731   3.321  0.1281 -0.0239 -0.1022
24274W        W40083  10.091   5.861  10.893  0.2163  0.1090 -0.0941
24275W        W40084  12.104  12.727   2.537  0.0874 -0.0970 -0.0524
24276W        W40085  11.218  15.056  12.882  0.0929 -0.0578 -0.2712
24277W        W40086   5.794   5.423  12.227 -0.0565 -0.0841  0.1158
24278W        W40087  13.205  16.980   2.458 -0.0436 -0.2186  0.0323
24279W        W40088  18.067   8.881   5.616  0.1854 -0.0514  0.2786
24280W        W40089   1.891  10.548   0.055 -0.1356 -0.1078  0.0923
24281W        W40090   8.275  13.209  13.039  0.1443  0.1538  0.0199
24282W        W40091   8.222  15.988   1.162 -0.2516  0.0113  0.0312
24283W        W40092  10.592  11.090   0.335  0.0141  0.2825  0.0745
24284W        W40093  11.779   5.740  11.765 -0.0494  0.0080 -0.0190
24285W        W40094   7.705  16.643  11.991  0.1257 -0.2579  0.2136
24286W        W40095  17.074  14.650  13.091 -0.1765  0.2426  0.0694
24287W        W40096  17.224  11.572   2.151 -0.1325 -0.0204 -0.1092
24288W        W40097  15.151   5.380  12.883  0.0656 -0.1982  0.2081
24289W        W40098  18.372  11.117   5.416  0.0061  0.1388  0.1682
24290W        W40099   7.596   7.284  14.742 -0.0495 -0.0607  0.0291
24291W        W40100   1.951  17.463  13.854 -0.4614  0.0248 -0.1197
24292W        W40101   8.312   9.902   3.341  0.2946  0.3052 -0.3268
24293W        W40102  18.077   7.726   0.932  0.3477 -0.0056  0.3411
24294W        W40103  14.696   3.900  14.759  0.0391  0.4458 -0.0590
24295W        W40104   8.572  17.941   4.878  0.0752  0.0542  0.1797
24296W        W40105  15.635  11.157   0.551 -0.1018  0.0046  0.1615
24297W        W40106   3.984  12.610  12.498 -0.0319 -0.2602 -0.0351
24298W        W40107  17.054   9.928   5.012  0.0623  0.2973 -0.2760
24299W        W40108  15.009   7.444   4.710  0.4280  0.0831 -0.2049
24300W        W40109  18.406   2.717  13.584  0.1756 -0.1093  0.1470
24301W        W40110   0.588   3.748  11.403 -0.0820  0.0129 -0.0712
24302W        W40111  18.110   8.478  11.890 -0.0189  0.1522 -0.0570
24303W        W40112   9.469   5.415   1.490  0.0143  0.0941 -0.2991
24304W        W40113  18.399   8.968   2.231  0.0211 -0.2557  0.1194
24305W        W40114  14.528  18.464   3.999  0.1545  0.0041  0.4762
24306W        W40115  11.330   5.103  10.725 -0.1584 -0.2663 -0.4654
24307W        W40116   2.851  16.277  12.063  0.1869 -0.0570  0.0047
24308W        W40117  13.320   8.833  11.077  0.3659 -0.2771 -0.2061
24309W        W40118   1.132  18.274   1.458 -0.3152 -0.2314  0.3008
24310W        W40119   8.582  18.518  11.337 -0.0194  0.3426  0.4137
24311W        W40120  12.994   8.617  10.498  0.1043 -0.0064  0.1330
24312W        W40121   6.411  18.016  11.039  0.3471 -0.0860  0.2895
24313W        W40122  18.856  12.463   3.842  0.2200  0.1309 -0.0380
24314W        W40123   8.127  11.834   0.002  0.2274 -0.2329  0.2142
24315W        W40124  15.702  16.094   5.835  0.0892  0.1393 -0.0391
24316W        W40125  10.347  17.667  11.220 -0.0565 -0.0700 -0.0667
24317W        W40126  12.548  15.378   1.952  0.2455 -0.0222  0.0370
24318W        W40127  17.945  10.106  14.735 -0.0144  0.0337 -0.2526
24319W        W40128  18.396   8.479  10.802 -0.0752 -0.2630  0.2204
24320W        W40129   7.573   7.371   9.946  0.1298 -0.5307 -0.0023
24321W        W40130   5.213   5.440   0.418  0.0992 -0.1375 -0.1842
24322W        W40131   1.929  14.534   0.935 -0.1124  0.0889 -0.1352
24323W        W40132   9.782  14.071   2.841  0.0985 -0.1402 -0.2859
24324W        W40133  14.811  15.156  11.049 -0.2003  0.0970  0.0540
24325W        W40134  13.267   8.204   2.024 -0.3777  0.0492 -0.0024
24326W        W40135  17.750   0.184  10.591  0.1105  0.1516 -0.0086
24327W        W40136   9.093  16.896   0.622 -0.0776  0.2440  0.1587
24328W        W40137  12.798   7.786   4.177 -0.0374 -0.0941 -0.0198
24329W        W40138   0.418   7.601   1.801  0.0589 -0.2041  0.0828
24330W        W40139   0.226   9.459   2.604  0.1028  0.0351 -0.1314
24331W        W40140   8.278  18.100   2.079 -0.1717  0.2003  0.0607
24332W        W40141  16.297  14.419  11.622 -0.0030  0.2727 -0.1137
24333W        W40142   5.652   9.614   2.036  0.1773  0.1432 -0.0504
24334W        W40143  16.847  16.717  14.461 -0.0667 -0.0974  0.0581
24335W        W40144  12.574  18.362  11.486  0.2381 -0.1210  0.1528
24336W        W40145  17.481   0.211   2.681  0.0750  0.0129 -0.1309
24337W        W40146   7.737   8.157   0.169  0.1780 -0.4758  0.1218
24338W        W40147   8.748  10.994   3.513  0.1485  0.0193  0.1591
24339W        W40148   9.211  16.046  14.340 -0.1239 -0.1702 -0.1516
24340W        W40149   9.930   4.572   4.524  0.0478 -0.0332 -0.0716
24341W        W40150  13.338   5.751   5.352 -0.1711 -0.0651 -0.3357
24342W        W40151  12.214   8.337  10.636 -0.1791 -0.0701 -0.0724
24343W        W40152  13.384  15.329  11.323 -0.0861 -0.0612  0.0230
24344W        W40153   5.165  17.440   3.385  0.1795  0.1776  0.1717
24345W        W40154   1.609   4.519   5.083  0.0083  0.2370  0.2326
24346W        W40155   7.385   1.100  14.691  0.3175 -0.4107 -0.1838
24347W        W40156  14.622   8.226   2.845 -0.0503  0.2511 -0.1518
24348W        W40157  14.128   9.267   4.930  0.0913 -0.0353 -0.1334
24349W        W40158   8.271   2.002   3.774 -0.0639  0.2683  0.0211
24350W        W40159   3.770  17.187  13.505 -0.1936  0.0175  0.0543
24351W        W40160  16.600  11.785   0.851 -0.0599 -0.0954 -0.2641
24352W        W40161  17.528   0.082   0.852  0.1058  0.3116 -0.1171
24353W        W40162  17.335   5.387  13.275  0.2823  0.1124  0.2516
24354W        W40163  14.447  15.954   0.865  0.0842 -0.1742  0.1575
24355W        W40164  10.548   2.406   1.428  0.1078  0.0228  0.3359
24356W        W40165   7.917  12.872  11.682  0.1736 -0.2059 -0.1500
24357W        W40166  12.285  11.368   9.547 -0.1924 -0.5335 -0.0282
24358W        W40167  17.666  10.753   0.797  0.2146  0.1727  0.1441
24359W        W40168  14.711  11.613   4.340  0.0663 -0.0730  0.0332
24360W        W40169  15.998  17.172   2.229 -0.1456 -0.0472  0.2207
24361W        W40170  16.599   8.606  11.965  0.0896 -0.1213 -0.2464
24362W        W40171  15.752   8.048   2.895 -0.1385 -0.1721 -0.3090
24363W        W40172   9.054  12.123   5.307 -0.1030 -0.2506 -0.0203
24364W        W40173   5.475   7.405  13.986 -0.0369 -0.1365 -0.1236
24365W        W40174   1.696  10.528  11.759  0.2464  0.2647 -0.1268
24366W        W40175  18.803   4.070  14.032  0.1273  0.0131 -0.2415
24367W        W40176   6.754  17.370  10.665  0.1545 -0.2843 -0.2483
24368W        W40177   0.283   5.791  13.987  0.4593 -0.0708  0.0516
24369W        W40178   1.705   4.078   4.376 -0.2994 -0.0122 -0.1841
24370W        W40179  10.485  18.782   1.740 -0.2440 -0.0961  0.2196
24371W        W40180   3.095  12.336  11.369  0.1932  0.1270 -0.0657
24372W        W40181  13.776  14.956   4.201  0.3720  0.3828 -0.2378
24373W        W40182   4.796   4.930   2.728  0.0410 -0.1119  0.2186
24374W        W40183  16.545   1.584  11.272  0.2309 -0.1894  0.1855
24375W        W40184  11.600   4.710  11.537  0.2551 -0.0715  0.0797
24376W        W40185  14.789  17.767   4.826  0.2468  0.0925  0.0688
24377W        W40186   8.842  16.978  14.920  0.0116 -0.1301 -0.0502
24378W        W40187  16.996   6.602  10.892 -0.0116 -0.2732 -0.0939
24379W        W40188  10.576   7.797   4.689 -0.0013  0.0582  0.0904
24380W        W40189  14.025  16.691   2.730 -0.0361 -0.1501 -0.4933
24381W        W40190  15.903  16.874   1.306  0.0202  0.0165  0.1294
24382W        W40191  11.955   9.473  14.605 -0.1860  0.0397 -0.2130
24383W        W40192  15.267   7.763  13.072  0.2153  0.1525  0.2015
24384W        W40193  16.850   8.918   3.872  0.0801  0.2262  0.0327
24385W        W40194   9.606  13.396   1.970 -0.0497  0.0815  0.1230
24386W        W40195   4.424  13.837   2.188 -0.0191 -0.0846 -0.1804
24387W        W40196  15.186   1.759  14.746  0.1861 -0.1474 -0.1640
24388W        W40197  12.700  16.552  11.717 -0.1869 -0.0046 -0.2705
24389W        W40198   5.545  11.436   4.025 -0.1005 -0.2185  0.1157
24390W        W40199  10.419  18.924  11.586 -0.1750  0.0643 -0.1578
24391W        W40200   6.033   5.994   1.281 -0.0188  0.1014  0.1973
24392W        W40201  17.327   3.178  11.559 -0.3822  0.0174  0.1714
24393W        W40202  11.068  14.565  10.947 -0.0517  0.1566  0.0974
24394W        W40203   4.410  13.166   4.495  0.0282  0.0302 -0.0132
24395W        W40204  12.196   9.751   3.121 -0.3472  0.1575  0.0475
24396W        W40205   2.398  14.240  12.626 -0.2380 -0.1244  0.2611
24397W        W40206   6.072   4.497  13.634  0.1046  0.2340 -0.0763
24398W        W40207  15.587  18.512  10.641 -0.0585  0.1356  0.2601
24399W        W40208   9.596  17.483   4.861 -0.0858 -0.0032  0.0296
24400W        W40209   9.886  15.691  10.283  0.1807 -0.3312 -0.2124
24401W        W40210   6.983  18.701   2.682 -0.2264 -0.0045 -0.0376
24402W        W40211   5.240  13.026  10.745 -0.0530  0.2478  0.0226
24403W        W40212  14.100   9.844   4.933 -0.4924  0.3162  0.2460
24404W        W40213  18.834   0.508  13.431  0.1694 -0.2876  0.1344
24405W        W40214  13.603  10.466   3.093 -0.1287 -0.0550  0.3424
24406W        W40215   2.861  18.259  15.107  0.0200 -0.1356  0.1186
24407W        W40216   5.632  17.593   5.296 -0.0743 -0.3418 -0.0105
24408W        W40217  16.243   7.830   4.452  0.1599 -0.0573 -0.0352
24409W        W40218  18.809   0.229  12.997 -0.3796 -0.1064  0.3888
24410W        W40219  14.415   9.865  13.807 -0.2963 -0.0482 -0.1614
24411W        W40220   1.764  14.889  12.756  0.0457 -0.1017 -0.0060
24412W        W40221  10.860  12.419  11.298  0.0265 -0.0765  0.0180
24413W        W40222  15.996   3.273   1.594 -0.1757  0.1627  0.1073
24414W        W40223  14.787   2.117  11.392  0.0586 -0.2582 -0.2343
24415W        W40224  15.222  11.472   4.475  0.1875 -0.1007  0.0189
24416W        W40225   4.088  16.415   3.822 -0.0962 -0.0252  0.3277
24417W        W40226  18.555   1.702   3.387 -0.2268  0.3128  0.0991
24418W        W40227  13.179  11.794   1.147  0.0663  0.0285  0.2695
24419W        W40228  18.916   7.215  11.656  0.0485 -0.2888 -0.1459
24420W        W40229  11.456  17.043  11.646  0.0959 -0.0991  0.2939
24421W        W40230  11.318  13.043  10.638  0.1650 -0.2695 -0.3345
24422W        W40231   6.380  16.263  13.995  0.3397  0.1581 -0.0496
24423W        W40232  15.817  13.168  14.359  0.1197  0.1049 -0.2640
24424W        W40233  10.492  13.320   2.265  0.2871  0.4782  0.0150
24425W        W40234   0.611  18.884  11.658  0.1398 -0.4191  0.0813
24426W        W40235   8.240   1.593   5.654 -0.0416 -0.0284  0.1562
24427W        W40236   2.959  16.950   3.364  0.2643  0.0011  0.0140
24428W        W40237  12.013  13.620   0.093 -0.1605 -0.1510  0.1038
24429W        W40238  16.392   5.944   0.932 -0.3947  0.0395 -0.0769
24430W        W40239  11.814   5.670   1.988 -0.1113  0.0589 -0.1912
24431W        W40240  13.437   3.313  10.465 -0.2749  0.0214 -0.3330
24432W        W40241   5.951  18.686  15.170 -0.1584  0.1193 -0.1712
24433W        W40242   1.529   8.207  14.311  0.2468 -0.1397 -0.2200
24434W        W40243   6.931   6.573  10.963 -0.1415  0.1647 -0.0270
24435W        W40244   6.285   1.543   1.133  0.0989 -0.1966  0.0696
24436W        W40245  16.725   4.466  12.770  0.1603 -0.0192  0.2878
24437W        W40246   0.238   2.578   3.354 -0.0091  0.0706 -0.0429
24438W        W40247   6.546  18.952  14.790  0.1367  0.0999  0.1162
24439W        W40248  18.196   5.945  10.567  0.4160  0.1138  0.0645
24440W        W40249  15.704  16.071   3.886 -0.1809  0.0747  0.0053
24441W        W40250   4.702   1.513  12.481 -0.1300  0.2148 -0.1138
24442W        W40251  13.980  16.687  14.028  0.2007  0.1867  0.0079
24443W        W40252   5.444   2.381   3.710  0.1258  0.2065 -0.3535
24444W        W40253   5.613  13.539   0.900 -0.2671 -0.1536  0.5611
24445W        W40254  18.570   9.260  12.131  0.3246  0.0759 -0.2167
24446W        W40255  15.916  10.670   4.902 -0.0710  0.0714  0.0334
24447W        W40256   7.826   3.447   0.203 -0.0992 -0.0514 -0.4150
24448W        W40257   5.373   9.925   5.641 -0.3438 -0.1920  0.1327
24449W        W40258   9.766  14.766  11.913 -0.1245 -0.2472 -0.2135
24450W        W40259   8.832  11.893  14.852 -0.0440 -0.0086 -0.2705
24451W        W40260   9.823  17.526  15.018 -0.2395  0.0302  0.1884
24452W        W40261  14.497  17.290   5.027  0.1726 -0.0853  0.0714
24453W        W40262   8.443  17.601  11.237  0.1421  0.0088 -0.1172
24454W        W40263  15.645  17.943   3.392  0.3469  0.4178  0.1780
24455W        W40264   3.930  14.884  14.703 -0.4774 -0.0259 -0.1709
24456W        W40265   9.643   2.266  13.401  0.4005 -0.3177 -0.1389
24457W        W40266   4.265  11.307  14.620 -0.1539 -0.4946 -0.2792
24458W        W40267   2.234   1.076   3.853  0.0476 -0.1202  0.0331
24459W        W40268  14.123  18.587  12.145  0.3935 -0.4483  0.0253
24460W        W40269  14.440   4.980  10.290  0.0033 -0.0045  0.2022
24461W        W40270  15.333   0.409   0.470 -0.0784  0.2262  0.1797
24462W        W40271  11.211   8.737  12.503  0.0790 -0.1417  0.1080
24463W        W40272   9.444   4.871  14.350  0.1478 -0.1238 -0.2839
24464W        W40273  15.159   1.643  12.171  0.1838 -0.0275 -0.0028
24465W        W40274  11.090  16.716   9.880 -0.4626 -0.0181 -0.4082
24466W        W40275  14.603  17.245   1.106  0.1163  0.0770  0.0459
24467W        W40276   7.038  16.866   2.873  0.0987  0.1530 -0.0779
24468W        W40277  12.049  18.274  11.483 -0.0570  0.0913  0.1313
24469W        W40278   4.743   6.897   3.627 -0.3297  0.1716 -0.1540
24470W        W40279  17.419  15.823  12.556  0.2534 -0.1078 -0.0339
24471W        W40280   6.829  10.958  13.367  0.1864  0.0018  0.1061
24472W        W40281   8.913   6.535  12.482  0.0373  0.3792 -0.1027
24473W        W40282   4.774   2.123   2.073 -0.1979  0.0648 -0.0893
24474W        W40283   1.833   3.888   2.049  0.0167  0.3057 -0.0428
24475W        W40284   1.683  15.656   3.596 -0.1980  0.4726 -0.0003
24476W        W40285   8.359   7.539   2.230 -0.1144  0.1557 -0.0795
24477W        W40286  11.438  12.605   0.957  0.1330 -0.1301 -0.0899
24478W        W40287  15.609  12.536  11.946  0.1924 -0.1571 -0.0086
24479W        W40288   9.664  15.924  13.536 -0.0654 -0.1570 -0.0848
24480W        W40289   0.292  15.719   1.277 -0.0540 -0.4061  0.0528
24481W        W40290   0.932   2.809  11.512 -0.4216 -0.0492  0.1524
24482W        W40291  11.609  12.611   3.390 -0.2543 -0.0343 -0.1022
24483W        W40292   5.092   5.270  10.636  0.0430  0.3083 -0.0288
24484W        W40293   8.474   0.853  12.293  0.1393  0.0415  0.2715
24485W        W40294   4.753   0.960  14.697 -0.0659  0.0184 -0.1012
24486W        W40295   8.026  12.995   0.879  0.1640 -0.3569  0.1092
24487W        W40296   8.169  14.529   2.248 -0.2337  0.0843 -0.0402
24488W        W40297   3.206   6.452   2.605 -0.2152 -0.1157  0.1371
24489W        W40298   8.754  18.952  12.082  0.0142 -0.1505  0.2696
24490W        W40299  16.554   9.488   5.393 -0.1134 -0.1241 -0.2850
24491W        W40300   7.089   5.755   2.989  0.0762  0.3778  0.0894
24492W        W40301   3.060  14.482  13.414 -0.0036 -0.2195 -0.0495
24493W        W40302   6.075   1.878  10.290  0.3214 -0.1046 -0.1875
24494W        W40303   9.082  12.757  14.485  0.0306 -0.0560  0.2411
24495W        W40304   3.171   5.943   4.061 -0.1377  0.2190  0.2512
24496W        W40305   0.653  12.235  12.169  0.2024 -0.3929 -0.3328
24497W        W40306   4.303  15.477   0.052 -0.1980 -0.0898  0.1850
24498W        W40307  10.235   5.705   9.982  0.2579  0.1441 -0.0517
24499W        W40308  12.778  13.322  14.741  0.0561  0.0464 -0.0481
24500W        W40309  18.443   5.779   3.601  0.0819 -0.0692  0.1122
24501W        W40310  13.823   9.960   1.468  0.1861 -0.3966 -0.0422
24502W        W40311   4.993   7.855   1.953 -0.1391  0.2276  0.1161
24503W        W40312  16.625   2.891  14.768 -0.0092  0.1782 -0.0132
24504W        W40313   9.448   0.096   1.243 -0.3938 -0.1977  0.2375
24505W        W40314  11.355  11.605  12.935  0.0230  0.0105 -0.1083
24506W        W40315  10.700  12.683   4.494  0.2130  0.0662  0.0392
24507W        W40316  14.111  15.503   5.482  0.3296 -0.1059 -0.2532
24508W        W40317   4.702  11.504  13.722 -0.0676 -0.0161  0.2878
24509W        W40318  12.895  18.975   2.461 -0.3710  0.0963 -0.0734
24510W        W40319  15.531   6.297  12.090 -0.3548 -0.0934  0.1968
24511W        W40320   4.302  10.288   4.479 -0.2348 -0.0573  0.3352
24512W        W40321  16.951   7.428  11.540 -0.0744  0.1182  0.1315
24513W        W40322   2.222   6.402  10.626 -0.1465 -0.2107  0.3808
24514W        W40323   4.623   5.508   0.091 -0.3001 -0.0615  0.1526
24515W        W40324  15.758  16.196  11.992  0.3028  0.1304 -0.0954
24516W        W40325   4.707   2.822   0.838  0.0834 -0.1087  0.0228
24517W        W40326  15.561  16.935  14.899  0.0504 -0.0032 -0.1861
24518W        W40327  17.137  13.075  11.609 -0.0759  0.0093  0.4404
24519W        W40328  17.202  15.428   1.845  0.0566  0.1983  0.1756
24520W        W40329   1.744  13.871   5.093 -0.0587  0.0087  0.0825
24521W        W40330  18.371  13.122  10.312 -0.3382  0.3246 -0.0704
24522W        W40331   2.419   9.204  14.176  0.5975 -0.1656  0.3517
24523W        W40332  10.395  13.561  12.302 -0.2158 -0.0387  0.2712
24524W        W40333   1.716   2.681  14.878 -0.0394  0.0475  0.4022
24525W        W40334  10.163   3.513   9.801 -0.0313 -0.1895 -0.4118
24526W        W40335   5.356   8.109   1.716  0.4285  0.0398  0.2160
24527W        W40336  16.132   3.354   2.170  0.0174  0.2539 -0.3825
24528W        W40337   7.043   3.969  14.768  0.1565  0.2513 -0.0952
24529W        W40338   6.451  12.915  11.659 -0.1546  0.1459  0.1765
24530W        W40339   3.650   4.846   5.795 -0.2738 -0.2469  0.1226
24531W        W40340   3.878  12.955  14.123 -0.1944 -0.3965 -0.0516
24532W        W40341   0.754  19.014   1.760 -0.0064 -0.3398  0.0236
24533W        W40342   1.842  13.472   2.599  0.1538  0.0077 -0.2298
24534W        W40343   5.876   6.959  12.957  0.0224 -0.2246 -0.0437
24535W        W40344  11.965  13.444   1.712  0.1005  0.1536 -0.0477
24536W        W40345  17.520   1.686   2.572  0.2559 -0.3769  0.0420
24537W        W40346  16.938   7.003  13.432 -0.0183  0.5064  0.0907
24538W        W40347   4.420  15.367  10.677 -0.0341 -0.1706  0.0526
24539W        W40348  12.418   4.803  12.283 -0.2587 -0.1158 -0.0493
24540W        W40349  16.601  18.982  14.477  0.0594  0.2097  0.1802
24541W        W40350   1.090  13.282  13.321  0.1824 -0.2763 -0.0984
24542W        W40351  15.798   0.624   5.320  0.0289  0.0460  0.1459
24543W        W40352  10.101   7.013  10.808  0.2325  0.0746 -0.0337
24544W        W40353   0.484   7.621  15.281  0.2814 -0.1970  0.0295
24545W        W40354   0.274  10.731  12.659 -0.1024 -0.2355 -0.1121
24546W        W40355  17.645   9.592   3.779  0.0692  0.1046 -0.1691
24547W        W40356   9.050   4.930  11.546 -0.0097  0.2621 -0.1467
24548W        W40357  14.110   2.523   1.739 -0.2431  0.0625 -0.2111
24549W        W40358   8.279  11.545   3.190 -0.0768 -0.0895 -0.1545
24550W        W40359   7.606  12.094  11.382 -0.1072 -0.0993  0.2211
24551W        W40360  12.878   6.722  12.204  0.2994 -0.1074  0.0425
24552W        W40361   9.970  13.249   3.197  0.0383  0.0433 -0.1002
24553W        W40362   9.104  11.085  15.211 -0.0517  0.0057  0.1756
24554W        W40363   0.834   4.243   0.394  0.1074  0.0727  0.3506
24555W        W40364   2.948   3.845   5.622  0.2862 -0.2042  0.0474
24556W        W40365  14.332  16.201   4.077 -0.1039 -0.2926 -0.0900
24557W        W40366  14.127  18.806   3.897  0.0100  0.1446 -0.2140
24558W        W40367   5.825  12.203  13.028 -0.1981 -0.2838  0.1477
24559W        W40368  16.511   0.027   5.290  0.2365  0.1221 -0.0957
24560W        W40369   5.948   8.218  11.557 -0.0866  0.0283 -0.3423
24561W        W40370   2.237   9.170   4.252  0.0234  0.1054 -0.1739
24562W        W40371  14.665  12.755  10.540 -0.0408  0.2255  0.0009
24563W        W40372   1.936  11.063  13.673  0.0863 -0.0136 -0.0098
24564W        W40373  17.315  17.447   3.376 -0.1224 -0.0075 -0.2907
24565W        W40374  16.516   2.216   4.834  0.1381 -0.0323 -0.2631
24566W        W40375   9.798   7.928   4.105 -0.1762  0.1356  0.0282
24567W        W40376   8.334   5.202   1.445 -0.1508 -0.1923 -0.1303
24568W        W40377   2.312  12.827  11.707  0.0128 -0.0156 -0.2882
24569W        W40378  18.598   4.050   4.139 -0.2716  0.0023 -0.1078
24570W        W40379   2.158   9.303   1.732 -0.0038 -0.0853 -0.0685
24571W        W40380   0.076  16.233  12.152  0.0107 -0.0332 -0.0809
24572W        W40381  18.771  12.324   0.088 -0.4115  0.0889  0.2217
24573W        W40382   9.564  14.450   4.497 -0.2764  0.0496  0.0298
24574W        W40383  13.135   5.276  13.683  0.0541  0.0297 -0.0758
24575W        W40384  10.571  19.011  10.652 -0.1952  0.2587  0.1644
24576W        W40385  11.660   5.767  15.013 -0.1495  0.1787 -0.0151
24577W        W40386   4.279  14.775   3.051 -0.6060  0.0931 -0.7215
24578W        W40387  11.711   8.899   1.039 -0.0973  0.0710  0.1161
24579W        W40388   8.159  10.763  13.034  0.0609 -0.0623 -0.1787
24580W        W40389  17.923  11.173   0.406 -0.1721  0.4441 -0.1109
24581W        W40390   5.223  17.557  10.753  0.1112  0.1416  0.3963
24582W        W40391  15.418   6.371  13.131  0.0885  0.1125  0.2617
24583W        W40392   0.291   7.675   2.638 -0.1430  0.0944  0.1061
24584W        W40393  10.087   3.015  13.300 -0.0384  0.1609 -0.0266
24585W        W40394   8.534   1.367  10.241  0.0080  0.2060  0.1413
24586W        W40395   5.396  16.061   4.975  0.0932 -0.0167 -0.1124
24587W        W40396   5.445   4.471   1.404  0.1669  0.2523 -0.2700
24588W        W40397  18.616  10.361   9.922 -0.3287  0.4729  0.2865
24589W        W40398   8.550  11.302  12.408 -0.2005  0.2165 -0.0315
24590W        W40399  12.609   8.853  12.203 -0.0487 -0.1399  0.3538
24591W        W40400   7.847  14.674   1.911 -0.1337 -0.0369  0.0273
24592W        W40401   4.481  16.553  14.617  0.0793 -0.0232 -0.0538
24593W        W40402  17.260  14.206   1.568  0.1842  0.0837  0.3215
24594W        W40403  10.331   8.149  10.982 -0.0067 -0.0882  0.2926
24595W        W40404   0.373  11.600  14.070  0.1312  0.1417  0.1346
24596W        W40405   1.398   1.274   2.893  0.0341  0.0968 -0.1119
24597W        W40406  11.434   8.986   1.429 -0.0049  0.0843  0.0040
24598W        W40407   8.317   1.278  10.661  0.0592 -0.1925 -0.0857
24599W        W40408   3.326  15.625   4.605  0.3175 -0.0843 -0.0915
24600W        W40409   4.708  17.670  12.899  0.1474  0.0206 -0.1589
24601W        W40410  18.310  11.689  13.952  0.0462  0.0066 -0.0715
24602W        W40411   1.419   7.751  11.593  0.1023 -0.0599  0.0324
24603W        W40412   1.928  11.359  11.724 -0.0295  0.5865  0.1512
24604W        W40413   9.346  15.599  10.995  0.1281  0.2861 -0.2648
24605W        W40414   9.405   3.072   0.457  0.0558  0.1990 -0.0093
24606W        W40415  14.525  14.361   3.064 -0.1254 -0.0803  0.1640
24607W        W40416   3.253  18.350  11.236  0.1388 -0.0534  0.3163
24608W        W40417   4.960  15.824  15.141  0.0935 -0.2997 -0.1833
24609W        W40418  15.494   2.938   3.576  0.0495 -0.1039 -0.0344
24610W        W40419  18.040   2.995   0.194  0.0379 -0.0207  0.0840
24611W        W40420   0.827   0.882   3.805 -0.3787 -0.0585  0.1876
24612W        W40421   5.092   4.676  10.380  0.4794  0.1393  0.2770
24613W        W40422  14.569  16.865   0.780 -0.1516  0.1702 -0.0385
24614W        W40423   1.284   4.220   3.680 -0.0251  0.2442  0.0374
24615W        W40424   9.129   7.636   4.204 -0.1889 -0.1563 -0.1597
24616W        W40425  11.495   8.153   1.363  0.0891  0.0102 -0.1597
24617W        W40426  18.313   1.128  10.955  0.2081 -0.0410  0.0874
24618W        W40427   2.193  13.836  12.395 -0.1113  0.0116  0.2735
24619W        W40428   2.179   6.525  12.683  0.2122  0.2228 -0.1060
24620W        W40429  18.440   4.485  11.682  0.3906 -0.0662  0.0402
24621W        W40430   5.983  15.025  11.764 -0.2385 -0.2002  0.2036
24622W        W40431   8.436  18.354  14.206  0.0259 -0.0380  0.1758
24623W        W40432   4.876  14.753   3.277  0.1977  0.1410 -0.0799
24624W        W40433   1.523   7.489   4.725 -0.3484 -0.2691 -0.0202
24625W        W40434   8.449  12.997  14.747  0.1215 -0.0734 -0.0549
24626W        W40435  17.352   9.521   1.579  0.2441  0.2981  0.0119
24627W        W40436   8.323   8.852  14.253  0.4031  0.0023 -0.0440
24628W        W40437   9.392  16.537   2.269 -0.0772  0.1903  0.0760
24629W        W40438   0.873   8.028  10.892 -0.1758 -0.2556 -0.4786
24630W        W40439  16.547   4.235  14.091  0.2071 -0.1223  0.1415
24631W        W40440   5.851  12.729  13.658 -0.0319 -0.2153 -0.2245
24632W        W40441  10.973   1.086  12.297  0.1303 -0.4534 -0.2524
24633W        W40442   5.872   0.180   2.396  0.0729 -0.1818 -0.3057
24634W        W40443  18.061   3.090   4.908  0.0552  0.0220  0.2505
24635W        W40444  15.151   4.568   4.776 -0.2958  0.1940 -0.1983
24636W        W40445  15.306  15.469  13.229 -0.1100 -0.1689  0.0041
24637W        W40446  14.997   2.179   5.270  0.1980 -0.1140 -0.1375
24638W        W40447   2.648   7.456  14.101  0.0794 -0.1521 -0.3461
24639W        W40448  13.093  11.261   0.546 -0.1248 -0.0052 -0.0468
24640W        W40449  12.421  14.676  10.840  0.1581  0.0396  0.1953
24641W        W40450   7.267  11.840   0.600  0.2003 -0.1784 -0.1734
24642W        W40451  10.739   5.737   1.682  0.1339 -0.1059 -0.1213
24643W        W40452   9.922   6.373   3.700  0.0742  0.0100 -0.2186
24644W        W40453  13.774  13.853   2.947  0.0262  0.5204  0.3756
24645W        W40454   4.070   9.943  10.994 -0.1998 -0.0041 -0.0278
24646W        W40455   3.409   9.618  12.038  0.0186  0.2437  0.0852
24647W        W40456   5.279  18.014   1.902 -0.1132  0.0876  0.2236
24648W        W40457  11.991   5.301   4.160 -0.0134  0.1063 -0.0241
24649W        W40458   1.807  13.517  14.353  0.1008  0.0535  0.2275
24650W        W40459   6.038  10.904   4.649  0.0700 -0.2507  0.0422
24651W        W40460  14.661  11.835  10.353  0.1151  0.0077 -0.3258
24652W        W40461  17.137   2.118   4.315 -0.0042 -0.1589  0.0545
24653W        W40462  16.279   0.450  12.822  0.1190  0.0949  0.3806
24654W        W40463   3.387  11.539  13.309 -0.2368  0.0812  0.0585
24655W        W40464  12.345  18.720   4.350  0.1371 -0.1735  0.0685
24656W        W40465   0.245   8.948   2.427  0.4098  0.1456  0.3823
24657W        W40466   8.110   3.355   0.611 -0.0793  0.3034 -0.1920
24658W        W40467  13.872  10.442   1.287  0.0634 -0.2442  0.0495
24659W        W40468  16.359   8.071  10.940 -0.2669  0.2879 -0.1775
24660W        W40469  18.093   5.118  12.654  0.3361 -0.0524  0.0363
24661W        W40470  11.917   7.600  11.397  0.1921 -0.1930 -0.3623
24662W        W40471  18.473  12.398  12.081  0.0823  0.0285  0.0121
24663W        W40472  14.528   0.474  11.484 -0.1224 -0.3442 -0.2677
24664W        W40473   9.235  12.273   1.757 -0.2399  0.0086  0.6224
24665W        W40474  15.385  17.150   3.800 -0.3293  0.1210  0.0911
24666W        W40475  16.118  15.733  13.322 -0.0635  0.4537 -0.0058
24667W        W40476   8.890  18.109   1.283  0.0320 -0.2397  0.1249
24668W        W40477   0.340  13.718   0.104 -0.4687 -0.2387  0.4429
24669W        W40478   0.341  12.517  14.806 -0.2672 -0.0503  0.0317
24670W        W40479   6.942   9.552  14.737  0.1782 -0.2509 -0.3292
24671W        W40480   6.600   4.251  13.579 -0.2604  0.2207  0.1452
24672W        W40481  15.674  12.400  14.841 -0.0720 -0.3695 -0.0990
24673W        W40482   9.581   2.450   2.166 -0.1539 -0.0436 -0.0340
24674W        W40483  10.977   1.691  15.112 -0.0686 -0.1066  0.1922
24675W        W40484   4.439  14.847   1.613  0.0682 -0.3817  0.2456
24676W        W40485   9.956   1.063  11.028  0.0209 -0.1505 -0.2061
24677W        W40486   3.747   8.102   3.852  0.1028 -0.1117  0.3457
24678W        W40487   5.617   7.631  13.602 -0.1577 -0.1073  0.3790
24679W        W40488  11.506   3.770  11.245  0.3494 -0.1501  0.0194
24680W        W40489   2.123   8.722  12.311  0.1273 -0.3072 -0.1519
24681W        W40490   0.080  14.935  12.076 -0.0278  0.2188 -0.3893
24682W        W40491   3.591  18.045  13.548 -0.0821 -0.0210  0.2496
24683W        W40492   2.346   1.688  13.682 -0.1932 -0.2555 -0.0097
24684W        W40493   3.482   8.027   9.953  0.1166  0.2962 -0.1433
24685W        W40494  14.256   1.241  13.166  0.1676  0.0427 -0.0513
24686W        W40495  10.610  11.819  13.431 -0.2372  0.0287 -0.0340
24687W        W40496   2.174   0.776   3.450  0.0101 -0.0459  0.2191
24688W        W40497  12.136   5.218   1.962 -0.0238 -0.2677 -0.1715
24689W        W40498  10.453  18.424  12.776  0.0343 -0.0776 -0.1500
24690W        W40499  13.779   3.834  11.369 -0.2765  0.1381  0.1000
24691W        W40500  10.293   7.179   5.263  0.1347 -0.5282 -0.0228
24692W        W40501   8.843   7.667  11.278  0.2990 -0.0754 -0.1194
24693W        W40502  15.668  18.027   4.486 -0.2025  0.0167  0.0836
24694W        W40503  18.571   4.628   0.378  0.2186 -0.2082 -0.1437
24695W        W40504  16.394   6.079   3.577  0.5975 -0.2696  0.1319
24696W        W40505  10.268   2.888  14.111 -0.1572 -0.1681  0.1539
24697W        W40506   5.571  18.912   4.324 -0.0844 -0.3486 -0.0207
24698W        W40507   0.745  14.498   0.452  0.1689  0.1588 -0.1830
24699W        W40508  18.288   7.706  10.445  0.0191 -0.0936  0.2945
24700W        W40509  17.172  14.409  12.057  0.3692  0.1261  0.1128
24701W        W40510   0.590   8.108  14.347 -0.1885  0.3326 -0.3646
24702W        W40511  18.047   8.788  14.489 -0.2017 -0.1097  0.0739
24703W        W40512   8.187   3.890   3.019  0.0808 -0.0876 -0.0683
24704W        W40513  12.100  13.563  13.097  0.1347  0.3613 -0.1710
24705W        W40514   4.419   3.482  10.669 -0.1467  0.2568  0.1085
24706W        W40515   4.736   3.392  13.630 -0.1824 -0.0384 -0.3825
24707W        W40516  10.778   9.051   1.623  0.0594  0.3328  0.3998
24708W        W40517   5.516   4.613   3.344 -0.3104 -0.2311 -0.0605
24709W        W40518   5.163   2.050   3.395 -0.2487 -0.0422  0.0506
24710W        W40519  12.858  14.354  14.795 -0.1615  0.1183  0.1979
24711W        W40520   4.997   6.581   3.042 -0.1055 -0.0050 -0.1243
24712W        W40521   1.738   9.121   3.846 -0.0266 -0.0452 -0.2022
24713W        W40522   0.154  14.050   1.486  0.0955 -0.0491  0.4256
24714W        W40523   0.422   9.377  12.019 -0.3582  0.3614 -0.2269
24715W        W40524  18.033   1.777   2.485  0.0544 -0.0022  0.0782
24716W        W40525   4.114  13.389   3.458  0.2727  0.5481  0.4648
24717W        W40526  12.652   3.853  13.179 -0.0281 -0.1207  0.1575
24718W        W40527  15.570   7.422   1.844  0.2318 -0.4007 -0.3435
24719W        W40528   1.987  13.904   1.716 -0.3022 -0.0081  0.1264
24720W        W40529  16.763   0.409  13.560  0.2011  0.0011 -0.0757
24721W        W40530  11.890   2.028   5.279 -0.0020 -0.3823 -0.1751
24722W        W40531   3.753   3.387  12.549 -0.0413  0.0644 -0.0991
24723W        W40532   3.830   4.756  10.297  0.3820 -0.1684  0.2660
24724W        W40533  14.615   0.459   3.259 -0.0604 -0.2400 -0.1370
24725W        W40534   9.859   8.053  11.773  0.0379 -0.0408 -0.1892
24726W        W40535   4.848  13.185  13.700  0.1570  0.0133 -0.0350
24727W        W40536   9.227   9.877   0.861  0.1406  0.2305  0.1239
24728W        W40537   0.156   7.378   4.257  0.0059  0.2753 -0.0118
24729W        W40538   3.728  11.393   0.594  0.0924  0.2343  0.1673
24730W        W40539  13.618   4.063  13.956  0.0832  0.0938 -0.1409
24731W        W40540  13.959  12.734   3.731  0.2152  0.3374 -0.1726
24732W        W40541   5.981  17.638   4.467 -0.2106 -0.1934 -0.1030
24733W        W40542  18.674   6.475  11.174 -0.3430 -0.2239  0.0179
24734W        W40543  10.530  11.976  14.823  0.0608  0.2038  0.0048
24735W        W40544   7.959   2.097  13.843  0.1184  0.1505 -0.0873
24736W        W40545   1.776   5.880  12.973  0.2902 -0.0501 -0.1692
24737W        W40546  17.853   3.159   4.395  0.1619  0.0955  0.0609
24738W        W40547   2.437   2.474  14.411  0.1411 -0.1265  0.1298
24739W        W40548   9.242   5.720   2.295 -0.2266  0.0423  0.3462
24740W        W40549   3.670  13.520   2.548  0.2753 -0.4314 -0.0446
24741W        W40550   6.185   9.849  11.841  0.0993 -0.2115  0.2275
24742W        W40551   9.420  11.132  11.122  0.0078 -0.0646  0.4319
24743W        W40552   3.639  18.037   3.475  0.2027 -0.1991  0.0598
24744W        W40553   2.276  17.819   3.379  0.3460  0.2213 -0.4075
24745W        W40554   5.703  16.236   4.641 -0.2133 -0.0728  0.0498
24746W        W40555   9.372  10.153  13.143  0.3093 -0.0649  0.2826
24747W        W40556  10.052   1.424   0.231  0.0130 -0.0159 -0.2994
24748W        W40557   1.336  11.455   0.973  0.2418  0.1194 -0.5244
24749W        W40558   0.991   1.244   1.573 -0.2376 -0.1338  0.1138
24750W        W40559   1.211  11.261   3.396 -0.0629  0.1027 -0.0911
24751W        W40560   4.418   3.006   1.417 -0.2585  0.0261  0.0612
24752W        W40561   8.124  11.180  12.690 -0.1281 -0.2325  0.3735
24753W        W40562   4.518   9.470  13.811  0.1174  0.1587 -0.0589
24754W        W40563  12.519   9.622  12.216 -0.0886 -0.1163 -0.1073
24755W        W40564   4.699   5.176   5.012 -0.0569  0.2187  0.1066
24756W        W40565  15.138  12.747   2.490  0.0707 -0.0037  0.1599
24757W        W40566   9.700  18.472  13.121  0.0337  0.0161  0.1123
24758W        W40567  16.817   9.040  12.709  0.0625  0.2919 -0.0133
24759W        W40568   7.806   4.322  14.446  0.1187 -0.0809  0.1604
24760W        W40569   6.607   8.649   4.642 -0.1736  0.3140 -0.1540
24761W        W40570  13.191  18.961  14.020  0.0194  0.3607 -0.1168
24762W        W40571   3.289   0.617  15.256  0.0639 -0.0039  0.1077
24763W        W40572  12.031  15.770   6.035 -0.1831 -0.0594 -0.0322
24764W        W40573  11.146   9.478  14.804 -0.2293  0.0213 -0.1603
24765W        W40574   1.370  16.725  11.256  0.1091  0.0604 -0.1757
24766W        W40575  14.259  11.656   1.076  0.3104 -0.1504 -0.0866
24767W        W40576  12.054   2.429   3.876 -0.0206 -0.0359 -0.1313
24768W        W40577   1.307  11.145   2.402 -0.4926 -0.0531  0.3997
24769W        W40578  15.541  15.839   0.024 -0.0959  0.1245 -0.2712
24770W        W40579  16.813   7.576   1.387 -0.5299 -0.2933 -0.0482
24771W        W40580   5.875  15.179   3.090 -0.1440 -0.1295 -0.1275
24772W        W40581  17.685   4.481  14.000  0.2137  0.0524 -0.0385
24773W        W40582  18.194   2.762  11.778 -0.0498  0.1475  0.3600
24774W        W40583  11.641  13.679  11.672  0.3620  0.1293 -0.0862
24775W        W40584   5.555   8.500  13.305  0.0465  0.1053  0.1349
24776W        W40585  18.647  12.708  13.593  0.1748  0.0244  0.2734
24777W        W40586   1.574   0.366   3.742  0.2540 -0.1735  0.0480
24778W        W40587   4.420   3.407   0.831 -0.0442 -0.1769  0.1529
24779W        W40588   5.610  12.639  10.882 -0.1881 -0.2062 -0.2461
24780W        W40589   0.505   2.778   0.561  0.0770 -0.1252 -0.0467
24781W        W40590   4.850   7.851  13.367 -0.1238 -0.1243 -0.1034
24782W        W40591  18.848   3.994   1.630 -0.1747 -0.0724 -0.3071
24783W        W40592  15.805  11.915  14.829  0.2598  0.0788 -0.2216
24784W        W40593  15.500   5.234   2.260  0.0365  0.0628  0.2539
24785W        W40594  10.290   8.746  12.262 -0.3187 -0.0140  0.1008
24786W        W40595   0.165  11.054  14.003 -0.1502 -0.2239  0.0888
24787W        W40596   0.693   0.255   4.783 -0.1535  0.0162 -0.5376
24788W        W40597  11.450   6.647  13.151 -0.2606 -0.1944 -0.2969
24789W        W40598  11.077  12.399   4.736  0.1561 -0.0851  0.0529
24790W        W40599  13.770   7.817   3.223 -0.2713  0.2757  0.1406
24791W        W40600  10.245  18.554  11.915  0.2380 -0.0937 -0.2080
24792W        W40601  14.106  10.840   4.122  0.2414  0.1564 -0.1087
24793W        W40602   9.628  18.220   1.424 -0.3483 -0.1399 -0.0382
24794W        W40603  11.565   4.535   2.996 -0.1017 -0.0366 -0.0231
24795W        W40604   0.594  10.527   0.434  0.3122  0.2284  0.0236
24796W        W40605   0.548   6.820   2.230  0.3892  0.2003  0.1942
24797W        W40606   6.729  18.916  13.251 -0.0228  0.2467  0.3156
24798W        W40607   3.890   4.462   2.577 -0.0667 -0.1806 -0.0820
24799W        W40608  13.119  15.583   0.631 -0.0625 -0.1566  0.3089
24800W        W40609   6.847   2.106   1.745 -0.2691 -0.0938 -0.1029
24801W        W40610  16.611  17.169  15.064 -0.1055  0.1625 -0.0413
24802W        W40611   4.126   6.286   3.081 -0.0969 -0.1467 -0.1470
24803W        W40612   0.792  11.805  15.171  0.0584 -0.1356  0.0220
24804W        W40613  10.778  18.006   1.755  0.1484 -0.3575  0.1112
24805W        W40614  14.787  16.398   2.171  0.0200  0.2358  0.2708
24806W        W40615  15.664   0.468   3.450  0.2817 -0.1470  0.1629
24807W        W40616  13.533   7.559  15.125  0.3706  0.0837 -0.1352
24808W        W40617   8.082  17.959   1.172  0.1002 -0.0240 -0.3569
24809W        W40618   2.762  18.461  11.564 -0.0989  0.1697 -0.1184
24810W        W40619  12.261  14.782   1.093  0.0372 -0.1678  0.0404
24811W        W40620   0.209   4.016   2.643 -0.1896 -0.3797  0.1605
24812W        W40621   2.511  14.205   1.570 -0.2208 -0.2492 -0.0247
24813W        W40622  12.551  17.316  14.694 -0.0076  0.0424 -0.1244
24814W        W40623  10.774   2.881  12.457  0.0131  0.0136  0.1189
24815W        W40624  10.723  13.962   4.510  0.0485  0.1194  0.2360
24816W        W40625  12.693  13.099   0.683 -0.1719 -0.0815  0.1238
24817W        W40626  13.077  14.987   1.374  0.3630 -0.2580 -0.0483
24818W        W40627   9.374  15.203  15.220 -0.0459  0.1201  0.0620
24819W        W40628  14.923   1.423   2.095 -0.2220 -0.3465 -0.2498
24820W        W40629  10.294   0.624   0.695  0.2278  0.0817 -0.4193
24821W        W40630   9.430   5.538  14.965 -0.1515  0.0973 -0.1924
24822W        W40631   6.163   2.312  10.034 -0.0139  0.0452  0.0928
24823W        W40632   0.321  11.286   1.688  0.2617  0.1402  0.0023
24824W        W40633  11.087  16.811  10.857 -0.2781  0.6183 -0.2079
24825W        W40634   7.391  10.655   1.127  0.2853  0.1763 -0.0036
24826W        W40635  18.242  18.166  13.983  0.3396  0.1366 -0.2630
24827W        W40636   0.403   3.550   3.944 -0.0401 -0.0391 -0.0483
24828W        W40637   9.800   7.520  14.568  0.0244 -0.2087  0.2502
24829W        W40638   0.646   3.524   5.086  0.0673 -0.1421  0.2345
24830W        W40639   5.645   2.956   1.266  0.0632 -0.0885 -0.1600
24831W        W40640  14.247  10.972  13.881  0.1446  0.2454 -0.3657
24832W        W40641   9.686  11.966  10.598  0.0189  0.2656  0.3370
24833W        W40642  11.605   5.095  13.376 -0.0905 -0.0014 -0.0667
24834W        W40643  13.666   7.088   4.582 -0.0098  0.1871 -0.0529
24835W        W40644  11.174  14.778  14.259 -0.2086  0.0506 -0.1602
24836W        W40645  10.866  11.173   5.114  0.0959 -0.2056 -0.1020
24837W        W40646  13.717  16.556  10.530 -0.0354 -0.2906 -0.1897
24838W        W40647   8.713   9.205   2.193  0.0404 -0.1128 -0.0827
24839W        W40648   9.514   2.832   3.583 -0.0889 -0.2223 -0.2412
24840W        W40649  13.357   8.321  14.722 -0.0504 -0.0095  0.0794
24841W        W40650  15.669   1.674  11.174  0.0129  0.3580  0.0255
24842W        W40651  11.929   4.635  13.199  0.3504  0.3485 -0.0623
24843W        W40652   9.461   0.584  11.375  0.1681 -0.1421  0.0503
24844W        W40653  15.186   2.541   3.579  0.0678  0.2489 -0.1535
24845W        W40654   6.216   8.288   2.343 -0.1664  0.0379 -0.2796
24846W        W40655   9.824  17.165  11.243 -0.2997  0.2004 -0.0900
24847W        W40656  10.839   1.847  14.524 -0.2189 -0.0617 -0.0753
24848W        W40657  12.070  15.105   3.292 -0.3061 -0.1834 -0.0988
24849W        W40658   3.114   2.596  10.470  0.0243  0.1917  0.1009
24850W        W40659  12.283   9.426   0.564 -0.0677 -0.3256 -0.1468
24851W        W40660  15.531   7.221  13.665 -0.1227 -0.2042 -0.3266
24852W        W40661   8.313   1.063  11.473 -0.3333  0.0982  0.4008
24853W        W40662   4.432   4.694   3.954 -0.1201 -0.0067  0.1630
24854W        W40663  12.185  18.858   2.196 -0.2503  0.0700 -0.1407
24855W        W40664  13.208   5.850   5.900 -0.1042  0.1234 -0.0695
24856W        W40665   2.709  17.150   1.611 -0.1368  0.0421 -0.2876
24857W        W40666   2.543  10.829   2.795 -0.1173  0.2599  0.0768
24858W        W40667  12.512   8.637   3.792  0.0356 -0.0277 -0.0723
24859W        W40668   2.628  10.368  14.306  0.0701  0.0238  0.1241
24860W        W40669   7.958   6.054  13.485 -0.2677  0.2201 -0.2290
24861W        W40670  12.865  13.342   5.869  0.0568 -0.3984 -0.2501
24862W        W40671  12.645  17.724   3.624  0.0862 -0.0283 -0.1785
24863W        W40672   8.704   0.044   4.384 -0.2353 -0.0548 -0.0901
24864W        W40673   7.322  13.028  12.961 -0.3317 -0.0401 -0.4874
24865W        W40674   6.763   9.152  11.370  0.0757  0.2038 -0.2460
24866W        W40675   1.119  11.330  12.243  0.1402 -0.2257 -0.3019
24867W        W40676  13.050   4.310   3.322 -0.1961 -0.1863 -0.0403
24868W        W40677  18.769  16.623   1.506  0.4219 -0.3599 -0.0026
24869W        W40678   7.271   0.360   0.898  0.0508 -0.1302  0.0528
24870W        W40679   7.802  18.613  13.423 -0.1770 -0.1310 -0.2229
24871W        W40680   7.899   6.524  13.842  0.1292  0.1170  0.2695
24872W        W40681   8.280  18.708  13.633 -0.1031  0.1055  0.1216
24873W        W40682  11.062  12.652   2.298 -0.0695  0.0305 -0.2358
24874W        W40683   2.705   6.748   2.616 -0.0325  0.0298 -0.4091
24875W        W40684   7.825  18.830  14.758  0.0361 -0.1116 -0.0607
24876W        W40685   9.460  17.704  15.225 -0.1885 -0.4824 -0.1196
24877W        W40686   4.659  14.850  14.931  0.0041 -0.1164 -0.0962
24878W        W40687   2.852  16.583   2.666  0.1581  0.3241 -0.0163
24879W        W40688   7.695  13.626   4.101  0.0664 -0.2278 -0.2782
24880W        W40689   9.131  17.896   5.765  0.1541 -0.1519  0.2442
24881W        W40690   9.346  10.549  11.790  0.0141  0.0631 -0.1095
24882W        W40691   4.463   6.606  12.696  0.1194 -0.1326 -0.1162
24883W        W40692  18.920  17.069  10.717  0.0212 -0.3520 -0.0665
24884W        W40693  12.111  18.702   2.670  0.0854 -0.2066  0.0785
24885W        W40694   1.637   8.712   1.524 -0.4569  0.3640 -0.1281
24886W        W40695   7.557   8.805  10.402  0.0584 -0.0725 -0.0859
24887W        W40696   7.265  11.749  12.893 -0.1885 -0.3869 -0.1494
24888W        W40697   3.659   7.212   2.901 -0.0116 -0.0837 -0.1373
24889W        W40698   6.635  11.180   4.630 -0.1562 -0.0262 -0.1517
24890W        W40699  19.031   0.170  13.730 -0.0100  0.1905  0.2842
24891W        W40700  14.036  11.115   0.547 -0.2394  0.3260  0.0132
24892W        W40701  16.727   9.058  14.588 -0.1950  0.0511  0.0703
24893W        W40702   6.248  15.486   4.660  0.2343 -0.0697  0.2345
24894W        W40703  14.748   5.989   5.427  0.3985 -0.1679  0.3882
24895W        W40704   2.452  17.919  12.320  0.1646 -0.2324 -0.0875
24896W        W40705  16.974   5.575   1.586  0.2299 -0.2681 -0.0081
24897W        W40706   3.290   5.294   0.063 -0.1364 -0.1067  0.2231
24898W        W40707  11.972   3.139   3.108  0.2067 -0.0584  0.0891
24899W        W40708  17.470   9.988  14.715  0.0257 -0.0240  0.2638
24900W        W40709  17.588  14.365  15.033 -0.2054 -0.1357 -0.0288
24901W        W40710   7.991   9.004  10.476 -0.1048  0.3000  0.1252
24902W        W40711  11.769   7.623   0.713 -0.0372 -0.0352 -0.2218
24903W        W40712  14.836  16.886   2.331 -0.1754  0.1587 -0.3382
24904W        W40713   3.548   6.779  14.599  0.1989 -0.0293 -0.0580
24905W        W40714   5.143  13.218   0.176  0.2386 -0.1984  0.3195
24906W        W40715   4.888   0.905   4.675  0.2033  0.1061 -0.3108
24907W        W40716  12.835  11.593   2.409  0.1252  0.0215  0.4465
24908W        W40717   1.840   2.981  12.542 -0.0111 -0.0506  0.1041
24909W        W40718  11.267  10.676  10.860 -0.1094 -0.1667  0.1358
24910W        W40719   0.687  10.513  14.915  0.0300 -0.1894  0.1577
24911W        W40720  18.535   5.438  14.202  0.0566  0.0517 -0.0585
24912W        W40721  15.604  11.455  14.457  0.0067  0.1856 -0.0937
24913W        W40722  14.778  12.989  12.952 -0.3276 -0.2937  0.0828
24914W        W40723   3.441   1.450   2.205  0.3173 -0.2930  0.2224
24915W        W40724   5.364   3.983   0.185 -0.3014 -0.0079  0.0398
24916W        W40725   4.177   7.453  14.482  0.0895 -0.2061 -0.0915
24917W        W40726   7.030  15.695   0.294  0.6075 -0.2470 -0.1951
24918W        W40727   5.078  17.347  14.526 -0.0452 -0.1906  0.0185
24919W        W40728   1.584  16.655   0.152 -0.0601  0.2503 -0.2164
24920W        W40729   0.327   1.621   0.309  0.0442  0.1075  0.3361
24921W        W40730   7.636   1.324  12.643  0.4040  0.1341 -0.1695
24922W        W40731  18.485   5.284  13.413 -0.1228 -0.3577 -0.4902
24923W        W40732  17.766   1.233   4.354 -0.1646  0.0806  0.2778
24924W        W40733  13.854   8.369  11.559  0.2114 -0.0399  0.2587
24925W        W40734  18.680   5.924  11.186 -0.0078  0.3916 -0.0087
24926W        W40735  14.323   6.266  11.064  0.0781  0.2103 -0.3259
24927W        W40736   9.110  11.337   3.298  0.0995  0.0471 -0.1121
24928W        W40737  16.090   9.978  12.001  0.2044  0.0316  0.4210
24929W        W40738  16.510   6.397   2.142  0.2501 -0.1037  0.0737
24930W        W40739   6.234   0.209  12.216 -0.1512 -0.0426 -0.1783
24931W        W40740   5.866  11.767  11.042  0.2443 -0.3564  0.2022
24932W        W40741  11.501   6.752   0.931  0.1000 -0.0987  0.6179
24933W        W40742   8.945  14.376  12.993 -0.3257  0.3387  0.2044
24934W        W40743  18.584  12.877   2.625  0.0921  0.0173  0.0879
24935W        W40744   5.509  13.298   3.139  0.0753  0.1664 -0.0171
24936W        W40745  18.880  15.039   2.847 -0.0482  0.3735  0.1130
24937W        W40746  11.521  11.145  13.580 -0.2179 -0.0119 -0.1704
24938W        W40747   9.535   3.610   1.500  0.2126  0.0079  0.3614
24939W        W40748   9.297  14.034  15.030 -0.1002 -0.0495 -0.1252
24940W        W40749  15.616   1.172  11.260  0.0586  0.5178 -0.2047
24941W        W40750   7.701  16.637  12.531  0.3473  0.1533 -0.0578
24942W        W40751  17.403  16.217   2.227  0.1707  0.0151 -0.1903
24943W        W40752   5.859  11.167   2.300 -0.0495  0.2791  0.1445
24944W        W40753  12.056  15.968  12.418  0.0314 -0.1075  0.1973
24945W        W40754   4.248   5.213   3.130  0.4116 -0.0369  0.1231
24946W        W40755   6.458  17.963   3.489 -0.2142 -0.1484 -0.0369
24947W        W40756   1.744   0.090   1.086 -0.1726 -0.2495  0.0186
24948W        W40757  10.131   3.689  11.388  0.0336  0.2318 -0.0720
24949W        W40758  18.326   3.537  12.132 -0.0786  0.0713  0.0383
24950W        W40759  17.455   0.760   2.741 -0.0655  0.1159 -0.0740
24951W        W40760  13.619  10.672  14.840  0.0040  0.0032  0.1339
24952W        W40761   3.675   5.441  13.795  0.1686  0.0961 -0.1341
24953W        W40762   3.021  14.085  12.102 -0.2083 -0.0562  0.0230
24954W        W40763  15.675   6.752  12.648 -0.3101  0.0191  0.0464
24955W        W40764  11.422   6.507  12.268 -0.3763 -0.2287 -0.0592
24956W        W40765  13.522   7.320   2.007  0.1516  0.2996 -0.1622
24957W        W40766  14.663   4.968  10.773  0.1376 -0.0341  0.0293
24958W        W40767   2.645   2.944   1.236 -0.1692 -0.2870 -0.0399
24959W        W40768  11.457   5.523   5.507 -0.2878 -0.2150  0.1494
24960W        W40769  10.988   5.839  13.181  0.0252 -0.1431  0.0526
24961W        W40770   6.044  12.904  12.387 -0.3070 -0.1698 -0.0736
24962W        W40771   2.953   8.542  12.607 -0.1726  0.2557  0.0226
24963W        W40772   2.859  11.521   1.103  0.0035 -0.2000  0.3783
24964W        W40773  15.754  12.505  12.592 -0.0293 -0.2265 -0.0122
24965W        W40774   4.412   9.960   2.057  0.3271  0.1436  0.1745
24966W        W40775  13.886  16.520   1.923  0.0445 -0.1032 -0.1488
24967W        W40776   9.577   1.353   5.181 -0.0295 -0.0252  0.1584
24968W        W40777   9.724  11.425   3.192  0.0783 -0.4721  0.0196
24969W        W40778  16.572   0.790   2.388 -0.0091  0.1959  0.2814
24970W        W40779   5.747  14.947   0.275  0.2084  0.1313 -0.0638
24971W        W40780  14.636   3.484   5.049 -0.0414 -0.0062  0.0550
24972W        W40781  10.145  17.559   0.061 -0.1703  0.0170  0.0319
24973W        W40782   0.028   0.236   1.412 -0.3262  0.1283 -0.5645
24974W        W40783  13.249  14.412   5.117 -0.1418 -0.2316  0.0483
24975W        W40784  17.174  15.831  11.043  0.0986 -0.0838  0.1733
24976W        W40785  14.274   3.577  11.529 -0.1817 -0.2704 -0.0342
24977W        W40786   9.497  14.833   4.039  0.1182  0.0821 -0.3614
24978W        W40787   7.665  11.016  15.070  0.1332 -0.0401  0.1225
24979W        W40788   9.460  14.285   4.024 -0.0048 -0.0641 -0.0652
24980W        W40789   6.950   2.022   2.771 -0.1858  0.1383 -0.0698
24981W        W40790  12.286   5.898  14.398 -0.0421 -0.1238  0.1775
24982W        W40791   7.094   4.500  12.010 -0.1314  0.3879 -0.1302
24983W        W40792   0.066   5.324  11.859 -0.0223  0.1202 -0.0260
24984W        W40793   9.430   9.134   5.342 -0.0088  0.2152 -0.1901
24985W        W40794  16.001  10.116  13.978 -0.1765 -0.3557  0.2400
24986W        W40795   2.626   2.053   4.701  0.0180  0.3501 -0.1112
24987W        W40796   6.167   1.856   2.545 -0.2312  0.1484 -0.3690
24988W        W40797  10.997   6.371  13.320 -0.3412 -0.0418  0.0731
24989W        W40798  11.308  18.347   2.832  0.0412  0.0230 -0.0360
24990W        W40799   7.236  17.370   1.512 -0.0161 -0.1752  0.2621
24991W        W40800  18.224  13.803   2.792 -0.0157  0.0170 -0.1804
24992W        W40801   9.304  13.536   0.690  0.2772 -0.1109  0.1272
24993W        W40802  18.870   5.762   2.952  0.0026  0.0123 -0.0534
24994W        W40803  17.378   6.729  13.608  0.0377 -0.1080  0.1959
24995W        W40804   7.130  17.207   9.649 -0.0845  0.1321 -0.0788
24996W        W40805   9.342   1.037   0.126  0.0386 -0.0721  0.1211
24997W        W40806  10.388   9.194  12.173  0.0251  0.1845  0.0750
24998W        W40807  10.100   4.115  11.895  0.1704 -0.0262 -0.3294
24999W        W40808   2.097  14.846  15.205 -0.1716  0.0872  0.0926
25000W        W40809  13.159  18.998   3.478 -0.0750  0.0521  0.2273
25001W        W40810   6.945   9.681   1.789 -0.2903 -0.1257  0.2292
25002W        W40811   6.685   0.120  12.720  0.1607 -0.0352  0.1612
25003W        W40812   7.639  11.630   1.293 -0.0254 -0.1242  0.0944
25004W        W40813  17.853   7.093   3.981 -0.1512 -0.1447  0.1449
25005W        W40814   0.416  18.291   2.593  0.0106 -0.0524 -0.1473
25006W        W40815  12.168  17.115   4.159  0.1653  0.0803 -0.1666
25007W        W40816   8.632   5.966   0.274 -0.0819  0.1772  0.3045
25008W        W40817   3.604   5.009  13.053  0.1793 -0.3597  0.0596
25009W        W40818  18.145   8.768   3.360  0.3558  0.0080 -0.4294
25010W        W40819   9.401   7.850   1.861 -0.3499 -0.0735 -0.1827
25011W        W40820   7.153  19.007   3.339  0.2780 -0.0119  0.2027
25012W        W40821  12.573   3.579  14.550  0.0294  0.2393  0.1759
25013W        W40822  14.366  14.220   2.611  0.1489 -0.0347  0.2485
25014W        W40823  12.632  13.696   3.199  0.2362  0.0606 -0.1474
25015W        W40824  13.175  18.412   4.178 -0.3500  0.0032  0.2096
25016W        W40825  15.233  16.899  11.119 -0.1101 -0.3884  0.0784
25017W        W40826  10.652   4.336   2.878  0.0760 -0.1076 -0.2041
25018W        W40827  13.388   7.760  14.672  0.4294  0.2189  0.0818
25019W        W40828  18.576   1.835   4.657  0.0538 -0.4584 -0.2622
25020W        W40829  18.276   1.592  11.018  0.1373 -0.0882 -0.1585
25021W        W40830  14.779  14.709   3.976 -0.0092  0.1435 -0.1142
25022W        W40831   0.369   3.638   0.943  0.2256 -0.1002  0.0207
25023W        W40832   7.711  15.068   3.562 -0.2728  0.0010  0.2721
25024W        W40833   8.520  11.585  11.058  0.2428 -0.2880  0.0908
25025W        W40834  15.504   1.749   2.468 -0.3043  0.0122  0.0239
25026W        W40835  18.746  13.998   1.181 -0.1672  0.0779 -0.0828
25027W        W40836  16.886  11.339   3.843 -0.3295  0.1322 -0.1184
25028W        W40837  16.969   6.368  13.351  0.0945 -0.2146  0.4531
25029W        W40838   5.623  14.686   4.925 -0.4107 -0.2791 -0.0938
25030W        W40839  16.925  16.627   0.409 -0.0509  0.0800 -0.1547
25031W        W40840  12.997  11.919   9.495  0.1808 -0.4277  0.0490
25032W        W40841   3.234   3.658  10.584  0.1396  0.3948  0.2179
25033W        W40842   3.295   2.269   4.132  0.0156 -0.1817  0.0470
25034W        W40843  17.078   4.065   5.662 -0.1408 -0.1559  0.1754
25035W        W40844   0.789   9.299   3.381 -0.2210  0.0154  0.1745
25036W        W40845  10.043  13.131   5.665 -0.1000 -0.0275  0.0592
25037W        W40846  12.236  12.322   2.765  0.1104 -0.1760 -0.3316
25038W        W40847  13.337   4.041  12.943 -0.2633  0.1607 -0.1385
25039W        W40848  13.548   2.580  13.879 -0.1682 -0.0493  0.4610
25040W        W40849   7.166  10.833   4.084 -0.0101  0.2291  0.1707
25041W        W40850   7.655  17.103   1.323 -0.1147 -0.1662  0.1162
25042W        W40851  15.855   9.030   2.746 -0.1928  0.0911  0.3280
25043W        W40852  17.251  13.946  12.270 -0.0651  0.0563 -0.2347
25044W        W40853   6.093   1.411  10.451 -0.0073  0.1160 -0.3696
25045W        W40854   5.144  16.649   3.213  0.5262  0.1091 -0.0195
25046W        W40855   1.176  18.952   3.610  0.1301  0.4261  0.2746
25047W        W40856   4.985  15.599   2.690  0.0419 -0.0180 -0.1352
25048W        W40857   2.629   8.296   4.561 -0.0263 -0.0296  0.1246
25049W        W40858  14.887   5.717   4.101 -0.0111  0.0721 -0.0589
25050W        W40859  16.180   4.292   3.129  0.3032 -0.1275  0.2244
25051W        W40860   1.608   2.881   2.891 -0.0588  0.2486  0.1692
25052W        W40861  13.479   0.335  14.507  0.3221 -0.0832  0.1944
25053W        W40862  16.688  17.131  12.608 -0.1822  0.0673 -0.2116
25054W        W40863   0.294  10.686   3.859  0.3405 -0.2131  0.1560
25055W        W40864  11.960   3.105  14.055 -0.0901 -0.0949 -0.3281
25056W        W40865  18.003  18.335   5.101  0.1367 -0.0213 -0.1977
25057W        W40866   7.285  14.798  14.738 -0.1359  0.1073 -0.1673
25058W        W40867   8.993  15.924  12.887 -0.2928  0.3885  0.0629
25059W        W40868  14.111  15.564   1.097  0.2558 -0.3915 -0.0332
25060W        W40869   7.044  15.495  10.790  0.1473  0.0092 -0.2217
25061W        W40870   8.375  11.038  10.996 -0.2202 -0.0636 -0.0032
25062W        W40871   0.338  15.942   0.278  0.2519  0.0332 -0.0886
25063W        W40872  13.565  18.638   3.339  0.0172  0.0574 -0.0433
25064W        W40873  11.391   4.681   5.993  0.3739  0.1055  0.1505
25065W        W40874   0.233   3.888   5.058 -0.1948 -0.4366 -0.3829
25066W        W40875   3.531   3.855  11.961 -0.2984 -0.0138  0.0220
25067W        W40876  18.864   8.541   3.762 -0.0825  0.0237  0.0691
25068W        W40877  12.931  18.600   0.565  0.1520 -0.0332 -0.2925
25069W        W40878  12.629  11.128   3.352 -0.2136 -0.0511 -0.2221
25070W        W40879   4.410  11.041   3.138  0.0949 -0.1087 -0.0004
25071W        W40880  16.970   8.956  11.178 -0.0366  0.2221  0.0475
25072W        W40881   4.330   1.437  10.659  0.2592 -0.1599  0.0515
25073W        W40882   5.494  18.228  12.944  0.5590  0.2693 -0.3231
25074W        W40883  18.870  13.740   1.999  0.1907  0.0667 -0.0272
25075W        W40884   7.330   1.323  15.261 -0.0714  0.0348 -0.0714
25076W        W40885   0.778  18.324   3.030  0.0965  0.1139 -0.0009
25077W        W40886  16.371   9.886  14.776 -0.3491 -0.0148  0.0881
25078W        W40887   9.239  12.384  14.237  0.1599 -0.0105 -0.0538
25079W        W40888   1.694  12.416   2.910  0.0308 -0.2876 -0.3403
25080W        W40889  16.575   8.079  11.431  0.0271 -0.0145 -0.1148
25081W        W40890  14.645   2.039   1.250  0.4237  0.3361  0.1232
25082W        W40891   6.334   4.294   1.626 -0.0466 -0.2169  0.3392
25083W        W40892  11.669   6.897  12.761 -0.2448  0.1138  0.0444
25084W        W40893   3.514   3.353   3.099  0.3004  0.1702 -0.4175
25085W        W40894  18.407  13.588   1.276  0.1304  0.2438  0.2125
25086W        W40895  18.780   3.917   5.159  0.2170 -0.0713 -0.0528
25087W        W40896   1.776  10.360  12.731  0.2025  0.3830 -0.0332
25088W        W40897  18.069  18.493   1.399  0.1033  0.3579 -0.3091
25089W        W40898   1.260  15.365   3.503 -0.0370 -0.1114 -0.1129
25090W        W40899  10.069  13.683   1.325  0.0917  0.3672  0.0263
25091W        W40900  16.606  15.614   2.662  0.0178 -0.2674  0.0963
25092W        W40901   5.845  17.112   1.446 -0.2064 -0.1675 -0.0103
25093W        W40902   4.157   6.755  13.221  0.1236  0.0746 -0.1523
25094W        W40903   4.555  12.137   3.045  0.0648  0.0626 -0.2306
25095W        W40904  17.180  13.806   3.180 -0.4496  0.4029 -0.0574
25096W        W40905  10.307   1.004   4.749 -0.0427 -0.1398  0.4358
25097W        W40906   6.129  17.429   1.081 -0.3283 -0.1853  0.0499
25098W        W40907   2.198  10.580  12.809  0.1818  0.0213  0.4011
25099W        W40908  18.662   3.583  12.713  0.0063 -0.2065 -0.1780
25100W        W40909  15.866   7.559   4.215 -0.1074 -0.0647  0.2325
25101W        W40910  12.520  15.166  11.015 -0.0245  0.1270  0.2866
25102W        W40911   2.307   1.135   0.540 -0.0070 -0.0146 -0.1609
25103W        W40912  17.505   5.372   1.815  0.0659  0.1458 -0.1052
25104W        W40913   7.045  10.517  15.085  0.0216  0.4178 -0.1753
25105W        W40914   0.397   5.247   4.657 -0.0719 -0.0808  0.2502
25106W        W40915  13.184  14.290  11.651  0.3543  0.3311  0.0088
25107W        W40916   4.593   5.468   0.666  0.1658  0.2143 -0.2120
25108W        W40917   6.792  17.988  10.219  0.0319  0.1144 -0.1066
25109W        W40918   1.588  10.510   3.592  0.1155  0.2365 -0.3775
25110W        W40919  17.888  10.443   0.478 -0.2181  0.1812  0.1552
25111W        W40920  11.453  16.229   1.987 -0.0053  0.0241  0.0003
25112W        W40921  12.042   3.817   2.292  0.0998  0.3645 -0.0453
25113W        W40922  12.738  12.846   4.363 -0.1147  0.2164 -0.0788
25114W        W40923   3.546  10.923  15.024  0.2009 -0.1946 -0.1375
25115W        W40924  12.134   8.464  13.748 -0.1568  0.2651 -0.1981
25116W        W40925   5.528   0.954   3.444  0.0081 -0.0205  0.0978
25117W        W40926   1.993   2.289  11.828  0.0542  0.1417  0.1624
25118W        W40927   0.613  16.578   1.062  0.1274 -0.1460 -0.1660
25119W        W40928   6.613  13.053  14.851  0.1372  0.0672  0.0159
25120W        W40929  15.751   4.944  13.063  0.0858  0.1543 -0.1612
25121W        W40930  18.612   2.920  11.412 -0.0245 -0.2355 -0.1943
25122W        W40931   9.650  10.223  11.508  0.1930 -0.0106 -0.0565
25123W        W40932  15.365   3.980  11.919 -0.0397 -0.1171  0.3510
25124W        W40933   1.826   5.979  11.568  0.1666  0.0062  0.1548
25125W        W40934   4.736   0.112  11.793  0.2099  0.0606 -0.0444
25126W        W40935   8.390   4.722   3.672  0.3331  0.5329  0.1028
25127W        W40936  17.712   8.836  14.892 -0.1721  0.1826 -0.0856
25128W        W40937   0.584   8.568  11.737 -0.2208  0.0697 -0.2164
25129W        W40938  10.572   6.947  12.649  0.0525 -0.1637  0.0283
25130W        W40939   9.670  17.648   3.926  0.0194 -0.2581 -0.1316
25131W        W40940   6.189  14.211   0.037 -0.0735  0.2310  0.1249
25132W        W40941  15.407   5.648   1.925 -0.0445  0.1167 -0.1204
25133W        W40942   8.799  11.727  13.469  0.0204  0.1377  0.1279
25134W        W40943  16.785  14.034  12.218  0.0962  0.0773 -0.2216
25135W        W40944   6.812   8.456   1.481 -0.0125  0.1252 -0.0373
25136W        W40945   6.350   0.261   1.256  0.3843  0.2504 -0.2324
25137W        W40946  11.275  17.683  12.855 -0.3464 -0.1996  0.2521
25138W        W40947   9.963  12.431  13.700 -0.0464  0.2571  0.2553
25139W        W40948  12.211   1.964  12.744 -0.2011 -0.0761  0.1233
25140W        W40949   1.379  16.566  11.818 -0.0767 -0.0907 -0.1186
25141W        W40950  15.917  14.116   3.719 -0.3328 -0.1732 -0.1880
25142W        W40951   6.344   5.355   3.276  0.0498  0.1430 -0.0947
25143W        W40952   1.021  17.576   4.672 -0.3485 -0.2003 -0.2005
25144W        W40953   3.632  13.007   3.830 -0.0477  0.0488 -0.0586
25145W        W40954   9.993  15.200   0.969 -0.1379 -0.3021 -0.0961
25146W        W40955   1.398  17.757   2.865  0.0985 -0.2811  0.0816
25147W        W40956   0.259  10.708  11.308  0.2539  0.0346 -0.2569
25148W        W40957   4.237  10.161  13.562 -0.2797  0.1769 -0.1602
25149W        W40958  16.034   8.613  12.708 -0.0135 -0.1389 -0.0634
25150W        W40959   9.833   2.994  14.222  0.1038 -0.2106 -0.1609
25151W        W40960   8.519   9.961   0.194  0.3896  0.1483  0.2791
25152W        W40961  11.592  16.847  14.967  0.1372 -0.2798 -0.0341
25153W        W40962  10.464  19.026  12.079  0.0569  0.0117 -0.2556
25154W        W40963  15.617  10.658   0.789  0.1637 -0.3201  0.1427
25155W        W40964  18.200   2.223   2.325 -0.0384 -0.2686  0.1185
25156W        W40965  11.839  12.209  13.266 -0.3438 -0.1240  0.3144
25157W        W40966  16.210   3.876  13.364  0.0002 -0.1483  0.1428
25158W        W40967  17.798   2.467  13.907 -0.0692 -0.1600  0.3415
25159W        W40968  17.815   6.780  14.503 -0.4425 -0.1661 -0.2426
25160W        W40969   7.087  16.972  13.389 -0.1478 -0.2224 -0.0350
25161W        W40970  13.393  16.519   2.093 -0.1333 -0.0972 -0.0249
25162W        W40971  12.578  13.660  12.422 -0.0291 -0.1192  0.1241
25163W        W40972   4.576  16.753   0.299  0.0473 -0.1285 -0.0887
25164W        W40973   0.574  15.259  13.613 -0.1001  0.0328 -0.3767
25165W        W40974   9.678   0.071  11.048  0.0407 -0.0356 -0.1894
25166W        W40975  14.802  17.912   0.431 -0.0416  0.1507  0.0324
25167W        W40976  17.109   9.151  13.737  0.0170  0.0451  0.0397
25168W        W40977  18.010  17.189   2.871  0.0213 -0.3436 -0.2301
25169W        W40978   9.608  10.897   1.727 -0.1171  0.1745  0.0732
25170W        W40979  13.818  13.247  14.907 -0.0957 -0.0715  0.2498
25171W        W40980   6.858   9.931   4.238  0.2189 -0.0450 -0.4133
25172W        W40981   9.696   9.380  12.596  0.0547 -0.1979 -0.1720
25173W        W40982  17.300  11.662  10.536 -0.0843  0.0810  0.0310
25174W        W40983   1.881  11.816   1.486  0.3174 -0.3926  0.0377
25175W        W40984  17.304   8.787  15.194 -0.0730  0.0348 -0.1244
25176W        W40985   0.049   1.331  11.563 -0.2209 -0.2436 -0.2493
25177W        W40986   1.607  17.390  11.727 -0.1452  0.0701  0.1251
25178W        W40987   4.194   4.326   4.199 -0.2448 -0.1381 -0.1193
25179W        W40988  15.020   6.473   2.528  0.0404  0.1570  0.0269
25180W        W40989  16.959   4.134  14.427 -0.2718 -0.2215  0.1652
25181W        W40990  17.256   7.321   1.490 -0.0646  0.0980 -0.1375
25182W        W40991  10.270   7.034  12.292  0.3592 -0.1462  0.0643
25183W        W40992  18.110  18.535  14.343 -0.1657  0.4222  0.0547
25184W        W40993   6.897  11.088  12.503  0.0426  0.0194  0.2759
25185W        W40994  19.026  17.827   3.551 -0.1561  0.1014 -0.0475
25186W        W40995  12.348  11.824  12.541  0.1978 -0.2862 -0.1790
25187W        W40996   1.945   5.026  13.486 -0.1990 -0.2048  0.0104
25188W        W40997   8.516  10.970  13.341  0.0150 -0.0778  0.0297
25189W        W40998  10.173   4.266   3.078  0.0415  0.1765  0.0919
25190W        W40999  16.995   9.922  13.723  0.1836 -0.2369  0.0053
25191W        W41000   8.692  12.298  10.372 -0.2151 -0.1884  0.1889
25192W        W41001  12.021   6.578   3.248 -0.0167  0.2289 -0.0517
25193W        W41002   3.485   6.605   5.158 -0.1984  0.0663  0.1685
25194W        W41003   7.153   0.032  12.507 -0.2443 -0.1754 -0.0871
25195W        W41004   7.560  13.445  11.674  0.0414 -0.0966  0.1037
25196W        W41005   4.036   8.655   0.178 -0.0990 -0.1558 -0.1036
25197W        W41006  16.896  11.980   5.269 -0.1122 -0.0424 -0.0134
25198W        W41007   7.708   8.190   4.020  0.0673 -0.0814 -0.1426
25199W        W41008  19.031   1.285   0.526  0.0446  0.2306  0.0448
25200W        W41009   8.162   9.149  14.760  0.6626  0.1592  0.1030
25201W        W41010   9.201   1.839  10.899  0.2791  0.4059  0.1537
25202W        W41011   6.340  11.364   1.675 -0.0144  0.1986 -0.0594
25203W        W41012  17.441  18.103  12.950 -0.2224 -0.0334 -0.0226
25204W        W41013  17.843  12.714   1.492  0.0685  0.0560  0.3407
25205W        W41014   4.455  18.263  10.685  0.0117  0.1636 -0.2784
25206W        W41015   6.557  17.086   0.217  0.0369  0.1217  0.2804
25207W        W41016   7.471   5.503  12.882  0.2122 -0.0037 -0.1563
25208W        W41017  13.157   8.037  12.460 -0.0887 -0.2315  0.3980
25209W        W41018   8.939   3.284   2.110 -0.1766 -0.1500  0.1312
25210W        W41019  14.646   6.102  14.448  0.1750  0.2429  0.2247
25211W        W41020   2.107  10.146   1.673  0.2318  0.1499 -0.0301
25212W        W41021   7.724  12.980  10.141  0.1426  0.0348  0.3378
25213W        W41022   9.350  15.497   4.546  0.1366  0.0504 -0.0370
25214W        W41023  10.334  15.506   1.104  0.3097  0.1643 -0.3391
25215W        W41024   4.914   0.866   2.959  0.3753 -0.3252  0.5210
25216W        W41025   4.706  16.699  15.042 -0.3982  0.3094 -0.1534
25217W        W41026  15.025   1.199  13.253  0.0381 -0.3142 -0.1473
25218W        W41027  12.905  18.681  14.338  0.0173 -0.0379 -0.1460
25219W        W41028   5.638  14.235  12.905 -0.2878 -0.0257  0.0729
25220W        W41029  16.715   3.201   3.977 -0.1959  0.0407  0.1013
25221W        W41030   3.007  15.796  10.503 -0.1459 -0.0842 -0.0127
25222W        W41031  14.573   2.482  14.074  0.0626 -0.2688 -0.2391
25223W        W41032  16.730   0.283   2.254  0.2075 -0.1964  0.2812
25224W        W41033   2.984   3.905   2.489  0.4772 -0.1777 -0.1009
25225W        W41034  11.021  11.396   1.768 -0.3676  0.1703 -0.1695
25226W        W41035   2.855  12.511   0.182 -0.1928 -0.0412  0.0668
25227W        W41036   0.622  17.457  14.666 -0.2142 -0.0542 -0.1043
25228W        W41037   1.813   5.891  10.011  0.0649 -0.2898  0.0032
25229W        W41038  10.713  14.521  10.540  0.0552  0.2313 -0.0576
25230W        W41039   4.128   2.751  12.479 -0.0743 -0.3850 -0.3785
25231W        W41040   0.944   9.290  12.363  0.0830 -0.0948  0.1188
25232W        W41041  16.201  15.154  13.041 -0.0621  0.4305  0.0747
25233W        W41042   9.852  11.829   2.914  0.0357  0.1564 -0.1033
25234W        W41043   7.641  14.692   4.021 -0.2341 -0.0915 -0.0175
25235W        W41044   0.021  14.548  15.219  0.2396 -0.1271  0.1684
25236W        W41045   2.580   0.251  14.780  0.2458 -0.1310 -0.1505
25237W        W41046  14.684   8.654   3.203  0.2656  0.0549  0.1170
25238W        W41047  14.363   3.129  11.795  0.3571  0.3146  0.2705
25239W        W41048  12.737   4.504   5.128  0.2475  0.0751 -0.2568
25240W        W41049  13.652   6.893   3.152 -0.3072  0.3192  0.1748
25241W        W41050   6.272  15.936   2.928  0.0222 -0.0827 -0.1667
25242W        W41051   2.148   6.182  14.882 -0.3208  0.1098 -0.2376
25243W        W41052  19.025  12.054   0.995 -0.0108  0.1366  0.3729
25244W        W41053   7.759  11.277  11.733 -0.1520 -0.2926 -0.0429
25245W        W41054   1.414  18.673  11.598  0.1442  0.2577  0.2141
25246W        W41055  15.889   5.646  14.265  0.5277 -0.4209 -0.1163
25247W        W41056  12.020  17.177   2.580 -0.1686  0.0468  0.1079
25248W        W41057  10.842  13.913   2.870 -0.1563 -0.0996  0.2345
25249W        W41058  15.274   0.350   2.142 -0.0370 -0.1047  0.0040
25250W        W41059  11.189  16.173   4.192  0.0737  0.1318 -0.1258
25251W        W41060   1.159  14.224   0.642  0.0181 -0.0012 -0.0883
25252W        W41061  10.121   2.753  15.234  0.1210  0.3438 -0.2463
25253W        W41062   8.610   2.796  13.777 -0.1730 -0.0870  0.3295
25254W        W41063   3.271   5.564  10.760  0.1999 -0.1023  0.0178
25255W        W41064  16.534  16.863  13.202 -0.0007  0.1405 -0.2456
25256W        W41065   9.093   2.633   3.644  0.0673  0.0651  0.0364
25257W        W41066  13.801  17.832  10.133  0.2136  0.1610 -0.0389
25258W        W41067  15.739   5.520   1.149 -0.0921  0.1381  0.0663
25259W        W41068   3.137   7.333   2.789 -0.1716 -0.0337 -0.0399
25260W        W41069   7.550   6.558   0.045 -0.0295 -0.0685 -0.2271
25261W        W41070   0.404  15.405   3.602 -0.0148 -0.0410  0.0800
25262W        W41071  17.328  13.997  13.645 -0.0488  0.0050  0.0378
25263W        W41072  13.965   8.121   4.170  0.3285  0.1871  0.1080
25264W        W41073   0.497  11.725   4.291  0.2011 -0.1763 -0.0505
25265W        W41074  11.228   7.143  11.961 -0.3181 -0.1405  0.0133
25266W        W41075  12.109  14.956   4.748 -0.0245 -0.1232 -0.0956
25267W        W41076  13.684   2.978   1.553  0.2449 -0.2147 -0.0433
25268W        W41077   0.207  17.379   4.910 -0.2036  0.0591  0.2105
25269W        W41078  15.801  13.041  13.463 -0.0690 -0.1446 -0.2231
25270W        W41079  17.941   1.217   0.567  0.0229 -0.0675 -0.1567
25271W        W41080  18.737   8.876   0.661 -0.4620  0.0412  0.1679
25272W        W41081  17.792   7.045   0.840 -0.1280  0.0821 -0.1198
25273W        W41082   5.009   1.114  12.708 -0.2220  0.0647  0.0188
25274W        W41083  17.166  17.702   4.837 -0.0384 -0.2197 -0.2599
25275W        W41084   4.891  14.041  15.129 -0.0926 -0.1534  0.2336
25276W        W41085   9.193   0.386  13.037 -0.0190  0.0890  0.4161
25277W        W41086   4.260  18.506  11.475 -0.0999  0.4515  0.0423
25278W        W41087  18.066  16.686   0.525 -0.2043  0.0579 -0.0814
25279W        W41088   4.210  12.963   1.948  0.0465  0.4137 -0.1116
25280W        W41089   7.848   2.296   3.848 -0.2525 -0.0664  0.0365
25281W        W41090  10.193  17.854   4.001 -0.0543  0.2534 -0.3419
25282W        W41091   0.551  13.955   0.552  0.1806 -0.1462 -0.1484
25283W        W41092   6.319  17.094  10.588 -0.0292  0.4608  0.1333
25284W        W41093  17.035   4.906  10.208 -0.0908  0.1402 -0.3894
25285W        W41094  16.099  12.255  14.493  0.1551  0.0315 -0.0937
25286W        W41095  10.820  10.173  12.434 -0.4457 -0.0290  0.0145
25287W        W41096   2.982   7.673   0.414 -0.0542  0.1830 -0.2385
25288W        W41097  15.539   7.850   0.297  0.2517 -0.0284 -0.1108
25289W        W41098   4.744  14.524  10.439  0.0434 -0.0215 -0.1753
25290W        W41099   2.130   4.961  12.488 -0.0875 -0.3699 -0.3116
25291W        W41100  10.538   9.716  10.872  0.0834  0.0115 -0.1668
25292W        W41101   5.935  16.959  12.000  0.0261 -0.0122  0.0133
25293W        W41102   2.107  15.975   1.169 -0.2261 -0.2609  0.1242
25294W        W41103   6.994   5.006  13.730  0.0685 -0.0641 -0.1258
25295W        W41104  11.808  18.340   4.372  0.1231 -0.0188 -0.1777
25296W        W41105  17.047  18.036   1.532  0.0340 -0.1766 -0.1992
25297W        W41106   4.516  16.479   0.769 -0.4542  0.0815 -0.0617
25298W        W41107  11.539   1.577  10.485 -0.0785  0.0186 -0.0394
25299W        W41108  18.211   3.848  12.546 -0.3477  0.1223 -0.1302
25300W        W41109   9.111  17.506   3.818  0.1289 -0.0551 -0.1308
25301W        W41110  11.160   3.103  15.086  0.1471 -0.1379  0.0049
25302W        W41111   8.196   6.362   4.582 -0.0814  0.2602 -0.0891
25303W        W41112   4.813   0.609  13.425  0.4786 -0.2681 -0.1655
25304W        W41113  11.231   6.129  12.506  0.1198 -0.2277  0.3319
25305W        W41114   6.993   5.311   1.905 -0.0791 -0.0547  0.0063
25306W        W41115   7.397  15.622  13.759  0.2975  0.1653  0.1022
25307W        W41116   4.371   3.457  12.281  0.2073  0.1957  0.1386
25308W        W41117   9.222   9.651   4.867 -0.0372  0.0561  0.1433
25309W        W41118   7.873  15.124   4.761 -0.0546  0.1353 -0.3175
25310W        W41119   3.174   6.388   1.082 -0.0308  0.0797 -0.1349
25311W        W41120  13.091  12.079   4.070 -0.0575  0.0104  0.3387
25312W        W41121   2.615   2.826  11.179  0.0675 -0.1953 -0.1279
25313W        W41122   3.018  12.857  11.424  0.3186  0.0977 -0.3244
25314W        W41123  17.004   3.158  13.033  0.2881  0.0030 -0.0246
25315W        W41124   6.326  11.434  11.148 -0.0235  0.1349 -0.2482
25316W        W41125  13.209  13.970  15.231 -0.0989  0.0409 -0.1538
25317W        W41126   0.909   7.236   0.030  0.2288  0.1723 -0.2007
25318W        W41127   1.763   8.031   1.408  0.1704 -0.0388  0.5237
25319W        W41128  18.864  17.035  14.123 -0.0495  0.0433 -0.1682
25320W        W41129   8.248  17.173  12.168 -0.1556 -0.2210 -0.1123
25321W        W41130   7.427   0.715  11.635  0.0915  0.1253  0.1160
25322W        W41131   8.781  18.100   1.786 -0.1371  0.2204  0.0261
25323W        W41132   3.824   7.495  11.802  0.2684 -0.0391 -0.3175
25324W        W41133  14.219   2.372  11.741 -0.1905 -0.0286  0.1476
25325W        W41134   4.949  17.601   1.773  0.0755  0.0587  0.0969
25326W        W41135   9.370   8.206   4.227 -0.1527  0.2014  0.2446
25327W        W41136   8.049  18.437   1.290 -0.3250 -0.1306 -0.0271
25328W        W41137  11.721  18.737   0.401 -0.2041 -0.0444  0.1112
25329W        W41138  15.598   0.862   4.859 -0.0322  0.1687 -0.0130
25330W        W41139   3.833  13.938   3.393 -0.0329 -0.1296 -0.2075
25331W        W41140  11.667  12.070   1.540 -0.1771  0.2138 -0.0205
25332W        W41141   2.998  10.174   1.522 -0.0957  0.1867 -0.2900
25333W        W41142   0.698  15.876  10.613 -0.0123  0.0669  0.2027
25334W        W41143   9.227  14.402   3.629  0.0528 -0.2039  0.4067
25335W        W41144   7.053   0.717   5.209  0.1021  0.2346 -0.1444
25336W        W41145   3.264  18.806   3.614 -0.0288  0.2465  0.0738
25337W        W41146  13.392   7.230  12.860  0.0253 -0.1589 -0.2986
25338W        W41147   0.467  12.727   2.234 -0.1044  0.0968 -0.0728
25339W        W41148  11.644  12.178   3.013 -0.1781  0.1177  0.2204
25340W        W41149   1.655   0.486   2.853  0.0831  0.0535  0.2149
25341W        W41150   6.861  10.438  12.358  0.0539  0.2228 -0.0280
25342W        W41151   7.231   9.360   3.981  0.1282 -0.0810  0.5077
25343W        W41152   9.091  12.088  12.567  0.1436 -0.0367 -0.4103
25344W        W41153  11.841  15.574  13.070 -0.3264 -0.0725  0.1391
25345W        W41154  15.443  17.967   9.466 -0.0489 -0.2156 -0.0302
25346W        W41155  17.647   4.060   0.942  0.0725  0.0458 -0.1249
25347W        W41156   7.383   8.164  10.852  0.2319  0.1768 -0.0347
25348W        W41157   6.829   5.685   3.512 -0.0351 -0.2872  0.1230
25349W        W41158  12.905   9.134  10.588  0.0054 -0.1277  0.0785
25350W        W41159  12.394  10.269   2.130 -0.1201  0.0466  0.0525
25351W        W41160   7.304  15.599  13.194 -0.1603 -0.0933  0.1062
25352W        W41161   5.379  15.503  12.805 -0.0987 -0.1977 -0.3936
25353W        W41162  17.100   9.554  14.625 -0.2280 -0.1192 -0.3850
25354W        W41163  13.342   5.218   5.442 -0.1007  0.0457  0.0144
25355W        W41164  14.674  17.059  10.861  0.2986  0.0920 -0.0147
25356W        W41165   2.109  12.798   0.473  0.1493 -0.0964 -0.0044
25357W        W41166  14.851  14.435   2.736 -0.2564  0.1895 -0.0743
25358W        W41167   2.801   1.076  14.938 -0.2202  0.1899 -0.0953
25359W        W41168  11.197  18.402  11.168  0.2510  0.1233 -0.1200
25360W        W41169  11.385  12.237  13.086 -0.0342  0.1158 -0.0156
25361W        W41170  13.025   3.017  12.402  0.0613 -0.3117 -0.1619
25362W        W41171   2.923  18.395   9.637  0.1595  0.0070  0.0006
25363W        W41172  15.624   3.912   0.270 -0.1632 -0.2350  0.0676
25364W        W41173  16.307  11.883  12.203  0.0971 -0.0152  0.0562
25365W        W41174   5.269   3.500   1.950  0.1349  0.0154  0.1852
25366W        W41175  15.233   4.026  13.352  0.4817 -0.3304 -0.0984
25367W        W41176   0.147  17.303  13.591  0.3402 -0.0165  0.1820
25368W        W41177   5.627  17.446  12.677  0.4892  0.2836 -0.1577
25369W        W41178  11.982  13.296   0.826 -0.2675  0.1383 -0.1528
25370W        W41179  14.017   5.120   2.830 -0.2146  0.0360  0.1611
25371W        W41180   6.981  15.171   2.104 -0.2213  0.0317 -0.2336
25372W        W41181   6.756   3.406  13.846 -0.3291 -0.0130  0.0185
25373W        W41182  11.906  10.753   3.829 -0.0149 -0.1324  0.0956
25374W        W41183   9.042  15.012  14.849  0.0362 -0.2354 -0.2238
25375W        W41184   6.235   8.936  13.672 -0.0121  0.0574  0.0301
25376W        W41185   2.171   6.745   3.482 -0.2164 -0.1461 -0.0362
25377W        W41186  11.019   9.066  13.833  0.1254  0.1514 -0.1426
25378W        W41187   4.155  12.750   1.231  0.0695  0.2527  0.3254
25379W        W41188  18.453   1.001  14.062 -0.1815 -0.0628  0.3317
25380W        W41189   2.541  16.752   3.277  0.1418  0.0593  0.2670
25381W        W41190   4.045   7.746   3.521  0.0107  0.3322 -0.0614
25382W        W41191   0.140   9.688  14.627 -0.3450  0.1115 -0.0728
25383W        W41192  13.564  13.821   2.073  0.1481 -0.0810  0.1956
25384W        W41193   0.862  18.815   3.218  0.0653  0.2187 -0.0034
25385W        W41194  10.537  14.931   5.675 -0.0653  0.0297 -0.2152
25386W        W41195  10.080  18.459   4.317  0.2378  0.0649  0.1133
25387W        W41196   9.751  10.634   5.709 -0.3244  0.0169  0.2386
25388W        W41197   4.251  13.420   2.890  0.0959  0.0038  0.0985
25389W        W41198   0.606  15.778  13.559  0.1101 -0.0744 -0.0548
25390W        W41199  11.887   5.327   5.216 -0.2931  0.0307 -0.1482
25391W        W41200  10.901  17.658  11.076  0.1026  0.2790  0.1114
25392W        W41201   2.205   5.220   2.560 -0.1671 -0.0088 -0.0916
25393W        W41202   9.690   8.903  13.216  0.1746  0.0675  0.1177
25394W        W41203  14.859   9.637  12.589  0.1771 -0.3607  0.0571
25395W        W41204  10.437  16.727   3.951 -0.0568 -0.1289 -0.1221
25396W        W41205  15.014   7.862   5.827  0.2118  0.0376  0.0271
25397W        W41206  12.301  16.722   1.610  0.0178 -0.0845  0.0403
25398W        W41207  17.176   1.932   3.832  0.1385  0.0824 -0.3097
25399W        W41208   7.881  11.441   2.142  0.1461 -0.2026  0.1801
25400W        W41209  10.671   9.660  13.514  0.0153 -0.1429  0.2287
25401W        W41210  13.932  12.883   0.027  0.1279 -0.1901 -0.2433
25402W        W41211   8.174  16.846   3.121 -0.2403 -0.2851 -0.1188
25403W        W41212   2.062  17.049  13.015  0.0987 -0.2616  0.1288
25404W        W41213  18.653   5.508  14.695 -0.0790  0.3396 -0.1234
25405W        W41214   9.952  16.224   4.932 -0.0019  0.1249  0.1313
25406W        W41215  15.697   9.431  11.432  0.2681  0.0581 -0.2635
25407W        W41216   4.821   2.192   3.079 -0.3426 -0.0598  0.1080
25408W        W41217   8.973   7.258  14.644  0.0721  0.1206 -0.1795
25409W        W41218   4.646  16.330  10.882  0.0969  0.0749 -0.1311
25410W        W41219   3.628  18.746   0.283  0.1475 -0.2473 -0.5051
25411W        W41220  13.183   4.437   4.805 -0.0476  0.1349  0.2968
25412W        W41221  12.118  11.021  12.019  0.1036  0.0389 -0.2720
25413W        W41222  14.320  17.116  14.853 -0.2244  0.0919  0.0024
25414W        W41223   8.555  15.319   4.064  0.0081  0.0428 -0.1213
25415W        W41224  11.899  13.820   3.767 -0.4163  0.2598 -0.1675
25416W        W41225  15.601  13.608  14.073 -0.1497  0.1976 -0.1284
25417W        W41226   8.981   3.809   2.335  0.1552 -0.2898 -0.0824
25418W        W41227  11.581   9.588  13.132  0.1132 -0.5021 -0.3619
25419W        W41228   7.074  17.277  10.128 -0.1646 -0.0578  0.2836
25420W        W41229   7.136  15.369   0.620  0.0052 -0.2440  0.3644
25421W        W41230  15.430  18.312  13.591 -0.1703  0.1305 -0.2507
25422W        W41231   5.578   6.157  12.961  0.0528  0.5613  0.1275
25423W        W41232   5.785   8.241  15.116  0.0602 -0.1751 -0.3308
25424W        W41233  14.120   6.723  11.390 -0.3127  0.0741 -0.3309
25425W        W41234  17.931  18.850   0.231  0.1034  0.0656 -0.0338
25426W        W41235  14.328   2.521  14.619 -0.4292  0.0177  0.1675
25427W        W41236   2.555  17.076   3.699  0.1203 -0.2341  0.1636
25428W        W41237   7.148   8.619  10.687 -0.0785 -0.0770  0.3332
25429W        W41238  12.779  12.447  15.005 -0.1438 -0.0892 -0.0139
25430W        W41239  15.628   3.549   0.864  0.2511 -0.3994  0.0487
25431W        W41240  16.519   4.344   4.926 -0.1371 -0.2803 -0.1413
25432W        W41241   4.589  14.029   4.345  0.0824 -0.1999  0.1105
25433W        W41242  12.536   6.658   1.981 -0.1703  0.2415 -0.0498
25434W        W41243   5.060  16.775   0.723 -0.0288 -0.0450 -0.1882
25435W        W41244   3.405   0.635   5.128 -0.0013 -0.2164  0.2867
25436W        W41245  14.314   9.324   0.356 -0.1828  0.1887 -0.1875
25437W        W41246  18.230   0.026   1.622  0.0031  0.1642 -0.1673
25438W        W41247  11.352  16.676   4.407 -0.1285  0.1426  0.1469
25439W        W41248   1.982  12.981   0.005  0.1077 -0.1896 -0.1672
25440W        W41249  11.795   1.630  12.850  0.4891 -0.1780  0.3051
25441W        W41250  12.586   4.130   4.783  0.0736 -0.1037  0.0493
25442W        W41251   0.153   5.570   5.137  0.0911  0.1160 -0.3497
25443W        W41252  12.807   1.199  14.398 -0.0319  0.2403 -0.0371
25444W        W41253  18.227  12.153   0.307  0.1286  0.0591  0.0732
25445W        W41254  14.989   9.942   2.001 -0.1694  0.0600  0.0521
25446W        W41255  18.444   1.864   1.220 -0.0672 -0.2608 -0.1743
25447W        W41256  11.985   9.017  11.080 -0.2580 -0.0049 -0.1451
25448W        W41257  13.292  16.708   4.143  0.1284  0.0615 -0.0381
25449W        W41258  14.885   4.416  14.286 -0.0221  0.2805  0.1540
25450W        W41259   2.136  15.917   3.559 -0.0582 -0.2261 -0.1232
25451W        W41260  14.640   8.477  15.059 -0.1991 -0.1100  0.3071
25452W        W41261   6.360   5.539  12.874  0.2526 -0.1797  0.1861
25453W        W41262   7.945   1.820   2.403  0.2423 -0.0573 -0.1240
25454W        W41263   3.602   6.075  12.685 -0.3563  0.0599  0.0601
25455W        W41264   3.673  10.109  10.751 -0.1104  0.1905  0.0167
25456W        W41265  15.620   6.941  14.799 -0.1559  0.1699 -0.0202
25457W        W41266   6.197  17.546   0.127 -0.1788  0.0115 -0.4638
25458W        W41267   6.755   6.092  14.492 -0.1478  0.2524 -0.0127
25459W        W41268   7.870   2.828   1.249  0.1975 -0.0282 -0.0354
25460W        W41269   4.462   4.432   0.957  0.0417 -0.2981  0.0482
25461W        W41270   8.018   7.745   4.000 -0.1955  0.2102  0.1417
25462W        W41271  14.752  11.641   0.722 -0.0874  0.1641  0.0300
25463W        W41272   7.067   9.326  13.352  0.0381 -0.1416  0.3181
25464W        W41273   5.302   7.036  12.555  0.0471 -0.0908  0.0404
25465W        W41274   2.406  12.196  11.810 -0.0698 -0.2042 -0.0612
25466W        W41275  10.428   1.562   0.998  0.2422  0.1496 -0.3412
25467W        W41276  18.399  14.005   2.068  0.2187  0.1962  0.0486
25468W        W41277   4.769   2.945   5.520 -0.0671  0.1238 -0.0949
25469W        W41278  17.268   2.981   3.227 -0.0515 -0.2380  0.2375
25470W        W41279   2.893   1.064   1.335  0.0069  0.0266 -0.0680
25471W        W41280   0.797  10.105   1.273  0.0917  0.0144 -0.0075
25472W        W41281  17.631  10.498  13.335 -0.1343  0.4724  0.0185
25473W        W41282   5.058   7.811  11.527  0.0056  0.2663  0.0863
25474W        W41283  14.612  13.455   1.982 -0.2426 -0.2651  0.0621
25475W        W41284   9.837  11.546  14.207 -0.2953 -0.2920 -0.1616
25476W        W41285  18.172  15.446  12.684  0.0304  0.2103 -0.1480
25477W        W41286   6.760  13.941   4.073  0.3206  0.1100 -0.3881
25478W        W41287   2.396   9.811   0.964  0.2239 -0.2658 -0.1409
25479W        W41288  12.194   3.495   4.239 -0.3137 -0.0746 -0.1359
25480W        W41289   2.504  18.943  11.715  0.1282  0.1884 -0.1531
25481W        W41290  17.250  11.126   2.601  0.0652 -0.3567 -0.0395
25482W        W41291   5.363   5.131  15.236 -0.0005 -0.2179 -0.2478
25483W        W41292   8.482   6.161  11.336 -0.0833  0.0579 -0.2210
25484W        W41293  15.862   1.789  11.905  0.2923  0.1050  0.3336
25485W        W41294  15.154   7.272   0.797 -0.3617  0.0799 -0.1277
25486W        W41295  17.154  16.168  14.429  0.0137 -0.1442 -0.1173
25487W        W41296   2.204   5.621  10.189  0.1827  0.1954  0.0377
25488W        W41297   7.171  18.096   0.960 -0.2286  0.2007  0.0551
25489W        W41298   1.851   5.514   2.802  0.0590  0.1003  0.1451
25490W        W41299  10.432  17.467  14.174  0.0481  0.0432  0.0769
25491W        W41300   2.253  16.216   0.752 -0.1444  0.1656 -0.3980
25492W        W41301  18.957  12.651  15.018  0.1248  0.2734  0.1729
25493W        W41302   0.028  14.347  12.723  0.2734  0.2362 -0.0410
25494W        W41303  13.563   7.225  11.349 -0.1354  0.1825  0.0133
25495W        W41304  11.076   4.142  14.000 -0.0889 -0.0900  0.0372
25496W        W41305  17.879   6.604   5.263  0.0760 -0.0383  0.2740
25497W        W41306   4.053   1.733  11.978 -0.0114 -0.1316  0.1007
25498W        W41307   8.130  16.758   4.763  0.0140  0.3047 -0.2921
25499W        W41308  12.921   8.036  13.503 -0.1366  0.0931  0.5526
25500W        W41309  14.067   7.096  13.764  0.2231 -0.0033  0.3333
25501W        W41310   4.955   1.284   0.813  0.1438 -0.0014 -0.5097
25502W        W41311   5.986   6.950  15.184  0.1039 -0.1850  0.1866
25503W        W41312  12.391  11.953  15.187 -0.0632 -0.0227 -0.3614
25504W        W41313  16.564  10.754   0.078  0.2956  0.1995 -0.0496
25505W        W41314  18.043   8.677  13.334 -0.1774  0.4879  0.4572
25506W        W41315   9.469   9.096  12.236  0.1715 -0.0503 -0.0932
25507W        W41316   6.867  18.738  11.015 -0.2538  0.0642  0.0487
25508W        W41317   1.202   4.740  15.054  0.0106  0.2300  0.1861
25509W        W41318   0.479   3.031   4.260  0.3721  0.2811 -0.2000
25510W        W41319   2.703  17.680   2.659 -0.1393 -0.0375 -0.0539
25511W        W41320   1.968   7.977   5.064  0.1723  0.2654  0.1059
25512W        W41321  12.184  18.716   0.640 -0.2496 -0.1887 -0.1072
25513W        W41322  15.972  17.417  14.335 -0.0286  0.0131  0.3683
25514W        W41323  18.225  14.728   3.466 -0.2320 -0.1494 -0.2711
25515W        W41324  11.551  10.854   3.351  0.0975 -0.1003  0.1012
25516W        W41325   6.885   1.120   2.214  0.2398 -0.2336  0.0596
25517W        W41326   4.209  15.083  13.481 -0.0678  0.1330  0.0685
25518W        W41327   1.559  15.396  14.603  0.0709 -0.0703 -0.1428
25519W        W41328   2.862   9.749   4.946  0.1416 -0.1224 -0.2280
25520W        W41329   5.484   1.622  13.298 -0.0386  0.0933  0.1447
25521W        W41330   0.937   6.557  12.441  0.2841  0.0922 -0.2094
25522W        W41331   1.087   4.540  11.039 -0.2175 -0.0570 -0.0009
25523W        W41332  14.820  15.149   4.934  0.1065  0.1150  0.1352
25524W        W41333  13.015   6.695   2.942  0.1458 -0.2170  0.2138
25525W        W41334  11.895   3.415   4.971 -0.0567  0.3414 -0.1249
25526W        W41335   5.834   6.221  10.223 -0.2986 -0.2330 -0.0115
25527W        W41336   4.353   4.763  11.774  0.0825 -0.2174  0.0354
25528W        W41337  13.202  16.161  12.577  0.0124 -0.2023 -0.2996
25529W        W41338  14.912  14.142   0.697 -0.3187 -0.0433 -0.0106
25530W        W41339   7.378  18.149  12.657  0.0898  0.2257  0.2661
25531W        W41340  17.326   3.622   0.200  0.1076 -0.1904 -0.0868
25532W        W41341   3.274  12.018  13.236 -0.2797 -0.0087 -0.1563
25533W        W41342   2.000  12.342   1.956 -0.4536  0.1323  0.1178
25534W        W41343   0.055  13.870  13.086  0.3383 -0.1474 -0.3441
25535W        W41344   5.020  18.667  10.689 -0.3972  0.0386 -0.1919
25536W        W41345   2.583  13.292   2.784 -0.1649  0.0720 -0.0531
25537W        W41346  12.532   9.079   0.798  0.2679  0.0567 -0.1347
25538W        W41347  14.287  12.527   9.815  0.2090  0.1094 -0.3877
25539W        W41348  12.479  11.478   1.997  0.2727  0.0773  0.0111
25540W        W41349  14.629   9.163  12.794  0.2119 -0.1332 -0.3823
25541W        W41350  13.569   0.181   2.579  0.1269  0.4364  0.0502
25542W        W41351   8.436  10.502  13.334  0.1430  0.0448 -0.1383
25543W        W41352   3.542   7.513   2.452 -0.0031  0.1357 -0.1051
25544W        W41353   3.346  14.682  12.033  0.2697 -0.1095 -0.0891
25545W        W41354  13.352  18.703   0.375  0.1767  0.0300 -0.1478
25546W        W41355   3.462   6.281  11.335 -0.1592  0.1058 -0.0821
25547W        W41356  18.814   7.995  11.650  0.0917 -0.2471 -0.0198
25548W        W41357  13.367   2.629   1.333  0.1813  0.0112  0.2540
25549W        W41358   5.620  13.377  11.601  0.1825 -0.0169  0.1212
25550W        W41359   8.654  11.053   1.920  0.2951  0.2957 -0.0320
25551W        W41360  18.433  15.582   1.244 -0.0121 -0.1376 -0.0884
25552W        W41361   8.511   7.975  14.201 -0.1032  0.1059  0.2572
25553W        W41362   1.156   7.494  13.495  0.2560 -0.1156 -0.0677
25554W        W41363   8.926  17.952  10.717  0.1224  0.1286  0.1882
25555W        W41364  15.586  14.054  10.833  0.0011  0.2125  0.0922
25556W        W41365  11.857   4.521  12.307  0.0677  0.2606  0.1202
25557W        W41366  14.526   5.051  14.917  0.0954 -0.0063  0.1874
25558W        W41367   8.732   8.503  15.164  0.0598 -0.4296  0.2096
25559W        W41368   7.013   4.944  11.450 -0.1411  0.1418  0.1026
25560W        W41369  14.671  18.994  13.799  0.2042 -0.0024  0.2667
25561W        W41370   9.985  18.426   0.635 -0.1201 -0.2804  0.3237
25562W        W41371  18.228   6.772  12.628  0.0538 -0.0373 -0.1765
25563W        W41372   0.491  16.612   4.217 -0.0768  0.1607  0.3541
25564W        W41373  18.529  16.944   4.022 -0.2265  0.1548 -0.1435
25565W        W41374   0.613   2.962  12.878 -0.0419 -0.0497 -0.0648
25566W        W41375  16.785  12.097  11.759 -0.0891 -0.1281  0.4057
25567W        W41376   6.896   6.898   2.794  0.0984 -0.1070 -0.2061
25568W        W41377  11.653   7.175  10.520 -0.0203 -0.3319  0.1639
25569W        W41378  16.683   7.992  13.864  0.0625 -0.1534 -0.0724
25570W        W41379  16.380  18.934   2.200 -0.1241 -0.0402  0.2326
25571W        W41380   8.270   2.431   4.569  0.0206 -0.1372 -0.4544
25572W        W41381   7.298   0.182  14.040  0.0955 -0.2206  0.1169
25573W        W41382   4.821  11.092  10.627  0.1040  0.0803 -0.3287
25574W        W41383  16.230   6.265   1.703 -0.1133  0.0660 -0.0303
25575W        W41384   4.263   7.862  12.527 -0.1538  0.0701 -0.0326
25576W        W41385  14.400   1.941  12.826  0.0536  0.1269 -0.1322
25577W        W41386  18.423   2.057  13.285  0.2570  0.0497 -0.1406
25578W        W41387  13.422   8.257   1.148 -0.0414 -0.2503  0.2556
25579W        W41388   7.838  17.163   4.913 -0.2319  0.1569  0.0349
25580W        W41389   4.827   9.943  15.093  0.3182 -0.2864  0.1322
25581W        W41390  11.191   3.373   3.704  0.0878 -0.1911  0.2688
25582W        W41391  12.078   8.111  13.420  0.4768  0.1200  0.2698
25583W        W41392  11.862   2.702   3.477  0.2581 -0.1846  0.1628
25584W        W41393   7.166  13.556  13.092  0.1349 -0.0948 -0.4275
25585W        W41394  12.452   2.406   1.403  0.1154 -0.2216  0.2620
25586W        W41395   9.909   0.255   3.934 -0.3039 -0.1244 -0.0914
25587W        W41396   3.791  12.940   2.187 -0.1313 -0.1437  0.4154
25588W        W41397   8.921   1.463  14.590  0.0817  0.0550  0.1966
25589W        W41398   3.783   4.223  11.111 -0.0106 -0.1412 -0.0051
25590W        W41399   9.594  14.288  10.132 -0.1382  0.1961 -0.1807
25591W        W41400  16.003  16.168  13.570  0.2816 -0.0485 -0.3084
25592W        W41401   6.172   3.129   1.143 -0.4913 -0.1060  0.0027
25593W        W41402   2.012   4.157   5.024  0.1805  0.0446 -0.1932
25594W        W41403   5.484   1.799  11.949  0.1131 -0.2850 -0.1627
25595W        W41404   6.162  18.273  13.922  0.0399 -0.0310  0.1984
25596W        W41405   0.745  16.215  12.719 -0.0543  0.1737  0.2281
25597W        W41406  12.204   2.036   4.322 -0.0189 -0.1205  0.1233
25598W        W41407  13.423   4.017   0.862  0.1656 -0.0954  0.2320
25599W        W41408  12.680  11.515   5.103  0.1003 -0.3345  0.1904
25600W        W41409  16.219   4.240  13.699  0.2903 -0.2671  0.2684
25601W        W41410   2.878   9.065   3.100 -0.1186  0.0428  0.3590
25602W        W41411  18.383   7.348   3.008 -0.3746  0.1031 -0.1829
25603W        W41412  16.215  13.663   2.972  0.1404  0.1073  0.0100
25604W        W41413  17.194   5.160   2.749 -0.0025  0.0972 -0.2895
25605W        W41414  14.149   8.085  14.228 -0.1223 -0.1025 -0.0458
25606W        W41415   4.692  13.470   3.262  0.0906  0.3291 -0.0121
25607W        W41416   6.946   7.245  11.186  0.0175  0.2637  0.0734
25608W        W41417   9.439   9.839  14.005  0.1837 -0.0353  0.0619
25609W        W41418   8.859  13.796   2.581  0.1109 -0.0728  0.0801
25610W        W41419   3.033  16.903   3.872 -0.3932 -0.2470 -0.0800
25611W        W41420   3.593  11.486  10.372 -0.1114 -0.1410  0.0503
25612W        W41421  13.068  12.838   0.965 -0.0853 -0.0814  0.2115
25613W        W41422  14.427   4.224   5.413 -0.0337 -0.1831 -0.1058
25614W        W41423   8.485  17.003   1.832  0.3104  0.0978 -0.0563
25615W        W41424  15.994  13.320   0.539  0.2780  0.0988 -0.4243
25616W        W41425  13.234  11.111  11.687 -0.1433 -0.2023  0.2365
25617W        W41426  15.643   2.585  11.408 -0.0870  0.2446  0.1208
25618W        W41427   8.200   9.771  11.843  0.0537 -0.1473  0.4379
25619W        W41428  15.179  18.544   5.416 -0.3941 -0.0525  0.2858
25620W        W41429  15.653   4.893   3.124  0.0240  0.1698 -0.1123
25621W        W41430   3.841   7.574   0.815 -0.2293 -0.1199 -0.1412
25622W        W41431   7.849  11.435   3.852  0.1777  0.1985 -0.0761
25623W        W41432   1.879   7.797   4.543 -0.1567  0.0410 -0.0394
25624W        W41433  11.202   3.342   3.113 -0.1422 -0.1298 -0.0720
25625W        W41434   1.996   2.537   1.632 -0.0307 -0.0323  0.1607
25626W        W41435   3.249  11.158   0.907 -0.1742  0.2317 -0.1169
25627W        W41436   3.835   9.189   3.121  0.3309 -0.0270  0.1483
25628W        W41437  13.326  14.777   4.001  0.0444 -0.1577  0.1601
25629W        W41438  16.050  14.781  14.105  0.0929  0.2362  0.3886
25630W        W41439   1.069  10.076   2.789  0.0052 -0.0681 -0.0433
25631W        W41440   0.285  14.530  10.005 -0.0190 -0.0551 -0.1620
25632W        W41441  17.806   5.166  13.445  0.1308 -0.0075  0.2218
25633W        W41442  14.262   4.723   4.625  0.2880 -0.0505 -0.0934
25634W        W41443  11.370   8.525  13.071 -0.0935 -0.2743 -0.0670
25635W        W41444   4.953   1.568  11.291  0.2532 -0.2524 -0.3167
25636W        W41445   9.316   2.070  12.153 -0.0410 -0.1835 -0.0026
25637W        W41446  16.493  17.903   1.048  0.0409  0.0937 -0.1304
25638W        W41447   5.158  13.739  10.761  0.0424 -0.0611  0.1373
25639W        W41448  18.131   3.310  14.028 -0.0742  0.0599 -0.1898
25640W        W41449  14.560  18.046  14.753  0.0428  0.0399  0.0985
25641W        W41450   9.551  13.014   2.275 -0.0742 -0.3815 -0.1613
25642W        W41451   3.214   3.157   1.152  0.0678 -0.4988 -0.2941
25643W        W41452  14.428   7.742   2.576  0.0691  0.0951 -0.1142
25644W        W41453  16.854  18.200  12.729  0.3428 -0.0673  0.0967
25645W        W41454   8.766  10.513  14.328  0.0243 -0.3582 -0.0217
25646W        W41455  16.116   8.073   2.172 -0.1830  0.2850 -0.0847
25647W        W41456  12.400  17.729   1.849 -0.0139 -0.0545 -0.0978
25648W        W41457   4.134   1.019   9.585  0.0206  0.4761  0.1710
25649W        W41458  16.191  12.067   2.627 -0.0745  0.3511  0.4126
25650W        W41459  14.346  13.512   0.100  0.1389  0.5059 -0.1574
25651W        W41460  12.492  16.958  10.738  0.0100  0.1433  0.1982
25652W        W41461   4.000   1.463  10.240  0.4613  0.2492  0.2571
25653W        W41462   8.469   4.965  12.498 -0.1091  0.0300 -0.3488
25654W        W41463  12.581   2.091  12.017  0.0908 -0.2619  0.0575
25655W        W41464   2.405   1.406  10.737  0.1233  0.3793  0.1823
25656W        W41465  10.058   6.956   3.592  0.1153  0.1287 -0.2324
25657W        W41466  17.869  13.570  11.741  0.0630 -0.0685  0.2045
25658W        W41467  13.031   5.519  11.645  0.2080 -0.1649 -0.3780
25659W        W41468   8.352   6.705  15.106 -0.1326 -0.3071  0.0250
25660W        W41469   7.571  16.007   0.365  0.1036 -0.2291  0.0607
25661W        W41470  12.214   5.930  11.907 -0.2533  0.0144  0.1518
25662W        W41471   0.104  14.900   1.520 -0.1618  0.0014 -0.1206
25663W        W41472   7.017   5.304   3.875  0.2549  0.1527 -0.1228
25664W        W41473  17.229   0.017   1.430  0.2359 -0.2094  0.1111
25665W        W41474  17.742   8.581   2.851  0.2603  0.0757 -0.1773
25666W        W41475  11.677  10.085   4.611  0.2108  0.3657 -0.3150
25667W        W41476   2.865   3.832  12.555 -0.0974 -0.0071  0.3168
25668W        W41477   2.042  13.277  13.872 -0.0413 -0.3227  0.0717
25669W        W41478  11.307   6.796  10.492 -0.0578  0.0144 -0.2140
25670W        W41479   5.712  16.054  12.045 -0.1310  0.0335 -0.2736
25671W        W41480   1.016   0.123  10.708  0.0074 -0.3438  0.0150
25672W        W41481   5.294   6.723   4.465 -0.1218  0.1800  0.0685
25673W        W41482   4.123   5.216  14.009 -0.1006 -0.1233 -0.1591
25674W        W41483   9.488   2.449  13.866  0.0350  0.0214  0.2522
25675W        W41484   7.541  12.587  11.657  0.0406  0.1092  0.1556
25676W        W41485   0.543  16.079   4.258 -0.2902 -0.1118 -0.1659
25677W        W41486   4.407   0.480  12.506  0.3457 -0.4789 -0.1509
25678W        W41487  16.500  13.658  11.156 -0.0957 -0.1312  0.1802
25679W        W41488  14.483   4.329  12.962  0.1633 -0.0004  0.4196
25680W        W41489   8.566   8.474  10.803 -0.0396  0.1622 -0.0536
25681W        W41490  14.692  16.523  13.687  0.2109  0.0307  0.1346
25682W        W41491   9.990  11.451   9.917 -0.2274  0.1918 -0.2931
25683W        W41492  12.616   5.962   0.854 -0.1570 -0.3369 -0.0488
25684W        W41493   8.145  10.837   1.983 -0.2498 -0.0586  0.1086
25685W        W41494  18.252   0.021   4.688 -0.2682  0.0679 -0.1506
25686W        W41495   4.619   6.505  13.146 -0.1931 -0.0978  0.0162
25687W        W41496   4.009  15.606  11.702  0.0258  0.2235  0.0944
25688W        W41497   7.021  13.370  11.744 -0.3006 -0.1742 -0.1705
25689W        W41498  17.375  14.821  14.901 -0.0367 -0.0522 -0.1547
25690W        W41499   7.985  16.244   0.082  0.4598 -0.0721  0.0669
25691W        W41500   8.250   7.260   0.015 -0.0933  0.0214 -0.0363
25692W        W41501  16.874  18.828   2.059 -0.2305 -0.4198  0.1242
25693W        W41502  12.647  12.004   1.902  0.2803  0.1965 -0.0268
25694W        W41503   4.251   6.272   2.378  0.2122  0.1167  0.0154
25695W        W41504   9.403   4.604   2.102  0.1002 -0.0492  0.2340
25696W        W41505  11.173   4.320   3.966 -0.1310  0.0504  0.0082
25697W        W41506   0.971   4.047  11.595  0.0689  0.0626  0.0446
25698W        W41507   1.625   8.183   3.321 -0.0819  0.0138  0.5381
25699W        W41508   6.781  17.650   1.700 -0.1908 -0.2945 -0.1028
25700W        W41509   0.112  13.234  15.159 -0.4256  0.0893  0.0563
25701W        W41510  18.830  17.594   4.980 -0.1188  0.1694  0.4613
25702W        W41511   6.954   2.075  15.152 -0.0729 -0.2482  0.0411
25703W        W41512   7.475   9.793   3.031  0.1947  0.1216 -0.1463
25704W        W41513  14.356  10.195  12.085 -0.0266  0.0479 -0.1054
25705W        W41514  14.431  18.570   6.223  0.0789 -0.4159 -0.1835
25706W        W41515  11.854  14.625   4.372 -0.0648 -0.1509 -0.0556
25707W        W41516   7.908   6.268   4.996  0.1129  0.1843 -0.4481
25708W        W41517  17.637  18.154   4.041  0.1076  0.1340 -0.2417
25709W        W41518  16.209   1.837  12.319  0.1418  0.1955  0.1392
25710W        W41519  11.628   2.179   0.817  0.0028 -0.0785  0.0884
25711W        W41520  16.361   7.223   2.650 -0.7271  0.1192  0.1998
25712W        W41521  17.471   0.541  13.029 -0.1054 -0.1349 -0.1608
25713W        W41522   0.465  12.187   2.139  0.1661 -0.0248  0.1893
25714W        W41523  17.022  11.482   2.934 -0.1062 -0.1745  0.1831
25715W        W41524   2.336   9.139  12.261 -0.1960  0.2400  0.2418
25716W        W41525  12.454  13.181   4.144  0.0267 -0.1416  0.0299
25717W        W41526  12.485   3.812  15.040 -0.0856  0.2354 -0.1743
25718W        W41527   0.581  15.230  14.626  0.0600 -0.1179 -0.0610
25719W        W41528  15.780  10.117   0.596  0.0262 -0.0931 -0.0674
25720W        W41529   2.988   4.703  12.253 -0.1793 -0.2485 -0.1445
25721W        W41530   8.929  10.080  14.066  0.0543 -0.0826 -0.2009
25722W        W41531   0.215   0.084   4.690  0.1382 -0.2345 -0.1371
25723W        W41532  12.454   4.079   4.294  0.1838  0.0437 -0.0482
25724W        W41533  12.375   9.349  10.233  0.0878  0.1174 -0.0747
25725W        W41534  16.966  10.734  11.131 -0.0757  0.0394  0.0697
25726W        W41535   0.346  14.771  12.863  0.1631 -0.2239 -0.1437
25727W        W41536   7.390  11.826   3.017 -0.1978  0.0679  0.4484
25728W        W41537  13.300  17.603   0.060  0.0348  0.0098 -0.4322
25729W        W41538  15.762   3.614  11.453 -0.2549 -0.1919 -0.0824
25730W        W41539   5.198  11.228  11.472  0.0868  0.1132  0.1611
25731W        W41540   0.207   3.255   5.175 -0.0439  0.3766 -0.1145
25732W        W41541  13.247   3.975  11.366 -0.0633 -0.3034 -0.1127
25733W        W41542   9.519   2.175   0.058  0.0771 -0.0397  0.3303
25734W        W41543  10.510   9.864   3.784  0.0892 -0.1500 -0.0983
25735W        W41544  13.612   4.832  13.209 -0.0629 -0.0221 -0.1062
25736W        W41545  17.211   4.820   4.682  0.3102  0.1659 -0.1034
25737W        W41546  14.524  18.662   5.559 -0.0045 -0.1168 -0.2486
25738W        W41547  15.741  10.343  12.700  0.0285 -0.0465 -0.2699
25739W        W41548   8.452   6.885   4.608 -0.0500 -0.0730 -0.4357
25740W        W41549  10.850  15.899   3.609  0.0976 -0.2770  0.1424
25741W        W41550  17.052  10.290  10.832  0.0490  0.2615 -0.0502
25742W        W41551   6.400   8.561  11.523 -0.1279 -0.0885  0.2938
25743W        W41552  18.294   6.246  11.409  0.1699  0.1874 -0.0575
25744W        W41553   2.623   4.317  13.467  0.1299  0.0888  0.0738
25745W        W41554  15.899   0.958  11.644  0.0348 -0.2426 -0.2556
25746W        W41555   4.417   8.282   0.665  0.1263  0.3766  0.4374
25747W        W41556   1.475  13.996  12.939  0.0611 -0.4710  0.0624
25748W        W41557  11.188   9.981  15.244 -0.1565 -0.1971 -0.3940
25749W        W41558   8.821   5.315  15.107 -0.1529  0.1289  0.1894
25750W        W41559   2.537  10.819   4.763 -0.0127  0.1238 -0.0167
25751W        W41560   5.815   7.689   4.339 -0.1810  0.0911  0.2636
25752W        W41561   8.459   3.346  10.385 -0.1362  0.3297  0.1762
25753W        W41562   6.367   8.900  12.434 -0.1299  0.2592 -0.2055
25754W        W41563   2.559   5.130   5.503 -0.3060  0.2055  0.2898
25755W        W41564   7.813   2.036   3.467  0.2599 -0.0536 -0.0248
25756W        W41565   2.807  14.409   0.378  0.2598 -0.0102 -0.0754
25757W        W41566   3.290   7.057  13.270  0.0346  0.1953  0.2820
25758W        W41567   5.263   8.209  13.087 -0.2190 -0.2716  0.0702
25759W        W41568  14.678  17.792   0.950 -0.1881 -0.0524 -0.1986
25760W        W41569   8.841   4.217  14.286 -0.0235  0.1292 -0.5212
25761W        W41570  11.615  11.187  13.093  0.1942  0.3532  0.1693
25762W        W41571   9.304   5.338  13.524  0.2472 -0.0495 -0.1486
25763W        W41572  16.472  11.308   4.250  0.0548  0.1519  0.2262
25764W        W41573  10.350  10.169  10.738 -0.3827 -0.2477  0.1352
25765W        W41574  17.874  10.349  11.050  0.0350 -0.1260 -0.4500
25766W        W41575   4.579   9.446   9.776 -0.3007 -0.1982 -0.2645
25767W        W41576  13.245   2.290  10.648 -0.2594 -0.1556  0.0760
25768W        W41577  10.842   7.405   0.551 -0.1440 -0.0664 -0.3213
25769W        W41578  15.517  11.066  10.238  0.0986  0.1982  0.0571
25770W        W41579  13.651  18.605   5.027 -0.1458  0.0982 -0.1917
25771W        W41580   9.845   0.329  14.039 -0.0754 -0.0724 -0.0630
25772W        W41581   1.533   7.690   3.261  0.0128 -0.0543 -0.1392
25773W        W41582  14.656   8.692   1.017  0.2299  0.0144 -0.0452
25774W        W41583   6.153  18.255   5.046  0.0484 -0.1836 -0.3422
25775W        W41584  15.504   8.549  13.561  0.2073  0.0138  0.2810
25776W        W41585  12.059   6.405  10.902 -0.0205 -0.2869 -0.4526
25777W        W41586  13.105  16.635  11.372  0.0726 -0.0739 -0.0339
25778W        W41587   3.367   4.392  15.066 -0.0918  0.1610  0.2269
25779W        W41588   9.532   7.239  13.774  0.0329  0.0610  0.0774
25780W        W41589  17.755  18.381  13.956  0.0027  0.2242  0.1265
25781W        W41590  10.867  11.511  10.383 -0.1853  0.0930  0.0835
25782W        W41591  18.926   3.684   1.216  0.1299  0.3844  0.0624
25783W        W41592   1.597  16.048  13.940  0.2416 -0.0805 -0.2202
25784W        W41593   9.812   1.042   1.457  0.1142 -0.4454  0.0602
25785W        W41594  12.912   4.682  12.705  0.0529  0.1128 -0.0687
25786W        W41595  16.870   5.377   3.031 -0.1062 -0.1956  0.3755
25787W        W41596  12.297  13.215   4.648  0.0794  0.0315 -0.3126
25788W        W41597  11.320  17.685  13.716  0.1278 -0.1678  0.2402
25789W        W41598  12.027  17.768   0.349 -0.1625 -0.0716  0.2507
25790W        W41599  11.070   4.436   1.444  0.0027 -0.1457 -0.0806
25791W        W41600   0.032  13.827  13.576  0.0622  0.2148  0.1847
25792W        W41601   3.546  10.062   2.775 -0.2070 -0.2861  0.2230
25793W        W41602  17.892  14.313  11.196 -0.2229  0.0559 -0.0599
25794W        W41603  14.477   0.810   2.364 -0.2019 -0.0722 -0.1056
25795W        W41604   1.584  12.239   3.774  0.1936  0.0517  0.2075
25796W        W41605  15.713   9.933   9.755  0.0223  0.2479 -0.2778
25797W        W41606   5.025   1.682  14.543  0.2103  0.1383  0.0047
25798W        W41607   2.534  16.922   2.504 -0.2881  0.0777 -0.2507
25799W        W41608  18.914   8.165   4.088  0.3582  0.0319  0.2118
25800W        W41609  13.447   8.162  12.870  0.3198  0.1647  0.2494
25801W        W41610   9.525   2.205  14.774 -0.0606 -0.0358  0.4933
25802W        W41611  11.934   7.713  12.124  0.3846 -0.3894 -0.1572
25803W        W41612   2.531   3.343  14.784 -0.1467  0.0468  0.2328
25804W        W41613   4.947  16.693  10.325  0.0572 -0.1605  0.3209
25805W        W41614  14.062   8.739   2.385 -0.3388  0.3495 -0.0505
25806W        W41615   3.142  18.541  14.817  0.0633 -0.0409 -0.1653
25807W        W41616  10.685   7.173   2.425 -0.3079 -0.0760 -0.0967
25808W        W41617  16.980  15.183  13.226 -0.1543 -0.1401  0.0662
25809W        W41618  18.360   9.145  14.645 -0.0362 -0.0064  0.1621
25810W        W41619  16.947  14.408   1.926  0.1349 -0.0172 -0.3635
25811W        W41620  16.127  14.794  11.186  0.1074  0.1385 -0.1841
25812W        W41621   6.706  12.293   1.429  0.3242  0.2373  0.1987
25813W        W41622   7.120  15.546  14.222  0.1770  0.2482 -0.1803
25814W        W41623  12.534   5.034  10.681  0.1053 -0.1494 -0.0657
25815W        W41624   8.932   2.428   4.060 -0.0396 -0.0032 -0.0447
25816W        W41625  17.353  15.215   3.816  0.0811  0.0856  0.0333
25817W        W41626   2.356  10.646   0.153  0.0305 -0.0270  0.2245
25818W        W41627   9.198  14.834   0.985  0.1120  0.0565 -0.0455
25819W        W41628   6.283   3.647   1.456 -0.1732 -0.2563  0.0643
25820W        W41629   9.736  13.872  13.876  0.2863 -0.1690 -0.3556
25821W        W41630   8.458  14.142  13.248 -0.0879  0.1092 -0.0986
25822W        W41631   3.325   1.126  12.166  0.2011 -0.0627  0.2309
25823W        W41632  11.360   7.385   0.905  0.1885  0.1573 -0.0955
25824W        W41633  16.400   1.692   3.842  0.0287 -0.1244 -0.1270
25825W        W41634   4.214  10.797  12.383 -0.2324  0.0201 -0.2330
25826W        W41635  18.981  13.451  10.623  0.1487  0.0577 -0.0008
25827W        W41636   4.528   2.973  12.191  0.0283 -0.2051  0.0998
25828W        W41637  16.074   8.268   3.810  0.0210 -0.0211  0.2133
25829W        W41638   4.070  15.337   2.432 -0.3265 -0.1305  0.0843
25830W        W41639  15.868   3.297   3.504  0.3831 -0.2449  0.0040
25831W        W41640  15.436   9.840   2.254 -0.1325  0.0036 -0.0574
25832W        W41641   0.874   0.882  14.636  0.1774  0.0670 -0.1168
25833W        W41642   2.906  11.984   2.225  0.2032  0.1051 -0.0597
25834W        W41643  11.670  13.567  14.313 -0.1739 -0.2051  0.0603
25835W        W41644   0.034   2.445  14.466 -0.3559  0.1007  0.1104
25836W        W41645  12.363   7.180   2.621  0.0508 -0.0466  0.0307
25837W        W41646   4.673   4.360   2.094 -0.2621 -0.3440  0.2249
25838W        W41647   5.230   8.639   4.195 -0.0442  0.0008  0.2431
25839W        W41648  15.062  14.737   0.778  0.0538  0.0279  0.0566
25840W        W41649   7.791  10.959   4.595 -0.2968 -0.2272 -0.0683
25841W        W41650  15.847   3.019   3.931 -0.0350  0.1794 -0.0362
25842W        W41651  18.391   5.830   9.672  0.0200 -0.2470 -0.1536
25843W        W41652   7.564   4.281   0.422  0.0757  0.1739  0.1927
25844W        W41653  15.486   4.089   1.723  0.1223 -0.2291 -0.0116
25845W        W41654   0.281  11.411   4.770 -0.1838 -0.1660 -0.0744
25846W        W41655  15.203   6.175   0.502  0.0297  0.3333 -0.1854
25847W        W41656  17.303  12.026   3.002  0.0020 -0.0614 -0.0177
25848W        W41657  10.347  18.815  11.017 -0.0839  0.0970  0.1215
25849W        W41658  10.140   3.761  15.003  0.0854  0.1606  0.1051
25850W        W41659  10.168  16.220   0.388  0.0300  0.4360  0.1598
25851W        W41660   9.256  17.842   0.433 -0.0542  0.0122 -0.1844
25852W        W41661  14.557   1.555  11.232  0.0027 -0.0096  0.0755
25853W        W41662   4.959   1.938  12.210  0.0672  0.4057 -0.2598
25854W        W41663  16.098   5.805   3.297 -0.1137 -0.1107  0.0172
25855W        W41664   6.052  13.548  13.228 -0.0226 -0.0218 -0.2327
25856W        W41665   5.472   2.154  12.506 -0.1367  0.0349 -0.1574
25857W        W41666  10.015  11.032   3.007  0.2277 -0.0221  0.1882
25858W        W41667   4.516   7.678   1.774 -0.0486 -0.3664  0.1725
25859W        W41668   9.057  18.808  11.242 -0.0597 -0.0187 -0.0077
25860W        W41669   4.359   8.710   3.963  0.1853  0.4462  0.1681
25861W        W41670   6.963  16.857  11.856  0.1758 -0.0854  0.1136
25862W        W41671   9.020   0.480   1.238 -0.2503  0.1484  0.1027
25863W        W41672   2.766  12.594  13.026  0.1985  0.4220  0.0960
25864W        W41673   6.090   5.993  15.139 -0.0748 -0.3779 -0.1383
25865W        W41674   3.815   0.744   0.328 -0.0245  0.0858 -0.2411
25866W        W41675  17.444  10.561  10.926 -0.0517  0.0521 -0.2756
25867W        W41676  15.325   2.808   0.452  0.2025 -0.1084  0.2551
25868W        W41677   7.631  11.626  14.564  0.3890  0.0667 -0.1902
25869W        W41678  13.787  10.430   4.050  0.0655 -0.0877  0.3097
25870W        W41679   2.167   2.966  13.508 -0.1761 -0.0594  0.0580
25871W        W41680   7.768   9.269   1.854 -0.2010  0.0885 -0.1956
25872W        W41681   9.448   0.859  12.211  0.1219 -0.1525 -0.1384
25873W        W41682  12.630   0.796   2.522  0.3120 -0.0198  0.0091
25874W        W41683  10.655  12.549  12.185 -0.0247 -0.0572  0.0058
25875W        W41684  15.970   9.589   5.673 -0.0746  0.1876  0.1213
25876W        W41685  13.004  14.109   2.473 -0.0573 -0.0207 -0.2287
25877W        W41686   5.767   1.555   4.717 -0.1222 -0.0364 -0.2888
25878W        W41687  11.716  16.061   0.055 -0.2819  0.0224 -0.1061
25879W        W41688  14.011   9.078  11.183  0.1673 -0.3102  0.1764
25880W        W41689  17.208  11.642  11.745  0.2676  0.0495  0.2262
25881W        W41690   9.112   3.546  13.422  0.1493 -0.0818  0.1316
25882W        W41691  14.521  12.042   3.182 -0.0798 -0.4256  0.1792
25883W        W41692   7.008   7.373   2.968 -0.1788 -0.0121  0.0061
25884W        W41693  12.371  18.056  13.019 -0.3759 -0.1602 -0.0398
25885W        W41694   4.261   9.755   1.642 -0.2753  0.0010 -0.2859
25886W        W41695  12.976  13.526  15.173  0.0193  0.1209 -0.1186
25887W        W41696   1.470   8.999   2.669  0.1071  0.0444 -0.1060
25888W        W41697  14.181  16.002   3.271 -0.0745  0.0932 -0.3980
25889W        W41698   9.428   0.763  14.900  0.0992 -0.2024  0.1574
25890W        W41699  11.047   8.968  14.824 -0.0822  0.1925 -0.2575
25891W        W41700  11.264  17.341   2.540  0.3997 -0.0484 -0.2886
25892W        W41701  10.843  15.162  13.186  0.0101 -0.0236  0.0239
25893W        W41702  16.280   6.377  14.846  0.4063  0.1662  0.2174
25894W        W41703  13.178   5.113  11.299 -0.0171 -0.4007  0.1985
25895W        W41704  10.747  16.752   4.361  0.0067 -0.4142 -0.0859
25896W        W41705  14.286   6.280   5.607 -0.1259  0.2250  0.0442
25897W        W41706   4.569   6.993  10.877  0.3305  0.4071  0.2844
25898W        W41707   8.158   7.668   0.978  0.1274 -0.2121 -0.0345
25899W        W41708   5.842   3.650   0.317  0.1121 -0.3533  0.1808
25900W        W41709   4.676   0.733  12.939  0.1341  0.0359 -0.2490
25901W        W41710   1.542   9.741   3.011 -0.0616 -0.1562  0.0213
25902W        W41711   2.164  11.311  12.733  0.1792 -0.0942 -0.1813
25903W        W41712  15.303  18.283  11.355  0.3109  0.1243 -0.1323
25904W        W41713  10.655   8.099   4.290  0.2554  0.4279  0.2623
25905W        W41714  15.233  11.381   3.337 -0.1600  0.1065  0.0125
25906W        W41715   5.842   3.574   3.473  0.0866 -0.1564  0.0189
25907W        W41716   9.689   7.228   4.744 -0.0750  0.0598  0.1810
25908W        W41717  18.499   5.118  15.023  0.1278  0.2880  0.0293
25909W        W41718  14.604  18.181   5.958 -0.0257  0.2510 -0.2821
25910W        W41719   4.109   9.136  11.306  0.2973 -0.0082 -0.2159
25911W        W41720   0.965   0.328   0.978 -0.0597  0.2035 -0.2205
25912W        W41721  16.051  18.340  10.847 -0.0233 -0.2414  0.1216
25913W        W41722   7.532  14.675  13.823  0.0370 -0.1818 -0.0450
25914W        W41723   5.060  10.316   3.167  0.0964  0.0240  0.0357
25915W        W41724  18.360   4.371   2.440  0.1529  0.0677  0.0096
25916W        W41725   8.544   5.120   3.312  0.1182 -0.2228 -0.1496
25917W        W41726   5.398   0.036  13.355 -0.1283  0.1259 -0.0675
25918W        W41727   0.292   2.962   0.136 -0.0239 -0.3693  0.2144
25919W        W41728   1.089  13.015   4.293  0.1764  0.0865 -0.1555
25920W        W41729  18.485  14.106  11.971 -0.2581  0.1573  0.1767
25921W        W41730   4.346   4.316  15.179 -0.2704  0.0234 -0.0805
25922W        W41731   8.678   9.069   0.704  0.2771 -0.1827  0.2684
25923W        W41732  16.487   3.956  12.769  0.2767  0.2454  0.0298
25924W        W41733   5.159  17.082  13.420  0.0297  0.0675 -0.1044
25925W        W41734  19.022  14.261  11.282 -0.0108 -0.0788 -0.2970
25926W        W41735  10.543  10.520  11.633  0.2126 -0.2142  0.0756
25927W        W41736   4.947   3.874  10.704  0.0091  0.1882 -0.1179
25928W        W41737   6.469   8.689  14.473  0.1169  0.1313  0.0638
25929W        W41738   6.646  18.385  10.719 -0.0093 -0.0388  0.2499
25930W        W41739   2.676   0.739  13.021 -0.1659 -0.1278  0.1651
25931W        W41740  16.870   1.163  11.087  0.1576  0.1074  0.0764
25932W        W41741  10.918  16.334  10.652  0.1257  0.0372  0.1539
25933W        W41742  14.535   7.679  12.121  0.1728  0.1301  0.0892
25934W        W41743  14.342   6.285   1.887 -0.3065  0.0848 -0.1461
25935W        W41744   6.926   6.617  14.152 -0.2057 -0.5125  0.1440
25936W        W41745  14.335  13.637   1.589  0.2449  0.0973  0.1554
25937W        W41746   2.717   6.088  14.823 -0.0420  0.1712  0.3735
25938W        W41747   9.689  13.198   2.769 -0.2196  0.2493  0.2315
25939W        W41748   7.541  16.703   4.860  0.1172 -0.0060 -0.1179
25940W        W41749  13.082  10.643   5.343 -0.0970  0.3596  0.1441
25941W        W41750   0.411  10.609  13.098 -0.0269 -0.0324 -0.0752
25942W        W41751  10.435  12.257   1.960  0.3342 -0.2389  0.1217
25943W        W41752   3.136   6.251   5.081  0.1645  0.2534  0.0130
25944W        W41753  14.398  13.561  14.489  0.0328 -0.3635  0.1011
25945W        W41754   5.230   7.226   3.799  0.0015 -0.1408  0.0633
25946W        W41755   9.021   2.183  14.197 -0.1250 -0.3469 -0.2799
25947W        W41756   1.230  12.367  12.195 -0.0712  0.0563 -0.0648
25948W        W41757  16.918  17.553   0.997  0.0438  0.0410  0.0501
25949W        W41758   9.553   6.199   0.381  0.0069  0.0996 -0.0452
25950W        W41759  17.446   2.500   2.607  0.1618 -0.3497 -0.3363
25951W        W41760   9.375   5.263   3.506 -0.1862  0.3041 -0.1980
25952W        W41761  10.875  11.778  15.171  0.1446  0.3565 -0.0887
25953W        W41762  11.764   3.768   4.295  0.1513 -0.1623  0.1982
25954W        W41763   7.604   9.363  10.459 -0.1205  0.1350  0.1352
25955W        W41764  18.845  13.145  13.101 -0.0574  0.2591 -0.0565
25956W        W41765   0.828  15.108  12.699  0.0435 -0.0278 -0.0264
25957W        W41766  10.652   3.370   0.537 -0.1023  0.1264  0.0455
25958W        W41767  16.011  11.008   0.830 -0.0310 -0.0112  0.2138
25959W        W41768   8.675  17.378   4.773  0.1183 -0.0623 -0.1835
25960W        W41769   3.952  18.925  11.458 -0.1392  0.0150 -0.0284
25961W        W41770   3.578   6.041  10.644 -0.0720  0.2570 -0.1528
25962W        W41771   4.704  15.357  15.092 -0.1919  0.3424  0.0562
25963W        W41772   3.149   2.262   4.638  0.0863 -0.2014  0.1537
25964W        W41773   3.732   8.410   1.455  0.1080  0.2068 -0.1986
25965W        W41774   7.348  13.324   1.737  0.0084  0.0177  0.3137
25966W        W41775   9.406   8.823  13.778 -0.5820  0.1870  0.1555
25967W        W41776  16.442   5.288  10.994 -0.0929 -0.0131 -0.0467
25968W        W41777  15.627  18.612   3.898  0.1170 -0.1446  0.1068
25969W        W41778  13.136   2.626   0.838 -0.1364 -0.1148 -0.1457
25970W        W41779   9.477   2.695  12.603 -0.0825 -0.3079  0.3879
25971W        W41780   4.123   2.324  12.203  0.0078 -0.1320 -0.0178
25972W        W41781   0.897  12.531   3.007 -0.0066 -0.2481  0.2203
25973W        W41782  13.803  16.885  11.809 -0.3065 -0.4938  0.2994
25974W        W41783  17.287  16.204  11.319 -0.0802 -0.0378 -0.1320
25975W        W41784   8.112   7.424   1.554  0.0926  0.2175  0.3694
25976W        W41785  17.447  16.168   3.261 -0.0405  0.1119 -0.0880
25977W        W41786  14.308   0.636  15.111 -0.2847  0.0568  0.5267
25978W        W41787  18.360   7.657   4.696  0.2216  0.0959 -0.2139
25979W        W41788  16.915  12.674   2.269  0.3605  0.0589 -0.3455
25980W        W41789  10.552  11.824  13.986 -0.1821 -0.1577 -0.0763
25981W        W41790  17.284  13.357  13.561 -0.0144  0.0333 -0.1700
25982W        W41791  15.223   5.302   3.391  0.0609  0.2296  0.2646
25983W        W41792  10.796   2.186   2.536  0.0727 -0.0340  0.0557
25984W        W41793  10.483  11.415   1.724 -0.0602  0.1781 -0.0271
25985W        W41794  18.583  17.111   4.948  0.1310 -0.0719 -0.2512
25986W        W41795  18.803  11.893   2.586 -0.1638  0.1597 -0.1033
25987W        W41796  17.938   9.292   5.842 -0.2233 -0.0287  0.0296
25988W        W41797  17.694  15.321   1.895 -0.2377 -0.1963  0.1897
25989W        W41798  14.106  16.966   0.978  0.1139  0.0387 -0.1264
25990W        W41799   7.503  11.323  11.339  0.2230  0.1772 -0.1001
25991W        W41800  17.923   7.432  11.627 -0.1920 -0.0576 -0.0390
25992W        W41801  17.965  10.913   2.417  0.1225 -0.0082 -0.0075
25993W        W41802   4.293   5.730  13.971  0.2462 -0.0670 -0.0329
25994W        W41803  16.258   8.163   2.688  0.2305  0.0634  0.0257
25995W        W41804   5.785   5.470  11.434 -0.0795  0.2427  0.0306
25996W        W41805   3.603  14.439  14.239 -0.0882  0.3726 -0.0091
25997W        W41806   4.679   0.068  14.937 -0.2074  0.0938 -0.1071
25998W        W41807  13.691   8.015  10.678 -0.0959 -0.0065 -0.0750
25999W        W41808  12.829  10.022  12.604 -0.0450 -0.1158 -0.2587
26000W        W41809  15.680   3.144   1.988  0.0037  0.0338  0.3389
26001W        W41810   3.352   0.010  12.639  0.2257 -0.1048 -0.1123
26002W        W41811   3.493   5.765   9.314 -0.0609  0.0846  0.0391
26003W        W41812  10.280  16.128   3.760  0.3482 -0.0376 -0.2255
26004W        W41813  13.462   3.508   2.842 -0.1163 -0.0051  0.2392
26005W        W41814  18.626  12.366   2.596  0.2083  0.0123  0.0458
26006W        W41815  18.653  13.114  11.732  0.0162 -0.1965  0.1418
26007W        W41816   3.619   7.513   1.873  0.0849  0.2534  0.0838
26008W        W41817  17.687   8.782   1.978 -0.0422 -0.3127  0.0369
26009W        W41818   3.268   1.995  15.119  0.3162  0.0979  0.2417
26010W        W41819   7.764  12.271   0.092  0.0683  0.0651  0.0532
26011W        W41820  11.764   1.683   1.005  0.3427  0.0287 -0.3818
26012W        W41821  11.356  13.280   4.248  0.2690  0.0971 -0.1342
26013W        W41822  15.928   5.741  10.423 -0.1152 -0.1599  0.1198
26014W        W41823   3.581  11.686   3.414 -0.1037  0.0905  0.1404
26015W        W41824  13.462  12.787   3.536 -0.0749 -0.0339 -0.1903
26016W        W41825   3.251   3.812  13.055 -0.1202 -0.2317  0.1770
26017W        W41826  17.597   5.281  12.426 -0.1155  0.0297 -0.1558
26018W        W41827   1.603  18.394   5.697  0.1837  0.0534 -0.1191
26019W        W41828  14.372  10.163   0.263 -0.1699 -0.0582  0.3442
26020W        W41829  13.021  15.269  10.964  0.3414 -0.0877  0.0080
26021W        W41830   3.339   6.512  12.687  0.0734  0.0792  0.0646
26022W        W41831  11.344  14.734  13.239 -0.4211 -0.1567  0.1362
26023W        W41832  16.504   4.458   1.620 -0.1513  0.3616 -0.1864
26024W        W41833  13.406  15.775  14.119  0.3201 -0.2045  0.0030
26025W        W41834   7.926   0.157  12.888 -0.3287  0.3638  0.0773
26026W        W41835   3.030  10.685   4.587 -0.0813  0.0033 -0.1886
26027W        W41836   5.921   9.071   0.443  0.2652  0.1872 -0.1046
26028W        W41837   3.885  17.215  10.768  0.0872 -0.2823 -0.1199
26029W        W41838   2.883   1.589  14.310 -0.0460  0.0420  0.1997
26030W        W41839  15.044  16.348  14.890  0.0319  0.3377 -0.2409
26031W        W41840   0.883  10.382   2.410  0.0866  0.0461  0.1218
26032W        W41841  17.621  13.722   2.161  0.1250 -0.3508  0.0253
26033W        W41842  15.119   7.750   0.607 -0.2047  0.0362 -0.1198
26034W        W41843   1.646  18.808  12.796 -0.1026 -0.1197 -0.3351
26035W        W41844  12.800   5.557   4.089  0.2202 -0.4918  0.1070
26036W        W41845  16.822  14.937   0.694  0.1373 -0.2295 -0.2551
26037W        W41846   9.815   8.479   1.608  0.2225  0.0551 -0.1840
26038W        W41847  14.853   6.717   4.882  0.0444 -0.2029  0.2344
26039W        W41848  10.310   0.881   9.707  0.1789  0.2701  0.0456
26040W        W41849   2.264   5.511   0.399 -0.0304 -0.1010 -0.0996
26041W        W41850   9.621   9.065   0.288  0.0308 -0.1552  0.0628
26042W        W41851   0.948   5.754   4.735 -0.0766  0.2377  0.1935
26043W        W41852  12.974  13.363  12.205 -0.1177  0.1063 -0.1032
26044W        W41853   3.028   9.219   4.915  0.1457 -0.2971 -0.0936
26045W        W41854  15.173   3.696  12.266  0.1454 -0.0575  0.3676
26046W        W41855   6.913   6.638  12.229  0.0452  0.2718 -0.0306
26047W        W41856  15.567  15.131  13.049  0.1510  0.0759  0.1134
26048W        W41857  12.676   4.622   3.399 -0.1781 -0.2147  0.1304
26049W        W41858   0.111  14.061   3.335  0.1127 -0.0769  0.2262
26050W        W41859  10.948   7.035   2.911 -0.1171  0.1297 -0.0017
26051W        W41860  15.079   1.443   4.281 -0.0214  0.1714 -0.2274
26052W        W41861  18.075   4.849   0.732  0.1201  0.3233  0.0156
26053W        W41862  17.257  13.107  12.159  0.1790  0.0439  0.0076
26054W        W41863  15.696   0.252   5.671  0.0291  0.0599 -0.1141
26055W        W41864   1.760  12.047  12.968 -0.0946  0.0328  0.1286
26056W        W41865  16.342  10.598  14.146  0.0829 -0.1373 -0.0074
26057W        W41866   2.472   2.524   2.600 -0.2438 -0.2190  0.2103
26058W        W41867   6.308  14.059   4.723 -0.1549  0.0034 -0.2471
26059W        W41868   8.522   9.800  12.672 -0.0452 -0.0675 -0.1892
26060W        W41869  11.330  18.027  10.289  0.1553 -0.0695 -0.1816
26061W        W41870   7.400   2.961  10.607  0.0673  0.0591 -0.1329
26062W        W41871   5.246   5.134   1.323 -0.3931  0.2510  0.0362
26063W        W41872  10.919  18.994  13.434 -0.3191 -0.2897  0.0022
26064W        W41873  16.522   4.898   1.953  0.1538 -0.2714 -0.1041
26065W        W41874  17.744   0.239   4.022  0.1886  0.0205  0.0467
26066W        W41875   5.820  18.428  14.247  0.0814 -0.0859 -0.1913
26067W        W41876  11.439   6.314  11.113  0.1240 -0.0660 -0.1699
26068W        W41877  18.988  16.406  13.451  0.2297 -0.2661 -0.3111
26069W        W41878   7.300  15.797  10.458 -0.3058  0.2657  0.0412
26070W        W41879   6.826   8.126  11.398  0.1582  0.3245 -0.1359
26071W        W41880   1.513  17.257   2.589  0.0804  0.2180  0.0918
26072W        W41881  17.881   2.018  13.527 -0.2960 -0.2692  0.1933
26073W        W41882  14.094  10.825  14.769  0.1890  0.0554 -0.2006
26074W        W41883  16.264   5.801   1.917  0.2148  0.2169 -0.3826
26075W        W41884  19.018   3.715  10.837 -0.1206  0.0742 -0.2819
26076W        W41885   7.115  17.616  12.542 -0.1038 -0.3507 -0.0960
26077W        W41886  16.806  12.254   3.805 -0.2001 -0.0092 -0.0430
26078W        W41887  16.915   9.980   3.904 -0.3151 -0.2466  0.3987
26079W        W41888  12.576  18.071   1.559 -0.2311  0.2067 -0.0324
26080W        W41889   4.112   9.542   4.465  0.0802  0.2641  0.2665
26081W        W41890   8.524   8.422  14.031 -0.1773 -0.3245 -0.0937
26082W        W41891   6.098   0.276   5.133 -0.1924  0.1250 -0.0375
26083W        W41892   7.165  18.766  13.480 -0.2360  0.2047 -0.1080
26084W        W41893  13.386   4.847  14.047  0.0320 -0.0874  0.3717
26085W        W41894   5.783  18.142  11.710 -0.4482  0.0558  0.1092
26086W        W41895  15.228   2.428  11.737  0.0598  0.2859  0.0898
26087W        W41896  16.562  18.603   0.201 -0.1734  0.2094  0.0392
26088W        W41897   5.313  13.547   1.433  0.0358 -0.0539  0.0361
26089W        W41898  15.211   0.548  11.148 -0.3044 -0.0813  0.0031
26090W        W41899   7.273  18.055  10.268 -0.1450 -0.1221 -0.1719
26091W        W41900   6.299  12.202  11.284  0.3093 -0.0062  0.0553
26092W        W41901   6.571   3.312   0.304 -0.2172  0.0075 -0.2099
26093W        W41902  10.942  18.074   2.219 -0.1934  0.0408  0.2617
26094W        W41903  18.651   6.431  12.803  0.2059  0.2417  0.0534
26095W        W41904  11.412  18.256   0.987  0.0176 -0.0679 -0.0365
26096W        W41905  10.831  12.506   1.850  0.2631  0.2510 -0.2826
26097W        W41906   3.021   7.727   2.443 -0.1730  0.1967  0.0670
26098W        W41907   7.451   9.653  13.376  0.1683 -0.1027 -0.1140
26099W        W41908   5.412  16.369   4.175  0.1237 -0.6118 -0.0005
26100W        W41909  16.646  14.348  13.386  0.0815 -0.0549 -0.3185
26101W        W41910  16.550   7.525  11.210 -0.1599 -0.2377 -0.0671
26102W        W41911  15.062  12.810   4.427 -0.0254  0.0766  0.2981
26103W        W41912   9.791  13.077  12.710  0.0600  0.2163 -0.4421
26104W        W41913   6.340  18.148   1.079  0.0747 -0.4715 -0.0223
26105W        W41914  13.274   5.473  12.071 -0.3078  0.0246 -0.3709
26106W        W41915  13.058  12.734   2.241  0.2520  0.1874  0.2205
26107W        W41916  16.888  15.946   5.398  0.0023 -0.0633  0.0325
26108W        W41917   0.937   1.443   0.207 -0.0490 -0.3156 -0.0116
26109W        W41918   9.605   0.607   4.225  0.0445  0.2013 -0.1815
26110W        W41919  17.292  18.212   0.173 -0.1497  0.0435  0.0688
26111W        W41920  14.254  15.085   3.522 -0.1370  0.1870  0.2678
26112W        W41921  13.834   5.590  13.459 -0.1255  0.3429  0.2480
26113W        W41922  17.146  18.003   3.422  0.2255  0.1060 -0.1082
26114W        W41923  15.703   7.175  15.235 -0.2528 -0.0695 -0.0790
26115W        W41924   3.759  17.824   1.713  0.0202  0.0946  0.1509
26116W        W41925   4.281  14.309   5.248  0.3213  0.0099  0.0672
26117W        W41926  17.648  14.944   1.070 -0.0708 -0.1778 -0.2682
26118W        W41927  12.869  16.929   2.870  0.1419  0.1739  0.0458
26119W        W41928  10.768  18.653  11.843 -0.2042 -0.1158 -0.1541
26120W        W41929   6.283  14.267   3.398  0.2127 -0.0316  0.1131
26121W        W41930   2.942   4.173   3.592  0.0212  0.1639  0.0418
26122W        W41931   4.313   1.186  11.541 -0.0441 -0.0516  0.1900
26123W        W41932   3.237  17.351   3.494 -0.0795 -0.0050 -0.1779
26124W        W41933  18.686   0.222  14.262 -0.4105 -0.0845  0.0075
26125W        W41934   6.761   6.532   4.624 -0.1415 -0.0860 -0.0579
26126W        W41935  17.936  15.600  11.628  0.2867  0.2125  0.1828
26127W        W41936  16.083   9.019   1.243 -0.0698 -0.2904 -0.1732
26128W        W41937  16.401  11.755  11.164  0.1136 -0.0661 -0.0429
26129W        W41938  14.259  11.096   1.195 -0.1432 -0.0808  0.0420
26130W        W41939  12.343   5.058   3.391  0.3923  0.2659  0.0940
26131W        W41940   9.594  16.810  13.752 -0.0206  0.2313 -0.0802
26132W        W41941   3.443  16.589  14.692  0.0188 -0.1418 -0.2854
26133W        W41942   2.650   4.737   0.856  0.0095 -0.1097  0.0062
26134W        W41943   1.720   5.228   4.611  0.0437 -0.0100 -0.0406
26135W        W41944   9.225   9.096   0.606  0.0368 -0.1875  0.0884
26136W        W41945   3.085  13.485   5.383  0.2489  0.0609 -0.4523
26137W        W41946   1.329   0.547  11.347  0.2343 -0.2314 -0.0891
26138W        W41947  10.940  10.449   0.668 -0.2366  0.0296  0.0759
26139W        W41948  14.997  16.063   1.272 -0.1893 -0.4984  0.1163
26140W        W41949  14.661   3.017   4.841 -0.0715 -0.1369 -0.2747
26141W        W41950   4.981   9.359  13.520 -0.2163 -0.0090  0.2375
26142W        W41951   8.883   7.636  14.323  0.1482 -0.1023  0.2874
26143W        W41952   3.177   0.592  13.355 -0.0946  0.0696 -0.5104
26144W        W41953   2.363  18.724  12.776 -0.1743 -0.0043  0.2525
26145W        W41954  14.297   2.148   3.346  0.1155 -0.0118 -0.0988
26146W        W41955   5.965  15.999  13.829  0.0832  0.0018  0.1481
26147W        W41956  18.082  13.464  14.906  0.3851  0.0306  0.0640
26148W        W41957   9.946  12.164   3.885  0.0926  0.2751  0.1182
26149W        W41958  18.499  14.742  15.157 -0.0567 -0.1234 -0.1725
26150W        W41959   9.517  12.239   0.515  0.0735 -0.1101 -0.1851
26151W        W41960   3.804  10.574   1.187 -0.1404  0.2369 -0.2591
26152W        W41961   7.720  13.633   3.624  0.2051 -0.0438  0.2255
26153W        W41962   1.089   0.334   1.661  0.3342 -0.1466  0.2359
26154W        W41963  13.181   2.953  14.068  0.2725 -0.0627 -0.1931
26155W        W41964  18.655   3.475  14.118 -0.0558 -0.2821  0.0671
26156W        W41965   6.268  10.307   0.454 -0.0469  0.4494  0.2131
26157W        W41966   7.695  15.634  12.378 -0.2499 -0.1218  0.2954
26158W        W41967  12.044  15.887  11.407 -0.0217  0.0354  0.0827
26159W        W41968   5.172  14.177   0.438 -0.3386 -0.1762  0.0830
26160W        W41969   9.400   6.662  12.477  0.2588 -0.3280 -0.3016
26161W        W41970   1.547   1.402  10.892  0.1098 -0.1454 -0.0973
26162W        W41971   3.594  12.263  14.829  0.1550 -0.0790  0.1794
26163W        W41972   6.131  16.198  10.808  0.1898  0.1787  0.2149
26164W        W41973   9.732  13.348  10.255 -0.0871 -0.1185 -0.1804
26165W        W41974  17.608  17.902   4.445 -0.0651  0.2822  0.1169
26166W        W41975   0.482  13.953  13.490 -0.4652 -0.0057  0.2700
26167W        W41976  11.977  11.880   5.014  0.1164 -0.1142  0.1263
26168W        W41977  18.389   7.784  12.404  0.0420 -0.4063  0.3160
26169W        W41978   1.666   3.342   1.731  0.3525 -0.1785  0.3735
26170W        W41979   0.981   4.905  10.262  0.0600 -0.1489  0.0373
26171W        W41980   9.454  18.638  10.171  0.2355 -0.0144 -0.3563
26172W        W41981  10.066  16.572   2.237 -0.2602  0.1031  0.1180
26173W        W41982   4.626   9.450  14.797 -0.0497 -0.1276  0.0868
26174W        W41983   3.729   1.852   2.166  0.0259 -0.1719 -0.0843
26175W        W41984   4.135   1.565  11.137 -0.1007  0.0824  0.0625
26176W        W41985  17.653  11.358  11.878 -0.0129 -0.0575 -0.1580
26177W        W41986   7.748   2.357  10.302  0.2153 -0.2536 -0.2218
26178W        W41987   1.265   2.238  12.417 -0.1113 -0.3653  0.0288
26179W        W41988  12.409   5.481   0.239 -0.0272  0.0591 -0.0785
26180W        W41989   6.324  17.176   4.041 -0.0813 -0.0748 -0.2016
26181W        W41990  17.648  13.835  11.326 -0.1399  0.1219  0.1625
26182W        W41991  11.373   0.474  12.165 -0.2190  0.0760 -0.0947
26183W        W41992  12.440   3.380  11.930  0.1234 -0.0565  0.0149
26184W        W41993   7.815   2.012   1.902  0.0273 -0.0189  0.2858
26185W        W41994   0.050  14.786  13.257 -0.0100  0.1798 -0.2152
26186W        W41995   1.964   7.653   1.683  0.0130  0.0588  0.0613
26187W        W41996  16.092  12.185   3.138  0.1046 -0.2311 -0.0451
26188W        W41997  10.280   6.499   2.599 -0.0437  0.0037  0.0359
26189W        W41998   9.045   7.735   5.074 -0.0411 -0.0968  0.1381
26190W        W41999   9.709   2.423  11.876  0.0417  0.1000 -0.1693
26191W        W42000  16.309  11.327   3.749  0.2162 -0.0011 -0.1827
26192W        W42001   6.598   9.040  10.871  0.2392 -0.1516  0.0106
26193W        W42002   8.362   2.619  12.498  0.0307  0.0660  0.2393
26194W        W42003  18.729  17.402   2.603  0.1066  0.0144  0.1040
26195W        W42004   3.592   4.653   2.204 -0.1133  0.2562  0.0788
26196W        W42005   5.140  12.019   4.367  0.0390 -0.1785 -0.3258
26197W        W42006   9.074   3.479  12.526  0.1341 -0.0138  0.2957
26198W        W42007   2.257   0.437  11.643 -0.1609 -0.0917 -0.0482
26199W        W42008  14.392  10.503  13.860 -0.1904 -0.0339  0.0795
26200W        W42009  17.571  16.935  11.377 -0.1821 -0.1234  0.0560
26201W        W42010   7.571   6.755  14.834 -0.1453  0.0319  0.3444
26202W        W42011   5.424   1.368  12.818 -0.0639  0.0309  0.1413
26203W        W42012  14.936   0.474  13.377  0.0216  0.1045 -0.2222
26204W        W42013  11.678  13.222   3.845  0.1904  0.0340  0.1008
26205W        W42014   2.238   6.535   4.883  0.1462 -0.1231  0.0999
26206W        W42015  18.735   8.520   2.917 -0.0267 -0.1289 -0.1298
26207W        W42016   2.999   9.113   1.489 -0.1912  0.0186 -0.0557
26208W        W42017   5.059  13.940   1.474  0.1896  0.1627  0.3273
26209W        W42018  11.735  11.574   1.648 -0.0710  0.0889  0.0733
26210W        W42019   5.661  10.868   4.325 -0.2383  0.2014  0.2357
26211W        W42020  10.510   8.919  14.911  0.0150  0.0265 -0.1551
26212W        W42021  18.122   8.854   1.736  0.0343 -0.1998 -0.1073
26213W        W42022   1.998  10.478  11.135 -0.0098  0.2459  0.1216
26214W        W42023  12.588   6.982  11.752  0.1544  0.4285  0.1488
26215W        W42024  12.916   3.723  12.711 -0.2773 -0.3984  0.1818
26216W        W42025  18.927  15.906   0.484  0.1012 -0.0309 -0.0884
26217W        W42026  14.009  15.744   0.614 -0.2012 -0.0609  0.4488
26218W        W42027  10.478   8.471  11.866 -0.2857  0.1965  0.2763
26219W        W42028   8.725   1.069  10.593  0.0079 -0.2716 -0.2438
26220W        W42029  10.937   9.985   0.883 -0.0011  0.1366  0.1164
26221W        W42030  18.121   9.710   3.553 -0.0124  0.0582 -0.3098
26222W        W42031  12.260   5.260   2.902  0.1430  0.1062  0.1979
26223W        W42032   6.752   1.932   3.854 -0.0494  0.3777  0.1361
26224W        W42033   1.641  13.467   1.614 -0.1559  0.2178 -0.1120
26225W        W42034   7.169   8.807   1.508  0.0813  0.2887 -0.1510
26226W        W42035  14.690   5.550  12.087  0.1028 -0.0869  0.1281
26227W        W42036   5.619  18.637  14.778 -0.0775 -0.2009  0.2028
26228W        W42037  13.022   7.511  13.448 -0.1446  0.2900  0.1903
26229W        W42038  11.851  14.838   2.391 -0.4156 -0.1073  0.1398
26230W        W42039   2.147   3.155   1.791  0.0710  0.0640  0.2873
26231W        W42040  15.819   6.468  15.003 -0.1273  0.1851 -0.0750
26232W        W42041  17.431  15.548  14.583 -0.0973 -0.0434 -0.2116
26233W        W42042   9.243  15.522   2.208  0.0177  0.0282  0.2328
26234W        W42043   0.447  17.816   3.799 -0.1997 -0.0354 -0.0712
26235W        W42044  10.870   6.155  12.826  0.2234  0.2085  0.2767
26236W        W42045  17.392   8.931   4.579  0.3461 -0.4009  0.1153
26237W        W42046   6.528  16.493   3.528 -0.1905  0.0470  0.0644
26238W        W42047   1.782  16.072   4.786  0.1442  0.1016  0.0697
26239W        W42048  17.305   4.521  14.318 -0.3913 -0.2411  0.1561
26240W        W42049  14.341   6.279   0.476  0.3886  0.1477  0.0209
26241W        W42050  13.944   6.200  10.642 -0.2213  0.2517  0.1780
26242W        W42051   8.732   1.369   2.679 -0.0060  0.0099  0.1412
26243W        W42052  14.977  10.490   3.506 -0.1051  0.5485 -0.2793
26244W        W42053  16.774   9.028  10.639  0.1236 -0.1466  0.0461
26245W        W42054   5.289   1.156  11.867 -0.0491 -0.1755  0.2084
26246W        W42055   8.886   5.045   3.718 -0.2822  0.0324  0.1424
26247W        W42056   6.819  18.113  14.475 -0.1010 -0.3080  0.0325
26248W        W42057   1.554   6.455  13.816  0.0356  0.1934 -0.0272
26249W        W42058   3.634  18.082  12.973 -0.1538  0.1184 -0.3084
26250W        W42059  16.874   7.787   3.916  0.0600 -0.0522 -0.2616
26251W        W42060  12.405   7.559  11.172  0.0230 -0.0009  0.0184
26252W        W42061   5.919  15.549  11.893 -0.2949  0.0017  0.1613
26253W        W42062  17.364  18.000   0.829 -0.1449 -0.0563  0.2266
26254W        W42063  14.354  13.210  13.444 -0.2049 -0.0964 -0.1049
26255W        W42064   6.742   5.370  11.509  0.0267  0.1622  0.3589
26256W        W42065  17.482   5.453  10.967 -0.0416 -0.2015  0.2712
26257W        W42066  14.045  13.398   1.243  0.2170 -0.1567  0.0303
26258W        W42067  13.560  14.534   0.833  0.0755  0.0366 -0.1240
26259W        W42068   6.833   8.464  12.956 -0.2565 -0.3336  0.0526
26260W        W42069  16.946   3.442   4.313  0.0199  0.2374  0.0019
26261W        W42070   7.313  13.507   4.435 -0.4341  0.3214  0.3530
26262W        W42071   1.634   8.751  12.902 -0.0705  0.3166  0.1253
26263W        W42072  10.986   9.622   2.363  0.1107  0.0045  0.1426
26264W        W42073  16.275  17.469   4.145  0.2606  0.1369 -0.0085
26265W        W42074   9.538  11.318  13.890 -0.1916  0.3110 -0.2952
26266W        W42075  14.616   3.490   0.303  0.1051  0.0399  0.1237
26267W        W42076   1.557   1.506   0.865  0.3073  0.0576  0.1128
26268W        W42077   4.967   9.159   1.693 -0.1693  0.0718 -0.1439
26269W        W42078   9.502  13.407  12.362 -0.2226  0.1604  0.3204
26270W        W42079   8.971  11.101   2.814 -0.0556 -0.0392 -0.3982
26271W        W42080  12.751   9.247  13.277 -0.1937  0.0604  0.0725
26272W        W42081   6.087   2.958  14.245  0.0721 -0.0742  0.4367
26273W        W42082  11.717   9.862   5.756 -0.0541 -0.1151 -0.0230
26274W        W42083   2.726   1.374   0.310 -0.0091 -0.3521 -0.1445
26275W        W42084  12.702   6.613  12.816 -0.2554 -0.2007 -0.2271
26276W        W42085   5.304   8.694  11.435  0.0158  0.0694  0.1521
26277W        W42086   7.167  10.157   1.808 -0.1387  0.0738 -0.0502
26278W        W42087   9.116   2.598  12.879  0.0345  0.2327  0.4016
26279W        W42088   4.759   5.085   3.210  0.3069  0.0734 -0.0375
26280W        W42089  16.397   6.433   9.850 -0.0502 -0.0747  0.0804
26281W        W42090   6.245  14.143  14.045  0.3919  0.2091  0.0396
26282W        W42091   7.439  18.985  15.105  0.1635  0.2912 -0.1207
26283W        W42092  12.941  17.773   1.786  0.0921  0.0378  0.0946
26284W        W42093   6.134   8.418   1.892  0.2709  0.0264 -0.1503
26285W        W42094   4.734   4.860   2.159 -0.2002  0.2617 -0.1262
26286W        W42095   5.046  15.672  13.139  0.2155  0.2377  0.2049
26287W        W42096  13.475  13.279  12.833 -0.0089 -0.0630 -0.0003
26288W        W42097   0.674  16.934   2.693 -0.3228  0.0141 -0.1347
26289W        W42098   5.223  10.686   4.026  0.0749  0.1838 -0.1519
26290W        W42099   0.772   4.019   0.880 -0.1167  0.2536  0.1265
26291W        W42100   4.170  10.451   9.356  0.0499 -0.0096 -0.1398
26292W        W42101   1.262   5.008  11.335  0.2777  0.0327 -0.0358
26293W        W42102  17.874   3.111  11.324 -0.1883 -0.2214  0.1205
26294W        W42103  16.795  14.495  14.412 -0.0876 -0.1792 -0.4177
26295W        W42104  12.082   1.876   2.561  0.0750  0.1388 -0.2649
26296W        W42105   2.358   4.892   3.370 -0.3845  0.2686  0.1600
26297W        W42106  12.294  17.729   1.328 -0.1989  0.0626 -0.1206
26298W        W42107   3.778  14.971   2.435 -0.0180 -0.0907 -0.0476
26299W        W42108  10.109  16.318  12.776 -0.1210  0.1653 -0.0886
26300W        W42109   0.603  13.746  13.031 -0.1889  0.0074 -0.1141
26301W        W42110  11.965  15.624   0.456  0.4340  0.0964  0.0466
26302W        W42111   6.696   7.831   0.639 -0.3540 -0.0145  0.1463
26303W        W42112   3.705  18.287  14.521 -0.2498  0.3745  0.0268
26304W        W42113  17.155  11.185   5.051  0.2946 -0.1398 -0.1624
26305W        W42114  16.107   3.298  12.084  0.1936 -0.2104 -0.1739
26306W        W42115   5.991   0.749  12.898  0.0582  0.1447  0.3803
26307W        W42116   3.954   2.685  14.380  0.1073  0.0454 -0.2524
26308W        W42117  12.481  18.976  11.584  0.2590  0.2606  0.0775
26309W        W42118   1.662  15.224   0.765  0.0264 -0.0436 -0.1789
26310W        W42119   4.593   9.494   3.268  0.0261 -0.0769  0.3116
26311W        W42120  16.379   9.150   5.723  0.0896  0.1381  0.4183
26312W        W42121  11.715   7.556   2.995  0.2363  0.1191 -0.0100
26313W        W42122  15.696  10.506  14.794 -0.2236 -0.0269  0.0400
26314W        W42123   6.773  10.642   3.685  0.0825 -0.1712  0.2543
26315W        W42124   1.501   5.935  14.251 -0.1459  0.0173 -0.1231
26316W        W42125  15.984   2.352  14.481 -0.2618  0.0135  0.4255
26317W        W42126  14.289  14.428  10.890  0.2757  0.3693  0.2102
26318W        W42127  14.182  15.784  10.937 -0.0330 -0.1187 -0.1965
26319W        W42128  12.656  10.813   0.358 -0.0340  0.1462 -0.0361
26320W        W42129   2.558   9.924   1.475 -0.0539 -0.2195  0.3308
26321W        W42130   7.213  13.071  11.003  0.1046 -0.4859  0.1635
26322W        W42131  15.181   6.611  11.217 -0.2903  0.3539 -0.0618
26323W        W42132   8.779   4.175   2.985  0.1251 -0.2316  0.2108
26324W        W42133   6.970   3.204  10.362 -0.2342 -0.1642 -0.0386
26325W        W42134  13.637   7.261   3.942  0.0573 -0.2794  0.0892
26326W        W42135  12.839  13.046  13.601  0.1614 -0.0743 -0.0758
26327W        W42136   5.533   6.924  11.089 -0.0090  0.3721 -0.1249
26328W        W42137  10.999  18.955   0.503  0.0440  0.1820 -0.2080
26329W        W42138   7.957   8.685   3.860  0.2682 -0.0474  0.2709
26330W        W42139   0.254   0.485   4.329  0.1154  0.0620  0.0483
26331W        W42140  13.440  17.762  10.611  0.0977 -0.0562  0.3967
26332W        W42141  11.883   9.439  14.107 -0.2204 -0.0029 -0.2665
26333W        W42142   0.273   0.093  11.152 -0.0734  0.1542 -0.1898
26334W        W42143   2.646   1.791  12.863  0.2083 -0.2233 -0.2145
26335W        W42144   8.409   7.980   1.979 -0.2423  0.0299 -0.0468
26336W        W42145   4.937  15.570   3.225  0.1246 -0.1008  0.3038
26337W        W42146  17.642   6.833  15.010  0.0789 -0.1319 -0.0153
26338W        W42147  14.930   0.919   0.449  0.0718 -0.0450  0.2693
26339W        W42148   3.228   4.168   4.536  0.0313 -0.1998 -0.2621
26340W        W42149   9.308   9.042   4.341 -0.1287 -0.1869 -0.0006
26341W        W42150   2.886  18.646  13.941  0.0273 -0.1300 -0.0621
26342W        W42151  12.848  11.246  11.941  0.1853 -0.2191 -0.0464
26343W        W42152   7.713   2.422  14.706  0.0428 -0.1687  0.1135
26344W        W42153   7.346  14.001   4.808  0.2697  0.5123 -0.2010
26345W        W42154   8.566   8.453   2.004 -0.0472  0.3064 -0.1436
26346W        W42155  16.169   7.320  12.086 -0.1562  0.1313  0.2358
26347W        W42156  11.322  15.202   1.215  0.1452  0.1727 -0.1736
26348W        W42157  10.406  12.353  13.389 -0.1991 -0.3178 -0.1958
26349W        W42158   7.698   4.028  11.567  0.2109 -0.3435  0.0649
26350W        W42159  18.871  18.671  14.833  0.1766  0.0670 -0.1283
26351W        W42160   8.911  17.016  11.614 -0.2788 -0.2153  0.2180
26352W        W42161   4.677   9.991   3.166  0.3118 -0.1170 -0.1479
26353W        W42162   6.362   6.631   4.211  0.1090  0.2262  0.1882
26354W        W42163  16.057  11.205  14.247  0.0436  0.3644 -0.2795
26355W        W42164  10.204   9.924  13.535 -0.0279  0.1719 -0.0563
26356W        W42165  13.350   9.200   2.654 -0.0268 -0.1911  0.2625
26357W        W42166  15.809  17.484  13.419  0.0873  0.1564 -0.1926
26358W        W42167  18.563  10.079   2.775  0.0236  0.0902  0.0048
26359W        W42168   1.558   9.603   1.159  0.2270  0.2152  0.0876
26360W        W42169   5.555   9.050  13.082 -0.0466  0.0721  0.1442
26361W        W42170   8.946  15.505  13.677 -0.0356  0.1613 -0.0630
26362W        W42171  15.659   7.152  14.294 -0.0218 -0.1446  0.3464
26363W        W42172  12.035   6.838  10.626 -0.0488  0.1252 -0.0192
26364W        W42173  14.617  13.614  12.960 -0.1589  0.2257 -0.0110
26365W        W42174   9.350   8.186   1.523 -0.0585  0.0254  0.1050
26366W        W42175  12.641   2.698   5.545  0.1914 -0.2779  0.2330
26367W        W42176  10.883   7.792  14.929  0.3658 -0.1016 -0.0002
26368W        W42177   6.806   0.843  11.478 -0.2655  0.0321  0.1763
26369W        W42178   5.550  12.582  14.789  0.3378  0.0225 -0.1191
26370W        W42179   1.659  11.414   3.652  0.0292  0.2971  0.0344
26371W        W42180  13.510   1.602  11.402 -0.1149  0.0880  0.2014
26372W        W42181  13.240   9.506   2.176  0.0000 -0.1078 -0.0351
26373W        W42182   9.742  15.258   2.268 -0.2512  0.3373  0.1135
26374W        W42183   0.580   5.849   0.199  0.1021  0.1488 -0.0246
26375W        W42184   7.528   1.966  10.751 -0.0190  0.2515 -0.0850
26376W        W42185  17.982  11.115   5.873 -0.2439 -0.3947  0.2428
26377W        W42186   8.945  16.473  11.605  0.3799  0.2458 -0.0807
26378W        W42187   8.455   0.327   5.431  0.1299 -0.0986  0.2747
26379W        W42188   1.058   6.032   2.628  0.0320  0.2433  0.3763
26380W        W42189   2.665   9.657  13.155  0.3106  0.0833 -0.0492
26381W        W42190   6.022  12.897   3.657  0.2780  0.3701 -0.1956
26382W        W42191  12.371   7.079   3.411  0.1330  0.0611 -0.0296
26383W        W42192  17.745   0.735   4.264  0.2494 -0.3333 -0.0950
26384W        W42193   5.102  11.146   3.985 -0.4059 -0.1654 -0.1889
26385W        W42194   4.502   6.165   4.676 -0.0287 -0.0748  0.1390
26386W        W42195   3.987  13.002   2.743 -0.2075 -0.1240 -0.0179
26387W        W42196  15.084   5.903  12.165  0.0829 -0.1399 -0.0441
26388W        W42197  11.183   9.467  11.278  0.5371 -0.0412 -0.4237
26389W        W42198   6.376   1.417   2.173  0.0505 -0.2527 -0.3534
26390W        W42199   9.367   6.029  14.760 -0.0079  0.1319  0.0048
26391W        W42200  16.009   3.305   4.456  0.2216 -0.1165  0.0012
26392W        W42201   7.624   9.694   0.182 -0.2731 -0.2262  0.3785
26393W        W42202   6.398   9.437   1.947 -0.2606 -0.1103  0.0197
26394W        W42203  13.160  10.696  11.197  0.0410 -0.2749 -0.3058
26395W        W42204   9.014  10.289   1.748  0.4019 -0.0921  0.0939
26396W        W42205   8.019  15.574   4.891 -0.0889  0.0561  0.1532
26397W        W42206  12.067   7.203   4.132 -0.1937 -0.5424  0.1648
26398W        W42207  16.765  10.777  13.825 -0.0161 -0.1455  0.2123
26399W        W42208  10.840   1.236   2.352 -0.1657  0.0941 -0.3128
26400W        W42209   8.385  14.561  11.610  0.0463  0.0381  0.0660
26401W        W42210  15.083  10.572  10.826  0.2961 -0.1341  0.3014
26402W        W42211  11.210   2.575   5.102 -0.0572 -0.2760  0.0955
26403W        W42212   9.785   7.724  13.222  0.4619 -0.1029  0.0645
26404W        W42213  12.748  17.032  13.821 -0.0919 -0.1808  0.1780
26405W        W42214  15.492  15.310   1.291  0.2016  0.1760  0.1437
26406W        W42215  11.633  14.179   4.504 -0.0005 -0.2796  0.2614
26407W        W42216   4.639   3.961   4.196  0.3707  0.1132  0.0640
26408W        W42217   4.538   9.238  13.346 -0.0699 -0.1915 -0.0974
26409W        W42218  12.387  13.695   3.614 -0.0350  0.0065  0.4176
26410W        W42219   4.701   5.209  10.935 -0.0081 -0.1068 -0.1733
26411W        W42220  10.544  17.002   1.827  0.1859  0.2098  0.2476
26412W        W42221  16.858   5.008  11.100  0.3602 -0.1218  0.0593
26413W        W42222   1.523  18.529   1.448 -0.3969 -0.1002  0.0544
26414W        W42223  13.352  12.714   1.388  0.1761  0.0130  0.1431
26415W        W42224   6.785   8.401  10.443  0.0475 -0.0696 -0.1628
26416W        W42225   4.519   2.434  15.141  0.2056  0.1104 -0.1258
26417W        W42226  16.155  16.475  14.290  0.1564  0.0889 -0.2279
26418W        W42227   1.989   6.420  13.501  0.0092 -0.0743  0.2260
26419W        W42228  12.837   6.881   3.394 -0.0799 -0.4399 -0.0809
26420W        W42229  10.155  18.280  13.178 -0.1321 -0.0582  0.1110
26421W        W42230  12.936   6.201   5.148  0.4692 -0.1340 -0.0604
26422W        W42231  10.157   7.819   3.138  0.0268  0.2654 -0.1080
26423W        W42232   4.452   1.243   2.137 -0.1659 -0.3810  0.1548
26424W        W42233   0.516   1.335   1.866 -0.0030 -0.2540 -0.0208
26425W        W42234   8.660  14.767   3.181  0.3750 -0.1450  0.1605
26426W        W42235  13.640  16.846   9.985 -0.0565 -0.2091 -0.2955
26427W        W42236  12.335  17.562   2.844 -0.1536  0.0790  0.0790
26428W        W42237  11.984  10.446  14.191 -0.0071  0.1925  0.2864
26429W        W42238  13.386   5.584   1.902 -0.2377  0.2685 -0.4846
26430W        W42239   5.418   9.900   2.925 -0.2736  0.1806 -0.1824
26431W        W42240  15.861  17.581   2.533 -0.0096 -0.2197 -0.0844
26432W        W42241  13.413   9.639  14.207 -0.0965 -0.2395 -0.1722
26433W        W42242   4.679   0.406   0.145 -0.0179 -0.2239  0.0406
26434W        W42243  18.724   2.450   1.530  0.1155  0.3403  0.1354
26435W        W42244   1.095  14.524   4.076  0.0589  0.2308 -0.1255
26436W        W42245   0.919   1.554   3.881  0.2250 -0.1932 -0.2822
26437W        W42246  14.140   5.873   0.295 -0.2146 -0.4072 -0.3713
26438W        W42247   8.487   5.146  12.016 -0.2657 -0.0062 -0.0968
26439W        W42248   2.548  10.405   2.559  0.0677  0.0860  0.3919
26440W        W42249   2.662  12.328   3.103 -0.1962 -0.0638 -0.1920
26441W        W42250  11.967   2.059   4.745 -0.0358 -0.3690 -0.3752
26442W        W42251   3.983   9.031  13.410 -0.1173  0.1779 -0.1676
26443W        W42252   9.547  16.088   9.946  0.1072 -0.0046  0.1076
26444W        W42253   7.682  10.698  10.676  0.3101 -0.1564 -0.1849
26445W        W42254  16.862  14.720   5.387  0.1320 -0.1461 -0.0454
26446W        W42255   8.017  12.052   4.633  0.1493 -0.1929  0.3117
26447W        W42256   3.281   8.614   1.452  0.1628  0.1670 -0.0563
26448W        W42257  18.264  18.051  11.541  0.1576  0.3221 -0.2554
26449W        W42258   0.710   7.167   3.298  0.2598 -0.0609  0.0680
26450W        W42259  13.992  15.914  13.425 -0.0019 -0.1574  0.1847
26451W        W42260   5.177  11.307   0.598 -0.0049 -0.2281  0.1199
26452W        W42261   6.958  17.424   0.190 -0.0737  0.0326 -0.2368
26453W        W42262   4.193   5.816  14.448  0.1264  0.0157  0.1215
26454W        W42263  15.873   5.428  12.298  0.1161  0.1422 -0.1841
26455W        W42264   7.684  16.942  13.583 -0.2567  0.1444  0.2142
26456W        W42265   8.699  12.968  12.410 -0.1538 -0.0829 -0.2198
26457W        W42266   0.058   3.301   3.076  0.2287 -0.1179 -0.0368
26458W        W42267   7.663   4.015  14.842  0.1989  0.1732  0.0053
26459W        W42268  10.339   6.110   4.191  0.3469 -0.1419 -0.2088
26460W        W42269  13.183  19.021  11.244 -0.1904 -0.3562 -0.1410
26461W        W42270   8.103   6.167  12.943  0.1164  0.1507  0.0280
26462W        W42271   8.140  15.594   1.683 -0.2727 -0.1400 -0.0113
26463W        W42272  16.616   0.701   1.323  0.1285 -0.1910  0.1114
26464W        W42273   1.485   7.149   3.940 -0.0317 -0.1445 -0.2386
26465W        W42274  16.744   5.313  10.303  0.0600  0.1446  0.0278
26466W        W42275   2.169   7.515  14.311 -0.3759 -0.1283  0.0801
26467W        W42276   4.088   3.267  13.863 -0.0124 -0.0003  0.0702
26468W        W42277  10.385   4.461   2.119  0.0909 -0.0883  0.0135
26469W        W42278   6.709  14.378  14.028 -0.0433 -0.2114  0.1374
26470W        W42279   5.788   8.548   4.177 -0.0244 -0.0894  0.1401
26471W        W42280  13.398   1.943   2.870 -0.2148 -0.1742  0.0326
26472W        W42281   8.485  18.557   1.932  0.2331  0.4700 -0.0841
26473W        W42282  16.986   7.988   1.083 -0.2509  0.2665  0.0014
26474W        W42283  14.383  10.043   4.542 -0.3355 -0.0336 -0.4640
26475W        W42284   6.234   7.372  14.838 -0.0070 -0.1767 -0.0093
26476W        W42285  15.851  17.178   1.720 -0.1175 -0.1177  0.0929
26477W        W42286   2.985  17.025  10.411 -0.0187  0.1292  0.3782
26478W        W42287  15.713   9.276  12.088 -0.1033 -0.2971  0.0928
26479W        W42288  18.224   1.518   5.805  0.0698 -0.2900 -0.0337
26480W        W42289  12.261  11.501   4.423 -0.2867 -0.0306  0.1048
26481W        W42290  17.115  11.828  13.540 -0.0014 -0.3111 -0.1560
26482W        W42291  13.634   0.369   3.478 -0.2289  0.2085  0.3397
26483W        W42292   2.194   4.546   2.518  0.3322 -0.0033 -0.0405
26484W        W42293   4.791  12.863  15.161  0.0942 -0.0389 -0.2384
26485W        W42294   9.601   8.015  14.647  0.0846  0.1380 -0.1788
26486W        W42295  12.162   7.043  12.799 -0.1502 -0.1749  0.1306
26487W        W42296   3.770   7.972   1.760 -0.0541  0.2149  0.2173
26488W        W42297   0.405   7.090   9.578  0.2228 -0.2800 -0.1893
26489W        W42298   7.014  18.746   4.239 -0.0278 -0.2774  0.1987
26490W        W42299   2.029   9.046  12.667 -0.2199 -0.0980  0.2130
26491W        W42300  14.087  15.851   4.420  0.2493 -0.0683 -0.2063
26492W        W42301   1.111  18.128  15.276 -0.2277 -0.0411 -0.0621
26493W        W42302   7.718   9.232   0.441  0.1046  0.1346 -0.1602
26494W        W42303  15.492   9.406   1.969  0.0822 -0.0568  0.0744
26495W        W42304   1.390  16.721  14.553 -0.0166  0.1853 -0.1298
26496W        W42305  10.193   4.530  11.324  0.0939  0.1728  0.0451
26497W        W42306  11.550   5.374  14.040 -0.0355 -0.1937  0.2114
26498W        W42307   6.762   3.565   1.793  0.0471 -0.0622  0.0082
26499W        W42308   7.668   0.734   3.805  0.1680 -0.2352 -0.0534
26500W        W42309   8.074   3.040  15.050  0.0396  0.1699  0.0420
26501W        W42310   2.602  15.278  15.267 -0.0389  0.2792 -0.2192
26502W        W42311  14.718   0.445  10.269  0.2815 -0.2754  0.2040
26503W        W42312   7.708   4.832  14.398  0.0880  0.0817  0.3446
26504W        W42313   8.932   1.874   1.304 -0.3052  0.6301 -0.0585
26505W        W42314   6.028  14.069  10.394  0.0596  0.1378  0.3600
26506W        W42315   6.475   7.402  11.076  0.1313 -0.2885  0.4606
26507W        W42316  14.481   6.817   3.747  0.1887  0.1935  0.1868
26508W        W42317   2.886   9.077   2.534  0.0772 -0.2381  0.0942
26509W        W42318   5.848   4.512   3.867 -0.2618  0.0634 -0.0146
26510W        W42319  10.898  13.076  10.359 -0.0738  0.3628  0.0013
26511W        W42320  13.285  11.132  10.783  0.0384  0.0855  0.0021
26512W        W42321   0.701   7.371  13.716 -0.3262  0.1025  0.1638
26513W        W42322   8.217  17.075   2.659  0.1372  0.2123 -0.0516
26514W        W42323  18.022  15.779   3.902 -0.2938 -0.2149  0.0235
26515W        W42324  15.152  17.372  12.281 -0.1961 -0.0421 -0.0370
26516W        W42325   2.790   0.130   1.000 -0.0351  0.1569 -0.3098
26517W        W42326   7.535   6.007   2.903  0.0760 -0.1139  0.0761
26518W        W42327   2.316   6.250   0.373 -0.1922 -0.0926  0.1931
26519W        W42328  15.920   5.150   2.031 -0.1970 -0.0072 -0.0185
26520W        W42329  17.951   6.375  11.098  0.2869 -0.0555 -0.1551
26521W        W42330   4.692  17.705  13.781  0.2167 -0.1303  0.2050
26522W        W42331  14.265   5.797  14.676  0.1864 -0.0377 -0.0804
26523W        W42332  14.861   6.751  14.963 -0.1268 -0.0725 -0.0062
26524W        W42333  10.992  15.137  12.329 -0.1493  0.0728 -0.0115
26525W        W42334   6.188  16.160   2.332  0.0675  0.2196 -0.0851
26526W        W42335   1.242  12.336   5.198 -0.0818  0.3040 -0.1241
26527W        W42336  16.808  14.173   5.438  0.1272 -0.1457  0.1209
26528W        W42337   9.797  10.409  13.328 -0.0338 -0.0750 -0.2508
26529W        W42338  10.828   8.915  10.805 -0.0740  0.1744  0.2834
26530W        W42339  17.722  13.409   5.177 -0.0444 -0.0416 -0.0823
26531W        W42340   2.761   7.718   1.380  0.0630 -0.0950 -0.4443
26532W        W42341   5.317  12.435  14.366  0.2058 -0.2820 -0.0890
26533W        W42342   3.561  12.357  13.069  0.0983 -0.4241  0.4963
26534W        W42343   4.422  10.886  14.848 -0.0134 -0.0382  0.0357
26535W        W42344   6.895   7.631   0.230 -0.1241 -0.0109 -0.3025
26536W        W42345  11.210  13.512   2.103 -0.2269 -0.0374  0.1032
26537W        W42346   5.998  16.842   2.376 -0.1109  0.2280 -0.0476
26538W        W42347   7.162  11.476  14.545  0.1514 -0.2679 -0.0113
26539W        W42348   3.058  15.088   2.766  0.0967  0.0099  0.5129
26540W        W42349   5.800   2.504   3.210 -0.0682 -0.1152  0.0595
26541W        W42350   9.913   8.513  10.915  0.0483  0.0120 -0.0118
26542W        W42351   5.702   3.156   9.566 -0.2547 -0.0048  0.2452
26543W        W42352   7.351  17.168   4.811  0.0029 -0.1282 -0.0476
26544W        W42353   5.433   8.612   5.206  0.0211 -0.2137  0.3431
26545W        W42354   2.983  14.025   1.395  0.0221  0.0447 -0.1698
26546W        W42355  18.742   3.627   2.207  0.1412 -0.1528  0.1350
26547W        W42356  19.025   9.302   0.495 -0.3830 -0.0839 -0.1277
26548W        W42357   4.304   0.108  14.587 -0.2399  0.4995 -0.2450
26549W        W42358  14.791  13.570   3.004 -0.0817  0.0191  0.1995
26550W        W42359   2.858   5.907   1.900 -0.1157 -0.3090 -0.1980
26551W        W42360   8.669  18.536  12.682  0.1122  0.3200  0.0935
26552W        W42361   3.163  14.510  15.248 -0.0763  0.0696 -0.1480
26553W        W42362  16.477   1.084   0.101  0.2487  0.3709  0.0853
26554W        W42363  12.144  11.301  13.231 -0.0796  0.2449 -0.2023
26555W        W42364  15.812   5.090   4.568  0.2727  0.3302  0.1226
26556W        W42365  18.679   9.699  11.912 -0.3558  0.1308 -0.1551
26557W        W42366  14.509   9.485   6.143 -0.2055  0.0635 -0.0951
26558W        W42367   8.882   7.657  10.134 -0.1452 -0.2629  0.2173
26559W        W42368  14.108   8.031   2.958 -0.1551 -0.1407 -0.0172
26560W        W42369  11.688   2.407  13.508 -0.0387 -0.2756 -0.0011
26561W        W42370  13.041   3.733   2.450 -0.1360  0.1771 -0.0056
26562W        W42371   8.502   5.808  12.827 -0.0612 -0.0423 -0.1618
26563W        W42372  11.643   6.747   5.111 -0.0568  0.0673 -0.0178
26564W        W42373   1.514   7.238   3.373  0.0728  0.2366 -0.2460
26565W        W42374   3.299   7.895   3.569 -0.1169 -0.3391 -0.1933
26566W        W42375   9.385   5.891   1.793  0.2309 -0.0104  0.2084
26567W        W42376  10.697   4.559  11.142  0.1386 -0.1587  0.0480
26568W        W42377   8.027   5.183   9.201 -0.0873 -0.0387 -0.0706
26569W        W42378   7.623   2.333  11.781  0.1883  0.0544  0.3127
26570W        W42379   5.803   1.452  14.523 -0.3239  0.0878 -0.0136
26571W        W42380  13.140   3.869   0.331 -0.2092  0.0585 -0.2351
26572W        W42381   6.973   0.001  11.513  0.0452 -0.1815  0.2167
26573W        W42382  10.197   7.705  14.298  0.0202  0.1270 -0.1415
26574W        W42383   6.533   7.634  15.188 -0.0525 -0.0212  0.2489
26575W        W42384   4.686   3.931   9.777  0.1213  0.2817  0.2297
26576W        W42385   1.051  13.989  10.565 -0.0464 -0.3643  0.3510
26577W        W42386  12.150   6.514  12.835  0.0322 -0.0035  0.0374
26578W        W42387   5.035   2.271   1.581  0.1185  0.0585 -0.0991
26579W        W42388  18.573  14.569  11.926 -0.0877  0.1761 -0.0063
26580W        W42389   3.180   6.236  10.911  0.0210  0.1200  0.2007
26581W        W42390  10.504   6.166  10.754  0.2261 -0.0476  0.1717
26582W        W42391  18.036   9.441   4.019  0.2865 -0.1858  0.1843
26583W        W42392   3.181  17.393  10.759  0.0896 -0.0853  0.1969
26584W        W42393  10.188   8.817   1.485  0.3276 -0.0445  0.0764
26585W        W42394   1.637   2.597   3.940 -0.2537  0.0517  0.0570
26586W        W42395   9.859  11.936  14.743  0.3009  0.2838 -0.2193
26587W        W42396  13.234   3.545  13.022 -0.0436 -0.0663 -0.0623
26588W        W42397   5.677  18.987   3.534  0.0817 -0.0623  0.1978
26589W        W42398  13.735  11.051  13.891 -0.0821  0.4407  0.0276
26590W        W42399   7.563  18.277   2.166 -0.0476  0.0844  0.2500
26591W        W42400  12.698  18.622   3.924  0.0849  0.1314  0.0156
26592W        W42401   3.062   7.527  13.697 -0.0297 -0.3140  0.0420
26593W        W42402  18.570  16.336   0.597 -0.0255 -0.1170  0.0230
26594W        W42403   3.439  14.847  10.337  0.3267  0.0019 -0.1988
26595W        W42404  10.375  15.713  14.535 -0.3286 -0.2038  0.1171
26596W        W42405  17.801  15.240  13.295  0.0750  0.0831 -0.0349
26597W        W42406   4.122   5.749  11.897 -0.1649 -0.0666  0.0316
26598W        W42407   6.759  13.633  14.207  0.0474  0.0859  0.1763
26599W        W42408   7.054  14.463   3.976  0.3304  0.2010  0.0257
26600W        W42409  16.275   9.239  14.652 -0.0035  0.1865  0.4359
26601W        W42410  10.409   6.004  15.029  0.2022  0.2398  0.1040
26602W        W42411  18.671   4.933   5.167  0.3047 -0.5809 -0.0829
26603W        W42412   9.832  17.606   2.982 -0.2327  0.1117 -0.0773
26604W        W42413  14.525   6.556  15.262 -0.2089 -0.0347  0.5350
26605W        W42414   4.816  10.888   4.975 -0.2818  0.1292  0.0974
26606W        W42415  16.968   2.780  14.408  0.5108  0.1024  0.1231
26607W        W42416   8.909   3.687   0.494 -0.0633 -0.0095 -0.2091
26608W        W42417  12.692   9.230   3.580 -0.0895  0.0919 -0.3587
26609W        W42418   4.945   7.368   2.081 -0.2190  0.2505 -0.0830
26610W        W42419   1.176   1.365  15.060  0.2976  0.3113 -0.1243
26611W        W42420   6.151   2.909   1.710  0.1029  0.0318  0.2449
26612W        W42421   2.504   3.009   2.113 -0.1376 -0.0831  0.0841
26613W        W42422  14.182   6.444  13.640 -0.0279 -0.0145 -0.1005
26614W        W42423  15.341   6.613   1.944 -0.0385  0.0011 -0.0578
26615W        W42424  11.615   5.717   5.928  0.2032  0.1035 -0.4611
26616W        W42425   0.548   2.274  14.369  0.3441  0.1831 -0.1361
26617W        W42426  18.149  13.038   5.747  0.0435 -0.2762  0.3987
26618W        W42427   7.279   5.601   4.222  0.0240  0.2160  0.2276
26619W        W42428   9.551   8.128  10.951  0.0018 -0.1072 -0.2427
26620W        W42429  13.956   0.196  14.252  0.3077  0.1279 -0.0719
26621W        W42430  15.127  11.958  14.262 -0.2079  0.1880 -0.2706
26622W        W42431  18.161   2.265   1.334 -0.1039  0.1650  0.4007
26623W        W42432   1.541   2.330   3.523 -0.1853 -0.1516 -0.0623
26624W        W42433  14.009  13.825  14.349  0.1016  0.1330  0.0830
26625W        W42434   2.306  16.578   2.853 -0.4206  0.1888  0.0238
26626W        W42435  11.714   6.324  12.654  0.2250 -0.3195 -0.1512
26627W        W42436   5.415   7.124  14.404 -0.0270  0.0995  0.0041
26628W        W42437  13.959   8.865  11.688 -0.0242 -0.0391 -0.1579
26629W        W42438   3.017   3.029  10.986  0.1464  0.3819  0.0786
26630W        W42439   4.223  17.210  13.777 -0.0639 -0.0255  0.2207
26631W        W42440  12.127   3.226  10.679 -0.1571  0.2718 -0.3461
26632W        W42441  17.227  17.808  13.586 -0.0252 -0.2286  0.2016
26633W        W42442  15.567   0.092  12.307  0.1650  0.2437 -0.1206
26634W        W42443   0.827   6.243  11.656 -0.0046 -0.1581  0.3829
26635W        W42444  14.994   9.089   1.192  0.1281 -0.1510 -0.0217
26636W        W42445   8.262  12.984   3.185 -0.1619  0.0941 -0.0291
26637W        W42446  18.221   8.955  11.829  0.3038  0.0367 -0.2479
26638W        W42447  14.150   7.833  10.809  0.0474 -0.2315 -0.1303
26639W        W42448   0.451   1.724   1.310  0.0531  0.1674 -0.2495
26640W        W42449  11.720  11.149   9.581  0.1997  0.0373  0.0940
26641W        W42450  12.985   8.667  14.884  0.1281 -0.0514  0.0740
26642W        W42451   7.097  16.080  15.054  0.4585 -0.0179 -0.1976
26643W        W42452  11.721  15.682  10.972  0.3287 -0.0508 -0.2832
26644W        W42453  11.936  14.564  11.449 -0.2568  0.1727  0.1671
26645W        W42454  11.961   6.721   2.734 -0.1819 -0.0676 -0.3637
26646W        W42455   9.804   5.260  14.866  0.1307 -0.0227 -0.1825
26647W        W42456  12.529   7.861  14.130  0.0393 -0.3270 -0.1816
26648W        W42457  12.635   2.433   1.931 -0.4388  0.0768 -0.2391
26649W        W42458  13.147  16.138   3.423 -0.0796 -0.1617  0.0813
26650W        W42459   4.519   6.303   3.722  0.0542 -0.0878  0.3329
26651W        W42460  10.821   4.316   2.439  0.0945  0.1995  0.0343
26652W        W42461  13.763   6.647  13.205  0.3688  0.3962  0.2311
26653W        W42462   2.219   0.600   4.858  0.1362  0.0278  0.0160
26654W        W42463  16.850   3.228   3.502  0.1495  0.2308 -0.1537
26655W        W42464   4.840   9.835   5.022  0.1093 -0.0360 -0.0762
26656W        W42465   2.303   3.970   4.187 -0.3169  0.1177 -0.0921
26657W        W42466   8.649  15.612   0.950  0.1744 -0.2496 -0.3214
26658W        W42467  15.060  11.387   2.727 -0.1187  0.1239  0.0749
26659W        W42468  15.022  16.149   2.641 -0.0506 -0.2472 -0.0170
26660W        W42469  13.465  11.861  11.293 -0.0322 -0.2277 -0.0903
26661W        W42470   0.507   7.780  12.785  0.0187  0.2878  0.2780
26662W        W42471  17.290   3.042   4.254  0.0790  0.1377 -0.2246
26663W        W42472   7.906   0.872   2.453 -0.3870  0.2187  0.1973
26664W        W42473  16.330   7.768   5.523 -0.1508  0.1216 -0.0269
26665W        W42474  11.340   8.261  13.913 -0.0421 -0.0820 -0.1458
26666W        W42475  14.641   6.025   1.590 -0.0257  0.3040 -0.2566
26667W        W42476  17.876   8.373   0.965 -0.0627 -0.0257 -0.2232
26668W        W42477   5.973   6.429  12.452  0.3259 -0.0097  0.0206
26669W        W42478  12.953  12.150   0.593 -0.0078  0.1990  0.4797
26670W        W42479   3.374   7.766   4.074 -0.2075 -0.1662  0.0441
26671W        W42480   8.683   5.626   1.207 -0.2139 -0.0148 -0.0480
26672W        W42481  10.478  12.478   0.864 -0.2298  0.1053  0.1890
26673W        W42482   8.777  11.856  12.156 -0.1305  0.0480 -0.0993
26674W        W42483   8.319   7.028  12.007 -0.1632 -0.2158  0.1017
26675W        W42484  18.119   3.426   2.974  0.2595  0.1063 -0.3410
26676W        W42485  17.584   2.521   0.218  0.2364  0.0867 -0.3226
26677W        W42486   8.135   4.911  12.995 -0.3396  0.0324  0.1507
26678W        W42487   2.877   1.900  12.133  0.0075 -0.0704 -0.0531
26679W        W42488  16.729   0.287  15.178 -0.2420 -0.1170 -0.4612
26680W        W42489   6.507  10.145   1.110 -0.2902  0.1545  0.4262
26681W        W42490   3.144  13.034  13.691 -0.0306  0.3238 -0.3318
26682W        W42491  18.495   3.599   3.904  0.2997 -0.0046 -0.0693
26683W        W42492  15.974   5.254  13.431  0.1799 -0.0137  0.1413
26684W        W42493  17.535   7.230   2.324  0.2415  0.0030 -0.1007
26685W        W42494  18.361  15.743   3.277  0.0532 -0.0934 -0.0631
26686W        W42495   1.238  18.919  12.017  0.3060 -0.1408  0.0198
26687W        W42496  16.390  14.918   1.681  0.1898  0.4787  0.0346
26688W        W42497  18.200   5.170   1.605  0.0195  0.1190 -0.1344
26689W        W42498   2.444  13.554  10.919  0.0806  0.2126  0.3226
26690W        W42499  13.532  13.326  12.188  0.2678 -0.4732 -0.0334
26691W        W42500   5.887  13.024   4.130 -0.1229 -0.0042  0.1338
26692W        W42501   6.074   1.822  10.773  0.0984 -0.0870 -0.0219
26693W        W42502  12.169  15.247  13.289  0.0463 -0.0812 -0.3533
26694W        W42503  16.823   8.606   1.372  0.3618  0.3530  0.0519
26695W        W42504   1.630   6.554   4.687 -0.0688  0.1174 -0.1688
26696W        W42505  16.451  16.436  14.744 -0.1996 -0.2551  0.2202
26697W        W42506   3.819  16.672  11.677 -0.2549  0.1089  0.1728
26698W        W42507  17.887  16.193   0.902  0.2876 -0.2795  0.0005
26699W        W42508   8.834  11.006  10.244 -0.3247 -0.1135 -0.2581
26700W        W42509   2.336  17.672   4.854 -0.1058  0.0085 -0.0390
26701W        W42510  10.301   7.889  15.236 -0.1450  0.0538 -0.1499
26702W        W42511   6.676   0.745  10.941  0.2884  0.1289  0.2499
26703W        W42512  17.449  12.364  12.836  0.0144 -0.3337 -0.2264
26704W        W42513   0.450  12.343   0.470 -0.2452  0.2358  0.1295
26705W        W42514  10.238  14.078  12.358  0.2210 -0.0094  0.1821
26706W        W42515  15.987   5.855  11.681 -0.0451 -0.0269  0.1188
26707W        W42516   3.693   5.774   3.589 -0.0216 -0.0807  0.1750
26708W        W42517   9.642  10.760  11.479 -0.1673  0.4644  0.1558
26709W        W42518   1.732   8.133   2.798 -0.1497 -0.1928  0.1594
26710W        W42519   4.896  17.798  11.641  0.1591 -0.1968  0.4303
26711W        W42520   1.774   8.732  10.981  0.0819  0.0096  0.1227
26712W        W42521  14.693   4.871  14.413  0.0465 -0.0426 -0.2461
26713W        W42522  14.750   6.872   3.345 -0.5577  0.2955  0.0849
26714W        W42523  13.451   1.419   0.825  0.2149 -0.0262  0.0522
26715W        W42524   3.765   5.729   4.584 -0.0733 -0.2723  0.1650
26716W        W42525  15.023  18.014   6.154 -0.0890 -0.3357 -0.2344
26717W        W42526   2.310  17.343  11.105  0.0779  0.1819  0.0695
26718W        W42527  11.492   8.063  12.115  0.0458 -0.1277  0.2282
26719W        W42528   9.819  18.840  11.768 -0.2941  0.3634  0.1477
26720W        W42529  13.489  16.972  11.417  0.0597 -0.2779 -0.3209
26721W        W42530  13.165   5.649  11.139 -0.0483 -0.1346 -0.2690
26722W        W42531  12.825  12.291  11.734  0.2495  0.0233 -0.2218
26723W        W42532  10.525  14.910   1.777 -0.1493  0.0692  0.0557
26724W        W42533  16.690   7.680  12.946  0.1247  0.1163  0.1341
26725W        W42534   9.476   5.224  12.110  0.1325 -0.0468  0.2505
26726W        W42535   0.839   1.019  14.148 -0.1155  0.1983  0.2310
26727W        W42536   3.774  13.395   5.147 -0.1232  0.2488 -0.3036
26728W        W42537  15.062   4.518  12.062 -0.2380 -0.0494 -0.1166
26729W        W42538   9.059  11.226  11.542 -0.0542  0.0563  0.1921
26730W        W42539   2.092  16.066   4.431 -0.0165  0.5277 -0.0984
26731W        W42540   7.749  12.795   0.037 -0.1135  0.1023 -0.1257
26732W        W42541   3.416   1.878   4.957  0.0624  0.0542  0.3490
26733W        W42542   7.744   7.745  11.037  0.2105 -0.3282  0.0399
26734W        W42543  11.587  14.681  10.965  0.2009 -0.0362  0.0400
26735W        W42544   4.549   8.443   2.964  0.0577 -0.1902 -0.2214
26736W        W42545  11.515  17.694   4.657 -0.0699 -0.1939  0.1086
26737W        W42546   0.886   1.642   1.841  0.0363 -0.1805 -0.0157
26738W        W42547  10.642   8.161  14.779  0.0583 -0.0330  0.0672
26739W        W42548   7.502   7.496   2.377 -0.0185 -0.1980 -0.0840
26740W        W42549   2.771  14.141   3.655 -0.2295  0.1268  0.1248
26741W        W42550  12.806  10.264   2.819 -0.0379 -0.2955  0.5098
26742W        W42551   7.112   7.813  11.118 -0.1762 -0.0290 -0.1293
26743W        W42552   5.669  14.014  14.489  0.0781 -0.0690  0.1834
26744W        W42553  17.357   4.326   1.891 -0.1033 -0.0181  0.0730
26745W        W42554  17.898   8.342   1.622  0.0524  0.0619 -0.2058
26746W        W42555   6.749  14.338  13.419  0.1019 -0.1000  0.2302
26747W        W42556  14.785  13.107   4.700  0.0228  0.3096  0.0779
26748W        W42557  16.165   0.773   3.272  0.1624  0.0751  0.0404
26749W        W42558  14.324   9.535  11.366 -0.2172  0.3773  0.1648
26750W        W42559  11.490  10.594  10.294 -0.2777 -0.1596 -0.0279
26751W        W42560   6.188  12.447  13.365  0.0097  0.0955  0.4363
26752W        W42561   2.992  17.524  13.880 -0.3815  0.1263 -0.0499
26753W        W42562  18.847  18.315   2.791  0.2412 -0.1143 -0.0555
26754W        W42563  11.565  14.943  15.113 -0.0169  0.0639 -0.0883
26755W        W42564   0.754   0.903  11.241 -0.2047 -0.5100 -0.3330
26756W        W42565  16.513  16.643   5.785 -0.1484  0.0246 -0.2491
26757W        W42566  10.764   1.013  14.575 -0.2276  0.0035  0.0575
26758W        W42567   4.960   0.275   0.808 -0.1087  0.3737 -0.3055
26759W        W42568   7.464  12.163   1.467  0.2560  0.1010  0.1483
26760W        W42569  12.536  17.982   4.943  0.3719 -0.0433 -0.0410
26761W        W42570  17.038  13.708   0.462  0.1731 -0.1397 -0.1914
26762W        W42571   1.912   0.576  12.973  0.0760 -0.0077  0.1542
26763W        W42572  13.751  13.011  14.029 -0.1250 -0.0268  0.0857
26764W        W42573  12.727   0.368   2.786 -0.1531  0.1465 -0.5319
26765W        W42574   9.023   9.282   3.721  0.5007 -0.0145 -0.0033
26766W        W42575  15.671  10.834  14.279  0.0223 -0.0352  0.1718
26767W        W42576  14.378  15.850  13.723 -0.0357 -0.2621 -0.2022
26768W        W42577   4.927   6.336  10.251  0.2065 -0.1078 -0.0059
26769W        W42578   2.800   6.653  12.791 -0.0020 -0.1809 -0.2216
26770W        W42579  16.141  14.910  15.085 -0.0762  0.0536 -0.2859
26771W        W42580   4.311   7.410   0.126  0.1305  0.0822  0.2565
26772W        W42581  11.333   6.685   0.235 -0.1404  0.1207  0.0414
26773W        W42582   9.485  15.468  13.440 -0.1138  0.1287  0.0479
26774W        W42583   7.315  14.983   3.246  0.1025 -0.1602 -0.1712
26775W        W42584   0.401  10.792   1.809 -0.0266 -0.1317  0.1119
26776W        W42585   6.823  15.092   0.900 -0.2179 -0.0152 -0.0262
26777W        W42586  17.520  13.648  10.304 -0.2345  0.0151 -0.0805
26778W        W42587  15.675  17.153  10.955 -0.2424  0.1581  0.2892
26779W        W42588   6.646   5.152   0.599 -0.1556 -0.0790 -0.1609
26780W        W42589   9.775   5.174  12.493 -0.0771  0.0017 -0.1553
26781W        W42590  14.712   9.494  11.756 -0.1454 -0.2164 -0.1474
26782W        W42591  16.334   2.540   0.098  0.2378 -0.0440  0.3592
26783W        W42592  11.806   6.190   5.964  0.1559  0.0455 -0.2831
26784W        W42593   1.904   5.653   3.245 -0.1592  0.2035  0.2039
26785W        W42594   8.608   5.231   2.346  0.2345  0.1981 -0.0252
26786W        W42595  18.546   8.421  12.863  0.1523 -0.0025 -0.1813
26787W        W42596   7.058  16.692   1.955 -0.2269 -0.0927 -0.0056
26788W        W42597  18.004   8.684   2.380 -0.1736 -0.1205 -0.1836
26789W        W42598  12.260   5.428   0.701  0.1006  0.1154 -0.2616
26790W        W42599  11.792   9.095   3.083  0.0067 -0.2132 -0.1533
26791W        W42600   5.960   6.471  12.943 -0.2898  0.0150  0.2730
26792W        W42601  10.407   8.256  14.241  0.0236 -0.3334  0.1816
26793W        W42602   0.163   4.471   2.461 -0.1789  0.1129 -0.0468
26794W        W42603  13.337  15.294   4.030  0.1242  0.0501  0.0609
26795W        W42604   4.039  18.311  13.296  0.2579  0.4100 -0.0349
26796W        W42605  13.293   4.993  12.849  0.3179 -0.1184  0.0811
26797W        W42606  11.564   4.380  13.951  0.0225 -0.2096  0.2156
26798W        W42607  15.432  17.646  11.095  0.0756 -0.1319 -0.0255
26799W        W42608   3.706  18.616  14.902 -0.3183  0.0132 -0.4568
26800W        W42609   0.701   7.322   1.521 -0.2114  0.1214  0.0450
26801W        W42610   7.242   2.466  12.919  0.0726 -0.0330 -0.2762
26802W        W42611   8.053   6.250   2.936  0.0956  0.0623 -0.1739
26803W        W42612   3.798  13.588   0.843  0.2514 -0.0420  0.2181
26804W        W42613   5.822  16.255   2.755  0.0118 -0.2133 -0.1041
26805W        W42614   6.921  13.153  12.184  0.1181 -0.1350 -0.0273
26806W        W42615  15.982  10.065  15.048 -0.1525 -0.1959  0.0771
26807W        W42616  11.463  15.630  14.564 -0.0100  0.3968 -0.2564
26808W        W42617  10.886  17.373  12.981  0.1468 -0.2770  0.0309
26809W        W42618   3.037   0.344   9.905  0.2004  0.0407 -0.0383
26810W        W42619   9.603   3.266  12.601  0.1754  0.0971  0.0969
26811W        W42620   3.735   4.133   4.671 -0.5138  0.0322  0.0455
26812W        W42621  14.103  18.086   2.748 -0.2536 -0.2854  0.0752
26813W        W42622   1.050  17.074   2.352 -0.0757 -0.0283 -0.1714
26814W        W42623   2.654  13.130   3.684  0.2901 -0.0042 -0.0201
26815W        W42624  18.988   4.831   2.777 -0.0765  0.0208 -0.2636
26816W        W42625  17.142   0.930  12.054  0.1707  0.0800  0.0910
26817W        W42626   6.378   4.228   2.323  0.0521  0.3455  0.0425
26818W        W42627   1.002  12.455  13.471 -0.0127 -0.0991 -0.1468
26819W        W42628   1.552   9.353  13.532 -0.0930  0.0987 -0.1672
26820W        W42629  16.340   5.217   4.607  0.3495  0.2719  0.3747
26821W        W42630  16.831   9.766   0.100 -0.2239  0.1047 -0.0573
26822W        W42631  14.123  17.133  14.236  0.1388 -0.1457 -0.1794
26823W        W42632  13.305  10.031   2.184  0.0501 -0.0633  0.0567
26824W        W42633   6.760   0.406  12.243 -0.3976 -0.0598  0.0294
26825W        W42634   0.343   2.857  13.747 -0.1618  0.2868 -0.1400
26826W        W42635   1.987   4.103  13.952 -0.0434 -0.3714  0.0515
26827W        W42636   7.967   4.642   9.800 -0.1606  0.2271  0.2674
26828W        W42637  18.388   5.725   3.032 -0.1582 -0.2856  0.1327
26829W        W42638  16.316  10.478   2.590 -0.1979 -0.1472  0.0972
26830W        W42639  10.748  15.265   1.265  0.1452  0.1273 -0.2085
26831W        W42640   0.787   2.289  11.707  0.3750 -0.2888 -0.4567
26832W        W42641  14.046  15.421  13.530 -0.2114  0.3818 -0.2746
26833W        W42642   8.800  13.870  12.947  0.0705  0.0145 -0.4423
26834W        W42643   3.569   8.405   2.527 -0.2694 -0.1367 -0.1411
26835W        W42644  16.411   4.243  11.299 -0.2347 -0.4383  0.0659
26836W        W42645  17.231   3.509  14.954  0.1046 -0.4367 -0.0341
26837W        W42646  13.758  11.090  15.076  0.1045  0.1084 -0.1329
26838W        W42647  14.937   4.584   2.716 -0.0881 -0.0962  0.3229
26839W        W42648   6.592  10.068   2.511 -0.0587  0.4616  0.1516
26840W        W42649  11.408   3.556  11.697 -0.0055  0.1625  0.1636
26841W        W42650  13.042   5.538   0.199 -0.2919 -0.0734 -0.1609
26842W        W42651  11.466  12.621   4.973 -0.1968  0.2366  0.0167
26843W        W42652  17.030   0.373  12.090  0.0184  0.1007  0.1486
26844W        W42653   6.489   2.729  10.359 -0.1220  0.3292  0.2743
26845W        W42654  10.840   5.751   2.738 -0.0041  0.1277 -0.1541
26846W        W42655   0.737  11.808   5.692 -0.1476 -0.2971  0.1148
26847W        W42656   9.935   1.934  11.055 -0.0336 -0.0763  0.0951
26848W        W42657  17.193  12.124  13.169  0.1912 -0.2585 -0.2471
26849W        W42658   4.319  13.969  14.979  0.0609 -0.1069  0.0561
26850W        W42659  11.163   3.190  10.909  0.1068 -0.0445 -0.1703
26851W        W42660   1.445  12.205  11.720  0.6099  0.1552  0.2146
26852W        W42661  13.195  13.098  11.565  0.4134 -0.0479 -0.0537
26853W        W42662  15.955   0.031  12.580 -0.1411 -0.0305  0.2821
26854W        W42663   0.924  12.087  13.778  0.0817 -0.0781  0.0280
26855W        W42664   4.689  12.327  15.247  0.0691  0.0873  0.0545
26856W        W42665   5.216  11.026  13.053  0.3716  0.0820  0.0655
26857W        W42666   8.840   5.977   2.596  0.2320 -0.1639 -0.1577
26858W        W42667   9.950   6.103  11.727 -0.0120 -0.0525  0.2276
26859W        W42668  17.721   7.073   5.142 -0.0075  0.1176  0.0289
26860W        W42669   1.681  17.942  10.525 -0.1580 -0.0449  0.2023
26861W        W42670   3.060   2.583   1.784  0.1971 -0.0708 -0.1342
26862W        W42671   4.325   5.990   1.957  0.2089 -0.2034 -0.0667
26863W        W42672   1.110   6.767   1.466 -0.1138 -0.0819  0.2409
26864W        W42673   2.666  12.708   0.595 -0.1237 -0.0194  0.1031
26865W        W42674   3.230  10.361   9.572  0.0806  0.3144  0.3370
26866W        W42675  17.660   4.034  11.215  0.5581  0.2397 -0.3233
26867W        W42676  18.574   9.908   3.993  0.0843  0.0894 -0.1933
26868W        W42677  12.075   2.537  13.881 -0.1324 -0.7175  0.3340
26869W        W42678  13.697  18.236   2.407 -0.0945  0.0725  0.1460
26870W        W42679   0.317   0.799   1.391 -0.1830  0.0743  0.2166
26871W        W42680   3.327   9.872  12.418 -0.0928 -0.0516  0.3586
26872W        W42681  11.609   2.793  13.847 -0.1066  0.0318 -0.0633
26873W        W42682  11.120   9.652   4.927 -0.0578  0.1754 -0.5607
26874W        W42683   5.872  11.977   3.299  0.2937  0.0479  0.1893
26875W        W42684   6.842   3.743  15.185  0.0605 -0.3013 -0.3041
26876W        W42685  11.752   5.403  12.527  0.0516 -0.1406 -0.2536
26877W        W42686  18.570   1.642  12.405 -0.0359 -0.1914 -0.0371
26878W        W42687   1.252  15.328  11.688 -0.2893 -0.2745 -0.0409
26879W        W42688   5.168   0.870   2.555  0.1395 -0.2737 -0.0050
26880W        W42689   7.604   8.097   3.248 -0.0339 -0.0179 -0.1803
26881W        W42690   9.077   1.830   0.317 -0.1390 -0.0434  0.0263
26882W        W42691  11.362  11.287   2.813 -0.1717 -0.0430  0.1881
26883W        W42692   3.073   9.913  10.657 -0.1097 -0.2341  0.2479
26884W        W42693   9.160   5.112  14.712 -0.2076 -0.0446 -0.3024
26885W        W42694  14.909   0.193   0.190 -0.2476  0.0212  0.1835
26886W        W42695   9.711   2.855   4.142  0.1567  0.1301 -0.2690
26887W        W42696   3.121   4.405  11.259  0.2861 -0.0633 -0.1283
26888W        W42697  15.929   0.753   4.371  0.1635 -0.0407  0.0958
26889W        W42698   4.854   8.449   5.450  0.0486 -0.2459  0.1073
26890W        W42699  15.172  15.009   0.199  0.0670  0.1007 -0.1300
26891W        W42700   0.748   2.525   4.408 -0.0194 -0.1741  0.0120
26892W        W42701  10.201   1.765   6.295  0.0550  0.0404  0.0427
26893W        W42702   7.584  15.511  10.753  0.2030  0.0445 -0.2105
26894W        W42703   0.082  18.031   3.048 -0.1404 -0.0645  0.0593
26895W        W42704  12.716  16.999   1.210  0.2777 -0.4132 -0.1081
26896W        W42705   9.967  12.377  12.465  0.2559 -0.0095  0.0181
26897W        W42706   6.949  16.776   3.361 -0.3756  0.1048 -0.0037
26898W        W42707   8.825  16.518  15.021  0.0975  0.3601  0.0815
26899W        W42708   4.480  18.111  11.723 -0.1578  0.4672  0.3444
26900W        W42709  11.346   5.323  11.141 -0.4364 -0.0557  0.1297
26901W        W42710  13.548   5.394  12.580 -0.0637 -0.0481  0.2198
26902W        W42711   0.549   0.592   2.924 -0.3138 -0.1351 -0.0650
26903W        W42712   4.863  16.418  12.650  0.3657 -0.2544 -0.1848
26904W        W42713  13.462   7.116   1.199 -0.1441 -0.0225 -0.0244
26905W        W42714  17.458  12.591   6.085 -0.1474 -0.2779  0.2464
26906W        W42715  13.905  13.521  13.067  0.1006  0.0430  0.1923
26907W        W42716   0.647  14.298  11.109  0.3038  0.1404  0.2760
26908W        W42717  13.655  15.949  12.859  0.2467  0.1853 -0.3343
26909W        W42718   2.943  10.850   3.937  0.1080 -0.0061 -0.0230
26910W        W42719  12.711   0.156   4.350  0.3186  0.2264 -0.0735
26911W        W42720  14.249   7.352  11.929 -0.1969 -0.3175 -0.1752
26912W        W42721  18.128   1.964   4.319 -0.1928 -0.1222  0.2369
26913W        W42722  17.080   5.424  11.319 -0.0998 -0.1021 -0.0002
26914W        W42723  15.488  13.706   3.500  0.1935 -0.0751  0.2050
26915W        W42724  16.433  17.753  14.230  0.0502  0.2626  0.1114
26916W        W42725   7.225  13.725  15.114 -0.1309  0.1654 -0.0982
26917W        W42726   6.589   0.257  15.202  0.3640  0.0390 -0.2675
26918W        W42727  15.902  17.700  11.321 -0.0402  0.2429 -0.3856
26919W        W42728   4.621  11.283   0.355  0.1455  0.1843  0.2505
26920W        W42729   1.439  17.741   4.331 -0.1349  0.2203 -0.2211
26921W        W42730  15.667  18.777  13.047  0.4029 -0.1564  0.0909
26922W        W42731  12.586  16.873   4.397 -0.0445 -0.0841 -0.0152
26923W        W42732  15.093   9.581   4.473  0.2004 -0.0839  0.1171
26924W        W42733  18.233  14.145   3.651  0.0735  0.2796 -0.2600
26925W        W42734   1.114   7.308  11.734  0.2885  0.2549  0.3270
26926W        W42735  18.039  13.008   0.358  0.1358 -0.0933 -0.0657
26927W        W42736  13.277  16.824   0.737 -0.0694 -0.0321 -0.5368
26928W        W42737  18.742  10.093  10.932  0.1534 -0.1310  0.1608
26929W        W42738   1.886  11.541  13.876  0.0663 -0.0794 -0.0573
26930W        W42739  17.749  11.902  11.386  0.0278  0.2585  0.0903
26931W        W42740   8.630  11.850   0.433 -0.0524 -0.0385  0.0987
26932W        W42741   2.756  14.193  15.129  0.3230 -0.0310 -0.2781
26933W        W42742   6.830   6.640   5.836  0.0472  0.0678 -0.2939
26934W        W42743   7.119   9.093  11.685 -0.1741  0.0287  0.1603
26935W        W42744  18.194   5.277   1.042  0.2551  0.0358 -0.1839
26936W        W42745  12.609   2.204  12.524  0.1189 -0.2432 -0.3547
26937W        W42746   6.874   9.519  14.260  0.4236 -0.1676  0.0111
26938W        W42747  17.493   3.519   4.284 -0.2594 -0.3324 -0.0106
26939W        W42748  17.143   2.666   5.371  0.0976 -0.4454 -0.0561
26940W        W42749   4.465  13.644   4.678  0.4984  0.0557 -0.2065
26941W        W42750  10.894   0.312   2.459  0.0494 -0.3808 -0.0825
26942W        W42751   9.340  15.756   3.132  0.2610  0.3101  0.1280
26943W        W42752  15.754  15.088  11.164 -0.0463 -0.1263  0.0752
26944W        W42753  11.155   0.953   2.664  0.1255  0.0820 -0.0901
26945W        W42754  10.953  14.230   4.130 -0.3578  0.0825 -0.4002
26946W        W42755  15.250   8.692   1.519 -0.0727 -0.1107 -0.1351
26947W        W42756  11.230   9.835   4.454 -0.1303  0.0545 -0.1783
26948W        W42757  10.420   1.896  14.823 -0.0732  0.2519 -0.0071
26949W        W42758  12.119   8.550  14.343 -0.2880 -0.0107  0.1416
26950W        W42759   4.222   2.862   0.495  0.1478 -0.0290 -0.0103
26951W        W42760   5.546  14.427  11.825  0.2908  0.3283 -0.0446
26952W        W42761   5.266  18.963   0.612  0.1419  0.0463 -0.0538
26953W        W42762   2.709  13.911   0.316 -0.1575 -0.0254 -0.0603
26954W        W42763  16.326  13.918   2.529 -0.1028 -0.1042 -0.1584
26955W        W42764   7.763   4.604   3.520 -0.2178  0.1767  0.2491
26956W        W42765  12.116  18.213  14.732  0.0041  0.2254 -0.0345
26957W        W42766  18.752  11.549  13.771 -0.1216  0.3442  0.1047
26958W        W42767   9.882  12.797  10.444 -0.0192 -0.6559 -0.0383
26959W        W42768  17.306  16.616  14.295  0.0851  0.0264 -0.0065
26960W        W42769   8.700   2.434   0.962 -0.0108  0.0163  0.2531
26961W        W42770   4.794  18.821  13.802  0.3334 -0.1322  0.2672
26962W        W42771   4.631  19.017   1.575 -0.3471 -0.1860 -0.0919
26963W        W42772  14.767   2.568   3.949 -0.0430 -0.1923  0.0065
26964W        W42773   3.677   7.457   3.607  0.1111 -0.1688 -0.2335
26965W        W42774  18.925   2.209   3.362 -0.1207 -0.0630 -0.1607
26966W        W42775   8.936   6.625   0.884 -0.1104  0.1901  0.0464
26967W        W42776  16.587  14.624  11.272 -0.2171 -0.0252 -0.0339
26968W        W42777   8.107  14.521  13.325  0.0486  0.0649  0.2605
26969W        W42778  17.788   1.903  13.991  0.0951 -0.3694 -0.0653
26970W        W42779  16.236  18.523   2.751  0.1132 -0.2220  0.5686
26971W        W42780   2.327  14.355   3.568  0.0957  0.2535 -0.0906
26972W        W42781   2.871  10.637  11.733  0.3251  0.1222  0.0494
26973W        W42782   2.284   9.070   0.647 -0.1154 -0.1475 -0.0131
26974W        W42783   5.308  13.577   3.780  0.4676  0.1270 -0.1010
26975W        W42784  12.514   1.933  11.529  0.2551  0.1170 -0.2688
26976W        W42785  12.688   1.642   4.550  0.1983  0.0335 -0.1616
26977W        W42786  13.634  17.838  14.581  0.3862 -0.0281 -0.4443
26978W        W42787   0.548  18.208  14.653  0.1038  0.2180 -0.3078
26979W        W42788  10.526   5.626   4.179  0.3185  0.0094  0.2170
26980W        W42789   4.034   3.812  10.934  0.0415  0.1575  0.2959
26981W        W42790   9.968  13.458  14.022 -0.2009 -0.1597  0.1553
26982W        W42791   6.138  13.715   0.142  0.0961 -0.1273  0.0053
26983W        W42792   1.327  14.305   4.684 -0.3719  0.2833  0.3295
26984W        W42793   0.837   4.824   5.505 -0.0353 -0.1898 -0.2296
26985W        W42794  14.111   9.233   3.045  0.2446  0.0369 -0.0844
26986W        W42795   5.427  18.737   2.463  0.0433  0.0208  0.2042
26987W        W42796  14.458  15.571  15.025  0.0899  0.2971 -0.0244
26988W        W42797   0.330  18.784  14.826 -0.0405 -0.5191  0.0850
26989W        W42798  11.100   1.919   4.812  0.1316  0.0607 -0.4888
26990W        W42799   0.591   0.067  12.551 -0.3010  0.1787 -0.1613
26991W        W42800   8.360   6.307   0.630 -0.0511 -0.3195  0.0979
26992W        W42801  14.515  11.136   0.756 -0.0206 -0.2500  0.1818
26993W        W42802   7.890  15.636   1.281  0.1520 -0.0984  0.0811
26994W        W42803   3.404   3.567   0.798  0.0858  0.0065  0.0278
26995W        W42804  16.434   1.106   3.961 -0.3027  0.0097  0.2475
26996W        W42805   5.182  16.036  12.673  0.1918  0.0319  0.1289
26997W        W42806   4.890   1.904   4.706 -0.1910  0.2761  0.3101
26998W        W42807  11.347  11.672  14.269  0.4334 -0.2769  0.0736
26999W        W42808   7.410   1.888   2.656 -0.0152 -0.0217  0.3603
27000W        W42809   0.479  18.883  10.693 -0.4544  0.3420  0.1794
27001W        W42810  17.475  18.532   5.104  0.1768  0.2266  0.4398
27002W        W42811  14.202   8.797   0.958  0.0777 -0.2459  0.2030
27003W        W42812   4.547   1.425   4.683 -0.4942 -0.3528  0.0352
27004W        W42813  10.648   5.133   3.377 -0.1381  0.1448  0.1210
27005W        W42814  10.584   5.048  15.229  0.1032  0.0702  0.1731
27006W        W42815  16.201   7.199   0.613 -0.2493 -0.0623 -0.5269
27007W        W42816  16.472   8.365  12.515  0.0095 -0.1373  0.2222
27008W        W42817  15.904  17.346   0.445  0.0747  0.0739 -0.1680
27009W        W42818   4.474   7.083   3.295 -0.1328  0.1497  0.1623
27010W        W42819  10.453   0.080  13.221 -0.1679 -0.0570  0.2891
27011W        W42820  11.477   8.199  10.536 -0.2073  0.0146 -0.2745
27012W        W42821   2.319  11.416  13.614  0.0107  0.0493  0.0970
27013W        W42822  13.630  12.684  12.246  0.0383 -0.2937 -0.0853
27014W        W42823  13.677   4.274  13.302  0.0588  0.0975 -0.0547
27015W        W42824   2.237  14.826  14.378 -0.1800  0.1897 -0.2167
27016W        W42825   2.126  15.302   0.296  0.0044 -0.3252  0.0888
27017W        W42826   4.325   3.221  11.784 -0.2983 -0.2011 -0.1468
27018W        W42827  10.431  12.346  12.575  0.1273 -0.0314 -0.1558
27019W        W42828  14.241  17.101   0.462 -0.4203  0.3117 -0.1963
27020W        W42829   5.131  15.487   0.348 -0.3307  0.0727 -0.3125
27021W        W42830   3.251  15.707  10.104 -0.1152  0.0117  0.1336
27022W        W42831   1.570  13.591  13.232  0.1668 -0.0642  0.1229
27023W        W42832   1.325   0.390  11.921 -0.4263  0.3287  0.0163
27024W        W42833   6.027  18.502  13.006 -0.1043  0.2637  0.0175
27025W        W42834   7.412  17.783   2.368  0.3685 -0.0637 -0.1314
27026W        W42835  14.424  13.051   0.186  0.2773 -0.2745 -0.1151
27027W        W42836  14.846   8.236   4.884 -0.1574  0.0333 -0.0872
27028W        W42837  16.238   1.068  14.915 -0.1938  0.1388  0.1344
27029W        W42838  18.094   0.522   1.480  0.2359  0.0440  0.1688
27030W        W42839  10.340   1.960   1.656 -0.5633 -0.1444 -0.0161
27031W        W42840   9.394   3.237  10.904  0.0304 -0.1034 -0.1529
27032W        W42841   8.537  16.773  11.974  0.3142  0.2347 -0.1707
27033W        W42842  13.597  17.881  11.047 -0.0366 -0.0287  0.0260
27034W        W42843   5.767   7.901   0.308 -0.3188  0.0492 -0.3399
27035W        W42844   1.548   6.290   1.548  0.0232  0.1042 -0.1972
27036W        W42845   5.202   0.478   2.874  0.1712 -0.2147  0.1172
27037W        W42846   9.236  14.023  13.220 -0.0176 -0.2425  0.1189
27038W        W42847  16.528   5.670   4.478  0.3054  0.1063  0.1286
27039W        W42848   1.512   8.770  14.237 -0.2869  0.4657  0.1336
27040W        W42849   2.041   9.357   5.674 -0.1696 -0.0754  0.0798
27041W        W42850   5.727   5.857  14.647  0.0281  0.1052 -0.1351
27042W        W42851  11.686  11.449   0.155 -0.1185 -0.3295 -0.1384
27043W        W42852  16.700  15.344  12.811 -0.0036 -0.1913 -0.3061
27044W        W42853  10.040  16.755  11.527 -0.3531  0.1256  0.2447
27045W        W42854  11.839   1.891  10.733  0.1744 -0.1622  0.0657
27046W        W42855   5.878  13.091  10.757  0.1343  0.1530  0.3178
27047W        W42856   0.073   5.704   2.539 -0.3005  0.1243  0.2952
27048W        W42857   9.183   4.008   3.310 -0.0187 -0.0545 -0.0001
27049W        W42858   3.959   0.925  10.623 -0.2386 -0.0624 -0.0762
27050W        W42859  17.325  15.783   5.631  0.0104  0.3145 -0.2649
27051W        W42860  14.344   5.288  14.434 -0.3536 -0.2948 -0.1828
27052W        W42861  17.333  15.429  14.089 -0.1351 -0.1805  0.1388
27053W        W42862  18.703  17.737   0.451  0.0483  0.3217 -0.1443
27054W        W42863   1.899   7.860  10.823  0.1197 -0.0265 -0.1218
27055W        W42864   5.271  17.649   3.843 -0.1200 -0.0634  0.0700
27056W        W42865   2.438  15.111  12.070 -0.1767  0.1496  0.1138
27057W        W42866  15.509  14.725   3.413  0.1941  0.1085 -0.0530
27058W        W42867  13.536  12.010  10.801  0.2005  0.3471  0.0976
27059W        W42868   0.690  15.896   3.419 -0.0178  0.1020  0.0486
27060W        W42869   3.755  11.888  15.136 -0.1593  0.1474 -0.0989
27061W        W42870   9.348   0.119  15.134 -0.0106  0.3076 -0.0488
27062W        W42871   3.105  10.416  15.103 -0.1738  0.0392  0.0235
27063W        W42872   4.643  18.206  12.769  0.0043 -0.2721  0.1768
27064W        W42873  15.454   1.310   1.196 -0.1179  0.0785 -0.2714
27065W        W42874  13.342   7.080  15.231  0.0902 -0.1964  0.1843
27066W        W42875  14.301   4.737   1.893  0.0190 -0.1452 -0.0332
27067W        W42876   1.380  17.099   0.836  0.2974  0.0203  0.1227
27068W        W42877  11.604   0.933  10.918  0.1548 -0.2068 -0.2134
27069W        W42878   3.668   5.721  12.120 -0.2228  0.1099 -0.1385
27070W        W42879  15.837  15.864   3.091  0.1334  0.0806  0.2305
27071W        W42880  18.026  11.308   1.503  0.0627  0.3652 -0.0280
27072W        W42881  12.549  11.861   0.483  0.2524  0.0718  0.1692
27073W        W42882  15.945  13.425   5.219  0.1222 -0.1555  0.2514
27074W        W42883  10.106   7.537   4.353  0.4198  0.0204 -0.0068
27075W        W42884   5.807   8.596  11.290  0.1747 -0.2567  0.1296
27076W        W42885  12.536  15.623  14.509  0.0570  0.1051  0.0819
27077W        W42886  11.175   3.119   0.674  0.2266 -0.0469  0.3082
27078W        W42887   4.441   4.440  13.113  0.0398  0.3097 -0.1799
27079W        W42888   0.831   1.537  12.432 -0.1786 -0.2014  0.1098
27080W        W42889   8.535  13.220   2.656 -0.1180 -0.0889  0.1909
27081W        W42890  12.520   0.884   2.043 -0.0796  0.1479  0.0867
27082W        W42891  17.999  13.023  15.159 -0.1292  0.1711  0.2068
27083W        W42892   7.486   6.221   2.181  0.1790 -0.2529 -0.0614
27084W        W42893  12.455  15.649   0.092 -0.2371  0.0619 -0.2129
27085W        W42894   9.813   9.838  13.131 -0.0872 -0.1920  0.0881
27086W        W42895   3.444  10.615  13.552  0.0981  0.0875  0.2495
27087W        W42896  10.999   5.706  12.628 -0.0122 -0.1139 -0.1947
27088W        W42897  14.970   1.009   2.825  0.0292  0.2489 -0.2674
27089W        W42898  10.598   6.480  13.707 -0.3952 -0.0253 -0.2342
27090W        W42899   9.603   5.584  11.565 -0.0597 -0.0950  0.0421
27091W        W42900   6.129  12.864  14.686  0.2605 -0.0230  0.0875
27092W        W42901  16.931   4.529  13.378  0.1929  0.2098 -0.3682
27093W        W42902  17.534  11.362  11.309  0.3185  0.0239  0.1489
27094W        W42903  18.024  10.853   3.777 -0.0960 -0.1199  0.0332
27095W        W42904  11.742   5.803   0.598  0.2943  0.2419 -0.0343
27096W        W42905   1.925   5.418  13.107 -0.2158 -0.1945 -0.1509
27097W        W42906   8.859  16.481   0.277  0.0961 -0.1218  0.0991
27098W        W42907  18.782   9.719  12.917 -0.1498 -0.1359  0.4937
27099W        W42908   2.896   5.712   3.208 -0.2143 -0.3254  0.3521
27100W        W42909  18.934   8.695   2.239 -0.1338 -0.0157 -0.0946
27101W        W42910   8.978  11.983   2.158  0.0880 -0.2134 -0.1351
27102W        W42911   9.606  10.236   4.031  0.1661  0.2152  0.2726
27103W        W42912  11.060   8.295   3.514 -0.3775  0.1740  0.0786
27104W        W42913   6.046  15.311   4.061 -0.2726 -0.3116 -0.0795
27105W        W42914  14.306  13.316   9.806 -0.3264  0.2934 -0.4328
27106W        W42915  16.296  12.267  10.887  0.1382 -0.2615 -0.0460
27107W        W42916   2.035   2.123   3.226 -0.2271  0.0046  0.0501
27108W        W42917  10.344  12.934   3.084  0.0307 -0.1099  0.2595
27109W        W42918  18.771   2.150   0.489  0.0885  0.1360  0.0418
27110W        W42919   4.533   8.212  13.261 -0.2070  0.1987 -0.4455
27111W        W42920  10.312   3.511   2.396  0.1850  0.0123 -0.1347
27112W        W42921  16.014   4.138  15.130  0.0222 -0.1718  0.1748
27113W        W42922  11.859   2.570   0.560 -0.1517 -0.0782 -0.3178
27114W        W42923  13.113  11.042   2.497  0.1536  0.0049  0.3486
27115W        W42924   0.674  18.645  12.671  0.1683 -0.0518  0.0277
27116W        W42925   0.374   7.176   4.617 -0.1566 -0.1565  0.0840
27117W        W42926   9.932   2.192   4.086  0.0013 -0.3340 -0.1274
27118W        W42927   3.795   0.540   2.482 -0.5141 -0.0424  0.2337
27119W        W42928  13.943  10.023   3.680 -0.0126 -0.0903  0.0140
27120W        W42929  13.056   7.669  12.937  0.0436 -0.0377 -0.0545
27121W        W42930   3.354   2.248   1.039  0.0302  0.2234 -0.2364
27122W        W42931  17.427   1.043  13.311 -0.0923 -0.0837 -0.0110
27123W        W42932  18.351   5.436   3.961  0.0052 -0.1102 -0.0060
27124W        W42933   8.892   4.591  11.967  0.0280  0.1359  0.1732
27125W        W42934   8.805  10.273   3.433  0.2237  0.0149  0.3076
27126W        W42935   9.881  12.360   3.001 -0.1450  0.1347 -0.1998
27127W        W42936   2.663   0.926  12.508 -0.0879 -0.0793 -0.0559
27128W        W42937   4.546   0.810   9.810  0.0217  0.0852 -0.0774
27129W        W42938   2.695   5.225  13.876 -0.0379  0.0073  0.2203
27130W        W42939  12.483   8.973  11.547  0.4161 -0.0346  0.1024
27131W        W42940   4.048  14.363  11.864 -0.1176  0.1824 -0.1591
27132W        W42941   6.490   7.750  10.473  0.0818  0.0472 -0.0587
27133W        W42942  11.104  15.036   3.429  0.2320  0.0568 -0.1336
27134W        W42943   0.423  12.199   3.019 -0.1169  0.0542 -0.1578
27135W        W42944  13.825   7.800  13.001 -0.0751  0.0744  0.1376
27136W        W42945   5.462  16.529  10.494  0.2820 -0.2765  0.0485
27137W        W42946  10.699  12.185   0.525  0.1835 -0.3540 -0.2551
27138W        W42947   7.163  15.188   0.132  0.3999 -0.2056  0.0779
27139W        W42948   5.780  12.173  14.895 -0.2534 -0.0745  0.3001
27140W        W42949   8.761   9.653   3.498  0.0969 -0.0786 -0.1238
27141W        W42950  16.028   5.074  11.670 -0.0223  0.4912  0.0750
27142W        W42951   4.179   6.775  10.324  0.1542  0.1957  0.1433
27143W        W42952   7.179   9.537   2.697  0.0210 -0.0757  0.0433
27144W        W42953   7.115   8.748  11.997  0.2276  0.1846 -0.1342
27145W        W42954  18.385  13.596   3.706 -0.0431 -0.1506  0.1562
27146W        W42955  10.996  18.386  12.747  0.4872  0.1320  0.1784
27147W        W42956  18.358   2.051   1.711  0.0262 -0.2461  0.0874
27148W        W42957   2.734   0.741  11.456 -0.2294 -0.1104  0.0672
27149W        W42958   8.355  15.511  14.737 -0.0057  0.0396 -0.0551
27150W        W42959  15.605   7.958   9.632 -0.0176  0.0168  0.0758
27151W        W42960   8.234  11.303   1.301  0.0290  0.0218 -0.0265
27152W        W42961  17.355   4.889  13.361  0.1375 -0.1126 -0.0959
27153W        W42962   8.211  16.486   1.078  0.0881 -0.1283  0.1742
27154W        W42963  19.030   0.906   4.728 -0.0539  0.3837 -0.3013
27155W        W42964   2.979   4.608   2.727  0.1276  0.0922  0.0891
27156W        W42965   5.852   0.121  14.781 -0.1122 -0.0535 -0.1937
27157W        W42966  15.073   7.631  13.527  0.0597 -0.1244 -0.1318
27158W        W42967   7.716  18.746  10.864  0.0130  0.1073  0.0412
27159W        W42968   2.778   7.030  13.290 -0.1975  0.1007  0.1318
27160W        W42969  12.773  13.625   4.073 -0.3821  0.1812  0.0850
27161W        W42970  18.226  13.190   3.459  0.0676 -0.2846  0.2002
27162W        W42971  16.152  11.804  13.924  0.2434 -0.1328 -0.1283
27163W        W42972  10.099   3.765  13.831 -0.0093 -0.1446  0.1330
27164W        W42973   5.600  18.353   2.154 -0.0472 -0.0159  0.3310
27165W        W42974   4.603   1.261  11.162 -0.1947 -0.3152 -0.3059
27166W        W42975   5.282  10.471   2.279  0.2017 -0.0020  0.2712
27167W        W42976   0.767   7.665   9.102  0.1766  0.0056  0.0031
27168W        W42977  11.600  13.546  12.187  0.0291 -0.1188  0.1908
27169W        W42978  14.354  16.721  15.169  0.3468 -0.0011 -0.3346
27170W        W42979  18.739  14.202  13.746  0.1905  0.0271 -0.0392
27171W        W42980  10.998   2.598   0.407  0.0217 -0.1433 -0.4389
27172W        W42981  15.052   7.096  13.609  0.2691  0.4723 -0.0054
27173W        W42982  14.844   5.843   0.695 -0.3637  0.0099 -0.2663
27174W        W42983   4.749   3.902  11.600  0.3494  0.3231  0.0084
27175W        W42984  13.946   9.135   5.466 -0.0449 -0.1857  0.0854
27176W        W42985   7.578  16.648   1.073  0.0329 -0.1505 -0.0693
27177W        W42986   1.056   9.661   4.183 -0.1326  0.0187 -0.1851
27178W        W42987   0.867  15.236   1.514  0.1982 -0.1894  0.0707
27179W        W42988   5.043   1.347   2.339 -0.0345  0.0636  0.0122
27180W        W42989  17.094   6.654   1.212 -0.0883 -0.0302 -0.2738
27181W        W42990  11.097   6.553  13.916 -0.2102 -0.0408 -0.3124
27182W        W42991  14.797  18.011   3.950  0.1187  0.2099 -0.1297
27183W        W42992  12.957  13.522   1.984  0.2165 -0.2667 -0.2000
27184W        W42993  14.971  11.204   0.566 -0.0147  0.5207 -0.1988
27185W        W42994   3.652  18.560  13.472  0.0235 -0.0398  0.1748
27186W        W42995   7.341   3.527  10.878 -0.3399  0.0653  0.0910
27187W        W42996  14.711  15.912   3.891 -0.0926  0.2965 -0.1676
27188W        W42997  18.390  13.567  12.852  0.1684  0.0524 -0.1699
27189W        W42998   7.445  15.649   5.048  0.1296 -0.3807 -0.3534
27190W        W42999   1.432   3.223   3.251  0.0945  0.0930  0.0731
27191W        W43000   1.212   9.566  11.754  0.1205 -0.0451  0.0145
27192W        W43001  11.472   0.567   2.465  0.0278 -0.2236  0.1100
27193W        W43002   3.992   3.794   3.960 -0.3627 -0.1443  0.4302
27194W        W43003   3.381  10.848   4.183  0.0125 -0.0977 -0.1291
27195W        W43004   2.375  11.943  12.228  0.0770  0.2379  0.0741
27196W        W43005  10.442  13.221  14.019  0.0711  0.0991 -0.1810
27197W        W43006   3.385   1.329  14.372  0.4064  0.0966 -0.1440
27198W        W43007   0.922  17.869  14.554  0.2456 -0.0131 -0.0374
27199W        W43008   7.905  17.320  13.096  0.2463 -0.4150  0.0273
27200W        W43009  10.206   4.748  11.801 -0.0469  0.3324 -0.2461
27201W        W43010  15.077   1.077   4.787 -0.0312  0.3124 -0.1324
27202W        W43011   2.726   7.236   1.382 -0.2025  0.0391  0.1906
27203W        W43012   0.999  16.762   1.376 -0.2463 -0.0019 -0.0737
27204W        W43013   5.119  10.643   4.507  0.1695 -0.0418  0.3165
27205W        W43014   5.975   6.632  11.066  0.3860  0.0329  0.0181
27206W        W43015   5.536   2.086   1.748 -0.2090 -0.1443  0.0126
27207W        W43016  14.261   8.894   3.479  0.2718  0.1726 -0.0113
27208W        W43017  17.597  13.117   0.138 -0.2134 -0.2082 -0.1349
27209W        W43018  13.440  14.491  14.390  0.1234  0.0172  0.1756
27210W        W43019  14.155   7.012  13.275 -0.0219 -0.1323  0.0824
27211W        W43020  10.520  12.732   2.273  0.0240  0.0394 -0.2182
27212W        W43021   2.428  11.748   3.929  0.1592 -0.3190 -0.1038
27213W        W43022   2.061   3.567   0.804  0.0654  0.0230 -0.2356
27214W        W43023  11.510  12.159  15.185  0.0475 -0.1347  0.1563
27215W        W43024   1.925   5.225   1.380  0.2176 -0.0229 -0.1039
27216W        W43025  14.598   0.256   4.680  0.0283  0.1350  0.1019
27217W        W43026  16.890  12.238   1.295  0.0818 -0.1534 -0.3357
27218W        W43027   8.543   6.768   9.694 -0.2603 -0.1100 -0.1892
27219W        W43028   5.163  14.725  14.912  0.1176 -0.1291 -0.0112
27220W        W43029  12.734  13.140  12.599  0.1952  0.0945  0.0300
27221W        W43030   8.870   0.946   0.370 -0.0644 -0.0311 -0.1244
27222W        W43031  13.683   5.994   1.710  0.3015 -0.0507 -0.0889
27223W        W43032   1.853   7.163  14.683 -0.3693  0.2692  0.1012
27224W        W43033   0.717  17.028   5.013 -0.1316 -0.0289  0.3121
27225W        W43034  17.822  14.490   6.244  0.1108  0.2947  0.0877
27226W        W43035   3.495   1.249   3.799 -0.2582 -0.0077  0.1121
27227W        W43036  14.935  17.790  12.195  0.1555 -0.1702 -0.1309
27228W        W43037   7.974  11.253   2.943 -0.0670 -0.0302 -0.1411
27229W        W43038  17.793  18.682  13.580 -0.0206 -0.2081 -0.1121
27230W        W43039   8.675  17.795  12.581  0.1296  0.0281  0.3984
27231W        W43040  10.568   0.861  12.395  0.0572 -0.1152 -0.0183
27232W        W43041  11.958  17.823   4.302  0.0300 -0.2521  0.1132
27233W        W43042  14.163   4.571  10.135  0.0615  0.3621 -0.0274
27234W        W43043  12.341  12.248  13.335 -0.0056  0.2598 -0.0165
27235W        W43044   4.410  13.100  13.933  0.2349  0.2195  0.1338
27236W        W43045   7.831   8.185  14.977 -0.2942 -0.2703 -0.3611
27237W        W43046   1.001   5.162   1.580 -0.3371 -0.0981 -0.0877
27238W        W43047  14.039   5.555  11.366 -0.1308  0.2554  0.3078
27239W        W43048  13.890  14.147   0.762 -0.0127 -0.2844 -0.0296
27240W        W43049   9.164   9.281   9.987 -0.1393 -0.1137  0.1239
27241W        W43050  14.463  18.189  11.230  0.2047  0.1346 -0.0543
27242W        W43051  11.831  14.345   3.866  0.1455 -0.0036 -0.3764
27243W        W43052  14.754  15.416  14.640 -0.0886 -0.0158  0.1588
27244W        W43053  17.050   1.173   3.224 -0.0304  0.4360  0.3895
27245W        W43054   3.181   8.056  10.383 -0.1519 -0.0116  0.0185
27246W        W43055  15.181  17.115  14.103  0.2318  0.1451 -0.2031
27247W        W43056   2.390   9.028   5.408  0.0313 -0.1703 -0.1326
27248W        W43057  18.218  13.097   1.787  0.1871 -0.3439  0.2728
27249W        W43058  12.440   6.250   9.901 -0.0023 -0.0965  0.1462
27250W        W43059  15.494  18.509   1.491  0.1399  0.3489  0.1282
27251W        W43060   3.750   9.828   3.944  0.2112  0.0826  0.0889
27252W        W43061  12.108   9.240   1.182  0.0740 -0.0038 -0.1926
27253W        W43062  11.229   6.643   9.766 -0.2201 -0.1879  0.0360
27254W        W43063   2.800   7.198  10.371 -0.1816 -0.0367  0.0844
27255W        W43064  15.314   8.860   4.152 -0.1284  0.0860 -0.1382
27256W        W43065   9.936   8.190   0.565 -0.0374 -0.2513 -0.3052
27257W        W43066  16.941   4.496  12.262  0.0050  0.0783  0.4822
27258W        W43067  16.123  12.276   1.744 -0.1977 -0.0204  0.0157
27259W        W43068   3.612   2.803  10.596 -0.2262  0.0056  0.1270
27260W        W43069   3.405   9.882  11.624 -0.0835  0.1514  0.2132
27261W        W43070   5.122  13.074  13.323  0.0622 -0.0949 -0.0535
27262W        W43071  11.427  12.202  12.014 -0.1664 -0.0465 -0.1867
27263W        W43072  18.601   2.666   4.941  0.0488 -0.0062 -0.1884
27264W        W43073   2.839   8.389  11.660 -0.1512 -0.0813 -0.1151
27265W        W43074   5.050  14.609  13.069  0.2243  0.0918  0.0880
27266W        W43075  14.536  12.828  11.522 -0.1359  0.0880  0.1097
27267W        W43076   7.469   2.698   4.562 -0.1475 -0.3233 -0.0154
27268W        W43077  18.751  18.130   1.797 -0.1653 -0.4381 -0.1416
27269W        W43078  17.029  16.062   1.931  0.0304 -0.1616  0.1573
27270W        W43079   8.546   0.146   1.801  0.0667  0.2013  0.1078
27271W        W43080  10.986  12.552   3.548  0.0010 -0.0692 -0.1492
27272W        W43081  10.314   1.419  14.520  0.2270 -0.2101  0.1775
27273W        W43082   8.474   4.315  13.255 -0.0332  0.1457  0.1325
27274W        W43083  14.663   2.848   2.314  0.0172 -0.0020  0.1399
27275W        W43084  17.883  11.806   0.446 -0.2935  0.0971  0.0567
27276W        W43085   3.198   6.918   3.793 -0.2534 -0.1176 -0.2324
27277W        W43086  12.871   5.495   5.995  0.2209  0.1574 -0.2520
27278W        W43087  17.461  12.608   3.001 -0.3043 -0.1055 -0.3205
27279W        W43088   8.401   6.550  13.032 -0.3177 -0.5431  0.0531
27280W        W43089   0.203   1.421  13.645  0.1872  0.0935  0.1155
27281W        W43090  14.547  18.288   1.046 -0.0270  0.0295  0.1874
27282W        W43091   7.916   0.974   4.167  0.1244 -0.0559  0.1313
27283W        W43092   7.960   4.982   3.839 -0.1653  0.1961 -0.1911
27284W        W43093   1.761  15.101   3.390  0.2211  0.2396 -0.0922
27285W        W43094  14.286  17.511   4.272 -0.1674 -0.1795  0.0950
27286W        W43095  15.648  16.303   1.852 -0.0432 -0.0388 -0.2274
27287W        W43096  11.202   9.485   4.066  0.2005 -0.2698 -0.0577
27288W        W43097   4.691  10.371  14.227  0.2068 -0.1800  0.3226
27289W        W43098   8.173  18.013   0.088  0.0347 -0.3361  0.2177
27290W        W43099   3.206  14.723  12.908 -0.2570  0.1047  0.0749
27291W        W43100   4.254   4.918   2.663  0.1395 -0.1517  0.2077
27292W        W43101   4.084  17.729   4.666  0.1521  0.1471  0.2683
27293W        W43102   5.173   2.566   0.114 -0.2954 -0.0784 -0.0234
27294W        W43103  17.820  18.929   1.284  0.1951 -0.2281 -0.2870
27295W        W43104  15.060  17.609   1.285 -0.2772 -0.0462  0.0327
27296W        W43105   7.527   2.408   9.308 -0.1810 -0.3159 -0.2598
27297W        W43106  17.790  10.010  11.418  0.0974  0.1660  0.3082
27298W        W43107   7.426  17.553  13.265  0.2276 -0.0892  0.0198
27299W        W43108  14.366  11.638   3.370  0.4408  0.1363 -0.2863
27300W        W43109  13.164  13.458  10.077  0.0214 -0.2156 -0.1404
27301W        W43110  14.529  12.697   3.112  0.2754 -0.0121  0.2898
27302W        W43111   2.850  16.861   4.784  0.1040 -0.3411  0.1342
27303W        W43112   5.991  17.729  10.289  0.1942  0.0653  0.3041
27304W        W43113   1.419   3.703  10.202 -0.1772 -0.0395  0.0260
27305W        W43114   6.347  16.670  10.298  0.2146  0.1947 -0.0395
27306W        W43115  10.548   9.978  11.815  0.1680  0.1356  0.1730
27307W        W43116   9.615   8.199  13.193 -0.0426  0.0816  0.1610
27308W        W43117  13.667   7.775   2.656  0.2737  0.0954  0.2945
27309W        W43118  14.425  10.218  13.426  0.0972 -0.3341  0.0082
27310W        W43119  15.013  17.790   2.603 -0.2752 -0.1353  0.3651
27311W        W43120  13.054  17.758  14.718 -0.0301  0.1504  0.0702
27312W        W43121  11.495  18.457  14.717  0.0954  0.1040 -0.0292
27313W        W43122   7.417   3.016   0.010  0.0897 -0.1141  0.1325
27314W        W43123   0.236  14.425   2.372  0.1101 -0.0418  0.2030
27315W        W43124   2.756   3.600  13.790  0.0633 -0.1447 -0.4611
27316W        W43125   7.452   7.849   4.270 -0.1054 -0.2512 -0.1072
27317W        W43126  16.904   9.921  14.335 -0.0705 -0.3489  0.0902
27318W        W43127  15.277  18.921   5.761 -0.1359  0.1315  0.0073
27319W        W43128   2.817  15.755  14.432 -0.3177 -0.2365  0.0692
27320W        W43129   4.609  16.075  12.869  0.1393 -0.1696  0.1347
27321W        W43130   6.196   9.284   4.282 -0.1738  0.1721 -0.0198
27322W        W43131   6.555   0.094  14.191 -0.3376 -0.1433  0.1666
27323W        W43132   9.306   3.995   3.786 -0.2127  0.2849 -0.4269
27324W        W43133   7.129   8.913   9.700 -0.2372  0.2573 -0.3782
27325W        W43134   5.044   1.577  11.762  0.0163  0.0577 -0.3594
27326W        W43135   7.212   9.052   4.359  0.3698  0.0462  0.2720
27327W        W43136   0.253   9.743   4.647  0.1372 -0.0791 -0.1412
27328W        W43137  10.090   5.955  14.182 -0.1571  0.2423 -0.4092
27329W        W43138   5.488  17.936  12.523 -0.1467  0.0459  0.0281
27330W        W43139  18.785   0.110   1.917  0.0197 -0.3980  0.1810
27331W        W43140  11.695  11.990   2.010 -0.1069 -0.3767  0.1296
27332W        W43141  16.961   5.662  12.901  0.1600 -0.1214  0.0944
27333W        W43142   2.570  10.495  13.802  0.0214  0.0696 -0.0127
27334W        W43143   0.993   3.110  13.189  0.0583  0.2441 -0.0470
27335W        W43144   6.120   7.730  12.905  0.2611 -0.0199  0.1798
27336W        W43145  13.511   8.570  14.296 -0.1472  0.3151 -0.0567
27337W        W43146   2.526   9.169  14.687 -0.0690 -0.0456 -0.5249
27338W        W43147  13.141   6.051   0.796  0.1768  0.0528 -0.1779
27339W        W43148  11.713  11.169   1.029  0.1107 -0.2056  0.2184
27340W        W43149   2.077   0.743  12.044  0.2362  0.0928  0.0946
27341W        W43150   0.981   1.451  11.882 -0.1872 -0.0392  0.1798
27342W        W43151   7.760  16.939   2.885  0.0807 -0.1536 -0.1113
27343W        W43152   8.757   7.994  14.739 -0.1075  0.0414  0.1083
27344W        W43153   4.006  16.247  14.131 -0.0560  0.1898 -0.2447
27345W        W43154   4.503   3.478  14.080 -0.1383  0.0068  0.2781
27346W        W43155  15.065   9.316  10.927 -0.0954  0.3345 -0.3194
27347W        W43156   5.911   2.584   9.614 -0.2495 -0.2306  0.3976
27348W        W43157  18.952  13.257   0.563 -0.0542  0.0537 -0.5121
27349W        W43158  15.514   0.380   2.674  0.2123  0.1816  0.1655
27350W        W43159   1.379  12.002   0.999  0.0293  0.0116  0.2496
27351W        W43160  18.270  16.739  11.425 -0.3960 -0.1013 -0.4611
27352W        W43161   8.089  12.986  14.258 -0.2429  0.2656 -0.0246
27353W        W43162   1.173  12.693  12.976 -0.0708 -0.0770 -0.1596
27354W        W43163   4.055   6.583  12.161  0.0101  0.1541 -0.0478
27355W        W43164  14.797  16.177  11.379 -0.0351  0.4026 -0.0171
27356W        W43165   3.202   0.275  11.094  0.1587  0.0685 -0.4843
27357W        W43166   2.081  11.159   2.921 -0.2202 -0.0611  0.0596
27358W        W43167   2.290  18.006  14.279  0.1827  0.2606  0.2765
27359W        W43168  15.193  15.431  11.144  0.3957  0.0626  0.0223
27360W        W43169   1.448  13.217  11.613  0.0778  0.0658 -0.1201
27361W        W43170  10.753   7.766  14.472 -0.0947 -0.0943 -0.2456
27362W        W43171  15.596   9.085   1.213  0.0611  0.0851 -0.2287
27363W        W43172   6.709  16.583  13.364  0.1530  0.3351 -0.2477
27364W        W43173  17.877   3.698  14.182  0.0876 -0.1313  0.4247
27365W        W43174  14.177  13.790  12.658 -0.0423 -0.0567  0.0343
27366W        W43175   3.956  10.839   3.290  0.1655 -0.0478 -0.0863
27367W        W43176   5.052   7.838   3.469 -0.0139  0.3312 -0.1071
27368W        W43177   6.035  16.347   3.642  0.1356  0.1737 -0.0400
27369W        W43178  12.915  11.948   4.965 -0.0461 -0.0747  0.1253
27370W        W43179  14.731  16.657   1.294  0.0674  0.0333 -0.3215
27371W        W43180   7.779   0.763  14.589  0.3418 -0.1155 -0.0585
27372W        W43181   8.349  18.161  12.834 -0.0060  0.1088 -0.4805
27373W        W43182   2.796   6.904  11.573  0.1156 -0.1269  0.2332
27374W        W43183  11.493  13.063   2.366 -0.3878  0.3703  0.0534
27375W        W43184   3.718   1.450   4.231 -0.1151  0.2301 -0.1750
27376W        W43185   8.716   0.172  10.287  0.0745  0.0226 -0.0427
27377W        W43186   6.785  17.043   1.659  0.1362 -0.2203  0.1489
27378W        W43187   2.276   9.838  10.709  0.1519 -0.0392 -0.1216
27379W        W43188   2.557   8.784  13.945 -0.1484  0.3486 -0.2493
27380W        W43189   7.554   2.218  11.151 -0.3626  0.0007 -0.0985
27381W        W43190  15.969  13.121  10.544 -0.2949 -0.3965 -0.1261
27382W        W43191   8.453   4.391   0.768 -0.0359 -0.2836  0.1795
27383W        W43192   5.580   5.728  13.954  0.3916 -0.0564  0.1262
27384W        W43193  13.155  12.708   0.013 -0.2639 -0.1544 -0.0310
27385W        W43194   9.922  17.032   3.929  0.0786  0.0178 -0.2412
27386W        W43195  11.384   5.216   5.127 -0.3072 -0.0911  0.0204
27387W        W43196   2.305   1.499  14.256  0.0727 -0.2575 -0.0438
27388W        W43197  16.529  14.146  11.208  0.1106  0.0243  0.0936
27389W        W43198  12.446  12.808   5.165 -0.0920  0.0803  0.1235
27390W        W43199  17.684  11.168   3.659 -0.0028  0.1982  0.1807
27391W        W43200  14.771   0.406   2.174  0.2971  0.1855  0.1187
27392W        W43201   4.382   1.893  12.338  0.1438 -0.0927  0.1856
27393W        W43202   8.917   8.367   9.443  0.2121 -0.1729 -0.1420
27394W        W43203   0.924  14.838   2.559  0.0483 -0.0556  0.2451
27395W        W43204   6.101  17.546  11.272 -0.0614 -0.0272 -0.0407
27396W        W43205   5.935  18.683   2.419 -0.0070  0.0441 -0.0167
27397W        W43206  18.903   3.026  15.178 -0.0719 -0.2227 -0.6754
27398W        W43207   9.795  11.456  15.137  0.3344 -0.0716 -0.2581
27399W        W43208   9.106   9.469   2.521  0.0769 -0.4023  0.4291
27400W        W43209   0.180   0.761  12.435 -0.0588 -0.0712 -0.3042
27401W        W43210  10.993  14.223  12.820  0.1324 -0.3310  0.2182
27402W        W43211   3.204   5.203   2.840 -0.2451 -0.0715 -0.0990
27403W        W43212   2.185   5.915   1.931 -0.2632 -0.0376  0.0904
27404W        W43213  18.809   0.927   5.937  0.3533 -0.1770  0.0198
27405W        W43214  18.950   2.267  15.092 -0.0880  0.2105 -0.3059
27406W        W43215   0.503   3.521  12.854 -0.0750  0.2521  0.3938
27407W        W43216   8.281  14.798   0.506  0.2015 -0.0066  0.0720
27408W        W43217   8.235   9.940   9.343 -0.1006  0.3270  0.3265
27409W        W43218  11.243  17.672   2.137 -0.2105 -0.0363  0.0722
27410W        W43219   8.821  16.380  12.133 -0.4160  0.1974  0.1178
27411W        W43220   2.833   7.489   3.404 -0.0502  0.1429  0.0832
27412W        W43221   5.878   3.851  14.319  0.0150  0.0100  0.1351
27413W        W43222   5.596  16.555   3.754  0.0520  0.1837 -0.1869
27414W        W43223   7.271   0.105   2.125  0.0490 -0.2941  0.1202
27415W        W43224  15.422   1.646   5.935 -0.2687  0.1332 -0.1397
27416W        W43225   7.106   8.605   4.495 -0.1022 -0.1436  0.1275
27417W        W43226  12.903  18.184   3.348  0.1421  0.1738 -0.1764
27418W        W43227   9.309  14.538   0.504 -0.3883 -0.0513 -0.1727
27419W        W43228   6.276   1.127  14.986  0.0234  0.0015  0.1075
27420W        W43229   8.484  18.906  14.201  0.3570  0.1927  0.1475
27421W        W43230  10.116   1.502  12.207 -0.0243  0.2652 -0.1025
27422W        W43231   6.557  18.617   4.378  0.0817  0.0950  0.0902
27423W        W43232   1.980  13.221  14.777  0.0806  0.0178 -0.2536
27424W        W43233  14.126  16.860  10.242 -0.0375 -0.1314  0.2455
27425W        W43234  13.056  10.558   3.167  0.0111 -0.1874  0.2389
27426W        W43235   4.810   1.583  10.813 -0.2577  0.3375  0.3795
27427W        W43236   5.854  15.574  12.970  0.1867 -0.0876  0.5743
27428W        W43237   2.167  10.239  14.037 -0.1326 -0.3033 -0.2384
27429W        W43238  17.091   9.676   3.573 -0.5034  0.1778  0.0035
27430W        W43239   6.981   2.821   9.993  0.1255 -0.2160 -0.5549
27431W        W43240  14.411   1.104  14.311  0.0973 -0.0223 -0.1276
27432W        W43241  14.607   4.658  13.292  0.0821 -0.0261  0.0948
27433W        W43242  10.123   2.993   3.906  0.0167 -0.2065 -0.1432
27434W        W43243  14.843   5.920  11.680  0.0978 -0.0528  0.1659
27435W        W43244  12.952   6.003  13.063 -0.1580  0.2417 -0.2681
27436W        W43245   0.068   4.892  12.786 -0.1305  0.0492 -0.0937
27437W        W43246   7.304   7.657   1.266  0.6294  0.1411 -0.3612
27438W        W43247   6.509   2.227   4.337  0.1237  0.1912  0.0146
27439W        W43248  16.157   4.914   2.867  0.2326 -0.0063  0.1461
27440W        W43249  14.318  13.041  14.524  0.0799 -0.0320 -0.3465
27441W        W43250  18.809   8.512   4.629 -0.1193  0.0944  0.1059
27442W        W43251   9.717  11.832   4.220 -0.0794  0.2555 -0.0293
27443W        W43252   3.614   8.117   4.899 -0.1662  0.4149  0.0537
27444W        W43253  10.208  12.667   1.833 -0.0131 -0.1615 -0.1180
27445W        W43254   2.018   4.696  13.111 -0.0060 -0.1594  0.1217
27446W        W43255  16.912   3.676  12.737 -0.0928  0.3287  0.0802
27447W        W43256   3.894  14.917  13.834 -0.3237  0.1284 -0.0277
27448W        W43257  11.909  11.380  13.683  0.1228 -0.0517 -0.3001
27449W        W43258   0.011  10.243  13.365 -0.4350  0.0456  0.1099
27450W        W43259  15.165   4.474   1.013 -0.2191 -0.1791 -0.2192
27451W        W43260  12.304   0.873  13.332 -0.0646  0.0822 -0.0352
27452W        W43261   1.580  11.715  12.075 -0.1423  0.2248 -0.1456
27453W        W43262   5.670   9.285  12.397 -0.1517  0.0551 -0.3524
27454W        W43263   2.165   0.529   3.954  0.1012 -0.0175  0.1926
27455W        W43264  14.516  17.596   0.139  0.2005  0.2728  0.1343
27456W        W43265  11.010   9.025   2.587  0.1807 -0.0412 -0.4429
27457W        W43266  10.512   8.524  10.673  0.0225 -0.0086  0.0703
27458W        W43267   7.558  14.244   3.803  0.1911 -0.1218  0.0520
27459W        W43268  11.071  11.710   5.437  0.1020 -0.1220  0.2134
27460W        W43269  15.204  13.453  12.027 -0.0128  0.2485  0.0175
27461W        W43270   9.064   7.698   1.538  0.0131 -0.0313  0.0071
27462W        W43271  18.237  10.896   4.272 -0.1270 -0.2103  0.0224
27463W        W43272  11.465   8.165   4.144 -0.1026  0.0527 -0.3784
27464W        W43273   1.866   8.363  15.104  0.1093 -0.1183 -0.2706
27465W        W43274  12.322   0.256   1.947 -0.2305 -0.3178 -0.2183
27466W        W43275   9.898  15.381   3.682 -0.0072 -0.0423  0.1197
27467W        W43276   2.026   9.877  12.668  0.3041 -0.0531 -0.0273
27468W        W43277   3.450  18.987  15.123 -0.0742  0.1693 -0.2201
27469W        W43278  15.926  13.435  13.736  0.0457  0.3182 -0.2103
27470W        W43279  17.617   9.155   5.007  0.1361 -0.1690 -0.0516
27471W        W43280  14.763  13.370   0.435 -0.2066  0.1552  0.1403
27472W        W43281  11.597   5.915   2.786 -0.4605 -0.0859 -0.1196
27473W        W43282   3.305  12.419   2.869  0.1946 -0.0715 -0.1598
27474W        W43283  18.043   6.392   6.246 -0.1458 -0.0776 -0.0237
27475W        W43284   2.930  17.953  11.578 -0.0299  0.0479 -0.1614
27476W        W43285   4.526   0.321  13.759  0.1876 -0.1254 -0.0981
27477W        W43286  14.478  18.277   2.045  0.0526 -0.0636  0.3915
27478W        W43287   7.885   2.683   4.205 -0.1351 -0.2693 -0.0144
27479W        W43288   7.366  13.930   3.399 -0.2647  0.2451 -0.0776
27480W        W43289   2.142  16.706   0.033 -0.0716  0.0923  0.1277
27481W        W43290   9.417  13.791  10.120 -0.1149 -0.1128 -0.1575
27482W        W43291   5.052  10.003  14.087  0.0720 -0.0323  0.1060
27483W        W43292   6.060  10.474   9.866  0.1300  0.3701  0.1018
27484W        W43293   5.804  16.867   3.403  0.0556  0.0148 -0.1759
27485W        W43294  12.482  11.239  15.193 -0.1224  0.1847 -0.0591
27486W        W43295   0.350   4.149   1.131  0.0592  0.0154  0.2491
27487W        W43296  11.882  16.630  14.285 -0.0066 -0.0731  0.0164
27488W        W43297   5.093   1.722  15.243 -0.0045  0.0188 -0.2049
27489W        W43298  11.038  10.855  14.132  0.0798  0.0850 -0.1292
27490W        W43299   5.150   8.914   2.128  0.0838 -0.1211  0.1586
27491W        W43300   3.939   3.703   2.046  0.1459 -0.2519  0.1667
27492W        W43301  17.095   7.853  14.054 -0.0680  0.0023 -0.0009
27493W        W43302  13.376  12.458   2.595  0.0276  0.1952 -0.1782
27494W        W43303  16.539   7.156   3.713  0.0659  0.0107 -0.1236
27495W        W43304  14.953  16.064   3.464 -0.0510  0.2991 -0.0364
27496W        W43305  14.432   5.325   0.944 -0.2962  0.0868  0.0111
27497W        W43306   4.145   3.178  14.401 -0.0146 -0.2672  0.0283
27498W        W43307   0.595   0.916  10.621  0.2702  0.4743  0.0847
27499W        W43308   3.630  10.815   2.715 -0.0035  0.0037  0.0214
27500W        W43309  13.115   1.918   5.596  0.3680 -0.2990  0.1870
27501W        W43310   8.988   9.268  12.159 -0.0536  0.0348 -0.0937
27502W        W43311   7.775   5.548  12.269 -0.1524  0.0626  0.0162
27503W        W43312  14.894  10.573   9.825 -0.0945 -0.1228  0.2080
27504W        W43313   5.270   3.559   2.974 -0.1253  0.2520  0.3168
27505W        W43314   9.789   7.049  12.075 -0.1469 -0.0944  0.0159
27506W        W43315   7.208   2.459  11.456  0.1426  0.0994  0.1937
27507W        W43316   7.302   1.552   5.184  0.1402  0.0261  0.0222
27508W        W43317  16.672   4.921  12.453  0.4461 -0.0956  0.1126
27509W        W43318  10.182  17.016  10.425  0.1229  0.0891  0.0085
27510W        W43319  13.713   4.375   3.985  0.2822  0.1726 -0.1531
27511W        W43320   5.478   0.226   0.952 -0.2009 -0.0586  0.1911
27512W        W43321  13.079   8.150   4.481  0.1448  0.3647  0.1848
27513W        W43322   1.460  16.521   1.219  0.0272  0.1254 -0.0655
27514W        W43323  15.882  14.241  12.820  0.0186  0.0534  0.0724
27515W        W43324  10.243  10.222  14.827  0.1059 -0.1176  0.2662
27516W        W43325  18.276  11.478   2.961  0.0698  0.0080  0.0115
27517W        W43326  11.798  11.838   2.593 -0.0044  0.1804 -0.0960
27518W        W43327   7.034  17.643   0.673  0.0668 -0.1764 -0.2960
27519W        W43328   2.667  13.265  13.775  0.0107 -0.2668  0.1132
27520W        W43329   5.510  10.447  11.012  0.2411 -0.0437  0.0466
27521W        W43330   7.332   9.229  14.453 -0.0126 -0.1127 -0.1404
27522W        W43331  16.675   1.347   0.994  0.1025  0.2642  0.0135
27523W        W43332  16.114  13.581   1.009  0.0154 -0.2062 -0.1393
27524W        W43333   5.071   5.684  10.902 -0.3106 -0.2283  0.0753
27525W        W43334  10.234  17.800  13.871 -0.0670 -0.4061 -0.1970
27526W        W43335   1.784   3.213  10.990 -0.0334  0.0156 -0.3403
27527W        W43336   6.300   7.773  13.427  0.0765 -0.1901  0.1321
27528W        W43337  17.838  18.730   1.791 -0.1618 -0.2660 -0.0847
27529W        W43338   8.518  11.130  14.874  0.0188  0.1690  0.0057
27530W        W43339   6.905   3.876  13.800 -0.0877 -0.4518  0.2578
27531W        W43340  18.311   6.491   4.545  0.0544  0.2365  0.3591
27532W        W43341  14.745  12.982   2.229  0.1842  0.1054  0.1616
27533W        W43342  11.018   1.457   5.462 -0.0526 -0.3073 -0.0637
27534W        W43343   6.923  11.158   1.904  0.2967 -0.0939  0.6016
27535W        W43344   0.498   9.922   4.160  0.2092 -0.3160  0.1408
27536W        W43345   4.736   6.075  13.483 -0.2279  0.2590 -0.2024
27537W        W43346   0.416  18.678   3.999 -0.4407 -0.0973 -0.1779
27538W        W43347  15.694   6.528   4.338 -0.0086 -0.2230 -0.1711
27539W        W43348  11.148   8.081   5.822  0.0117 -0.1727  0.1367
27540W        W43349  17.170  10.270  15.122 -0.0792  0.0101  0.1943
27541W        W43350   9.677   0.636   0.115 -0.1473 -0.2308  0.2740
27542W        W43351  11.072  15.694   4.417 -0.0159  0.0970  0.1185
27543W        W43352   7.316   3.926  11.233 -0.0364  0.2907  0.1239
27544W        W43353  15.705  14.408  13.850 -0.1415  0.0765  0.1189
27545W        W43354   5.649   2.268  11.993 -0.2150  0.0189  0.1452
27546W        W43355   6.827   8.201   4.624  0.0171 -0.2342 -0.0204
27547W        W43356   4.170   7.208  12.162  0.0704 -0.0954  0.2022
27548W        W43357  13.257   8.053   2.523  0.0168  0.2403  0.0686
27549W        W43358   7.256  16.743  12.794  0.1553 -0.1177 -0.3417
27550W        W43359  15.412  15.322  11.605 -0.0007  0.0676 -0.0401
27551W        W43360   1.777  13.019   3.429 -0.1803 -0.1850 -0.0807
27552W        W43361  18.001  14.576   1.109  0.3092 -0.0089  0.1009
27553W        W43362   5.918   4.901   2.451 -0.0407  0.0709 -0.3588
27554W        W43363   7.728   3.793  13.610  0.0146  0.1516 -0.0757
27555W        W43364   3.373  10.978  11.821 -0.4628  0.3384 -0.0812
27556W        W43365  13.791  18.767   2.233 -0.2073 -0.0729  0.0703
27557W        W43366  10.235  15.492  13.925  0.1109  0.2644 -0.1322
27558W        W43367   7.432  12.920  10.533  0.2364 -0.0595  0.0380
27559W        W43368   4.498  12.133   1.982 -0.0836  0.3294  0.1000
27560W        W43369   0.724   4.106   5.181 -0.0543  0.2080 -0.4024
27561W        W43370  11.987  12.356  12.385  0.1915  0.1681  0.3570
27562W        W43371  14.356   1.874   4.278 -0.1229 -0.3388 -0.1946
27563W        W43372  18.635  18.394   4.098 -0.1369  0.0429  0.0147
27564W        W43373  14.657   5.137   2.442 -0.2353  0.1483 -0.1967
27565W        W43374  10.128  18.055   2.851 -0.2763  0.0936  0.2007
27566W        W43375  18.554   8.792  12.475  0.0356  0.0698  0.2085
27567W        W43376   2.949  16.446   3.550 -0.3645  0.2256  0.0258
27568W        W43377   4.275  14.860  10.551 -0.2481 -0.1598 -0.1622
27569W        W43378   2.529   6.206  12.665  0.0303  0.0363 -0.2113
27570W        W43379   2.202  10.183  14.880  0.0758 -0.0845 -0.1698
27571W        W43380  13.374  14.780  12.509  0.3385 -0.2695  0.2522
27572W        W43381  14.906  17.907  15.170  0.1946  0.0707  0.2223
27573W        W43382   5.266   2.919   0.484 -0.0360  0.1483 -0.2237
27574W        W43383  11.996   1.842  11.617  0.3311  0.0750  0.0433
27575W        W43384   9.372  15.034  12.377  0.1068  0.3034  0.1952
27576W        W43385   5.521  15.389   3.885 -0.1134  0.1360 -0.0259
27577W        W43386   5.344   5.848   5.742  0.0694 -0.3260 -0.2059
27578W        W43387   2.564   9.242  13.672  0.0583  0.3115 -0.1589
27579W        W43388  11.475  14.448  15.167 -0.0832 -0.0317  0.2650
27580W        W43389  10.878  16.629   2.543 -0.2511 -0.4175 -0.0434
27581W        W43390   5.969  17.098  12.491  0.1746  0.1786 -0.0984
27582W        W43391   3.206  16.356  12.468 -0.0386  0.1581  0.2886
27583W        W43392   1.302  18.848  14.628 -0.0330  0.0829  0.1958
27584W        W43393  13.208   5.779   4.831 -0.2235 -0.1892 -0.0550
27585W        W43394   1.008   6.708   0.133  0.0843 -0.0255  0.0902
27586W        W43395   5.884  10.746  10.702 -0.1824  0.0311 -0.0628
27587W        W43396  11.775  12.136   0.820 -0.0742  0.0247 -0.1578
27588W        W43397   8.225   8.320  14.423  0.0687  0.2631  0.2162
27589W        W43398  12.398   0.149   0.795 -0.3826  0.1368  0.0069
27590W        W43399   2.380  15.013   9.933  0.6970 -0.2104  0.2664
27591W        W43400   5.356   7.184  13.015 -0.2393  0.3610 -0.1515
27592W        W43401   9.472   6.794  14.041  0.3889 -0.1441 -0.1263
27593W        W43402  11.621   4.970   4.756 -0.3104 -0.0354 -0.0275
27594W        W43403   7.867  17.487  14.315  0.2025  0.2064  0.0276
27595W        W43404   2.677   6.709   3.613 -0.3367 -0.0487 -0.0537
27596W        W43405  17.904   7.524   4.296 -0.0098  0.0229  0.1347
27597W        W43406   1.272  17.034   3.608 -0.0335 -0.0829  0.0372
27598W        W43407  12.449   8.204  15.128  0.1497  0.2694 -0.2944
27599W        W43408  15.302  16.341  12.190 -0.0584  0.0859  0.0918
27600W        W43409   8.239  14.300  11.174  0.0288  0.1640  0.1343
27601W        W43410   2.030  11.234   5.512  0.0653  0.1343  0.0073
27602W        W43411   4.151   3.900  15.054 -0.1131 -0.1535 -0.4738
27603W        W43412  16.602   2.442   1.256  0.1775 -0.2550  0.2415
27604W        W43413  15.504   0.914   0.561  0.0749  0.3342  0.1084
27605W        W43414  12.796   9.264  12.468 -0.0880  0.0875  0.2335
27606W        W43415  11.965   0.785   5.255 -0.0759 -0.1880  0.0108
27607W        W43416   6.754   2.081  10.390 -0.0095 -0.0910  0.2075
27608W        W43417   5.465   0.754  11.064  0.0450 -0.2059  0.1407
27609W        W43418  10.753   3.361   3.918 -0.1340 -0.2211  0.1295
27610W        W43419  15.799  18.711  12.127  0.1703  0.2209  0.1184
27611W        W43420   5.290  17.791  12.021 -0.1831  0.1778  0.2269
27612W        W43421  15.864  15.379   3.260  0.0786 -0.3079 -0.2100
27613W        W43422   3.786   8.066  13.861  0.1504  0.0288 -0.1023
27614W        W43423  17.598   0.853   1.341 -0.2897  0.0424 -0.4559
27615W        W43424  13.734   9.328   2.238 -0.0594 -0.0823 -0.1871
27616W        W43425  16.529  12.486  14.761  0.0945 -0.0333  0.0918
27617W        W43426  10.886   2.336   3.829 -0.1354  0.0265 -0.2452
27618W        W43427  14.100  13.188  11.702 -0.0952  0.1709  0.0803
27619W        W43428  17.986  18.554   2.923  0.0718  0.1070 -0.1551
27620W        W43429  18.072  11.796   4.147  0.1632 -0.0435  0.2923
27621W        W43430   0.748   0.219   0.129 -0.0900 -0.1731  0.0259
27622W        W43431   2.404   1.050   9.371  0.0714  0.1506 -0.0591
27623W        W43432   8.992   6.561  11.625  0.1689  0.0356  0.0550
27624W        W43433  11.607   8.280   3.587 -0.0270  0.0443  0.1400
27625W        W43434  11.430  14.731   5.256 -0.1630 -0.1505  0.5418
27626W        W43435   4.892   8.300   4.484 -0.1611  0.2686  0.3709
27627W        W43436   8.456  17.756  15.089  0.1276  0.1462 -0.1832
27628W        W43437   5.967  16.658   0.653  0.0003  0.1955  0.1539
27629W        W43438   7.880  15.015  11.844  0.3044 -0.0334 -0.0028
27630W        W43439   3.474  16.066   2.315 -0.0949 -0.0389  0.0074
27631W        W43440   1.609  11.068  14.065 -0.0579 -0.1452 -0.1116
27632W        W43441   5.439  17.115   4.749  0.0214 -0.2027  0.2610
27633W        W43442  13.296   1.863  10.927 -0.0840 -0.2524  0.1465
27634W        W43443  15.179  12.959   5.054  0.0885 -0.3960 -0.0794
27635W        W43444   7.060   9.129  10.567 -0.3285 -0.2002 -0.1672
27636W        W43445  18.379   6.697   1.708  0.0224  0.0688  0.3066
27637W        W43446   7.258  14.600   2.843 -0.0561  0.1065  0.2294
27638W        W43447   3.100  12.259  12.796 -0.4754  0.1715  0.1185
27639W        W43448   4.643   6.525   5.203 -0.1070 -0.1009  0.0577
27640W        W43449   5.165   9.601  12.482 -0.1376  0.3182  0.0656
27641W        W43450   5.167  17.591   0.375  0.0863  0.2004 -0.0512
27642W        W43451  17.717   9.058  12.025  0.0583 -0.0009  0.0738
27643W        W43452   4.775  14.414   1.507 -0.0164  0.3401  0.1210
27644W        W43453   5.302  10.365  13.374  0.0045 -0.0920 -0.0369
27645W        W43454  14.572  12.554  12.101  0.2447  0.1669  0.0568
27646W        W43455  14.120   9.093  12.759 -0.2080  0.1508 -0.0179
27647W        W43456   5.961   7.458   0.717 -0.1936 -0.1054  0.2515
27648W        W43457  13.026  16.513   4.993 -0.1204  0.3641  0.1452
27649W        W43458  13.833   4.644   1.899 -0.1619 -0.4136  0.1958
27650W        W43459   4.950  18.933   2.373  0.0513 -0.0918  0.0819
27651W        W43460   1.867  14.686  11.475 -0.2672  0.0587 -0.0061
27652W        W43461  11.897  17.772  11.667  0.0148  0.1888  0.1554
27653W        W43462   8.555   1.380  12.648  0.0854  0.2787  0.0502
27654W        W43463  15.007  15.769   4.337  0.0933 -0.2852  0.0104
27655W        W43464   6.268  16.909   3.594 -0.1388  0.2839 -0.1735
27656W        W43465  13.408   4.848  14.611 -0.3439 -0.1766 -0.2656
27657W        W43466   9.298   7.745  13.902 -0.0244  0.1980 -0.1381
27658W        W43467  17.254  19.016   4.317 -0.0497  0.1112 -0.0759
27659W        W43468   2.769   8.821   4.548 -0.2218 -0.0307 -0.3059
27660W        W43469   8.055  13.956  11.554  0.0779 -0.1663 -0.2200
27661W        W43470   6.678  10.673  14.729 -0.1671 -0.1482  0.0452
27662W        W43471  16.666   7.825   5.927 -0.1241 -0.3631 -0.3656
27663W        W43472   5.147  14.207   3.167 -0.2454  0.1527 -0.0430
27664W        W43473   4.183  15.802  12.198 -0.0785  0.0746  0.3897
27665W        W43474   2.502   4.048  13.925  0.0116 -0.1462  0.1753
27666W        W43475   9.661   4.857  10.591 -0.1407 -0.0162  0.1851
27667W        W43476   4.209   3.959  11.401 -0.2075 -0.2014 -0.1202
27668W        W43477   6.351  15.474   3.671 -0.1033  0.3449  0.2016
27669W        W43478   8.541   6.436   0.183  0.2548 -0.2064  0.1782
27670W        W43479  17.896  18.290  12.672 -0.1098  0.2822  0.0483
27671W        W43480   6.161   2.727   0.787  0.0835 -0.1022  0.1305
27672W        W43481   1.760  14.324   2.705 -0.2055 -0.3527  0.0959
27673W        W43482   8.255  14.524  12.839  0.3996  0.1961 -0.0769
27674W        W43483   2.613   3.322  11.271  0.3165  0.0274 -0.2263
27675W        W43484   4.233  16.879   2.563 -0.1923  0.1179  0.0983
27676W        W43485  17.697   6.890   5.649  0.2172 -0.0019 -0.1839
27677W        W43486  16.730   2.089   3.783  0.1297 -0.4908 -0.1160
27678W        W43487  19.007  11.525   3.410 -0.1263  0.0443 -0.1988
27679W        W43488   6.135   1.389  11.556 -0.1053 -0.3768 -0.0743
27680W        W43489   6.834  12.888  12.673 -0.2073 -0.5026 -0.2872
27681W        W43490  12.285  10.368  11.296  0.1544 -0.1588 -0.0752
27682W        W43491  12.817  15.756   2.875 -0.0381 -0.1728  0.3252
27683W        W43492   8.108   7.364  14.802 -0.0214  0.4187 -0.3830
27684W        W43493  12.045  13.991   1.783 -0.1232  0.1922 -0.0878
27685W        W43494  14.095   8.321  10.964 -0.3103 -0.0823 -0.2901
27686W        W43495   1.491   7.827  12.590 -0.1913 -0.0763  0.0382
27687W        W43496   6.304   2.905  12.922  0.0653 -0.0830 -0.1318
27688W        W43497  15.383  18.888   3.156 -0.3428 -0.0137  0.4683
27689W        W43498   3.384  14.533  13.805  0.0703  0.3581 -0.0612
27690W        W43499   9.307   0.746   0.550  0.1386  0.2048  0.2256
27691W        W43500  15.774  18.982   4.758  0.2608  0.3735  0.2045
27692W        W43501  12.140  16.184   0.792 -0.0287 -0.2555 -0.0575
27693W        W43502   1.628   2.869   1.461 -0.1069 -0.1201 -0.5106
27694W        W43503   1.363   7.128  14.455  0.0374 -0.1307 -0.0427
27695W        W43504   0.225  18.885  12.765 -0.1392  0.0021 -0.0838
27696W        W43505  13.253   7.199  13.715  0.4093  0.1539 -0.0544
27697W        W43506   7.410   5.963  12.311 -0.2124 -0.0999  0.0172
27698W        W43507   8.091   0.511  10.926  0.5538 -0.3904  0.0496
27699W        W43508   4.687  13.974  14.635 -0.0194  0.0974 -0.0859
27700W        W43509   2.224  11.303   2.445 -0.1212  0.1521  0.1458
27701W        W43510  16.404  18.012  11.806  0.0793  0.1139 -0.1079
27702W        W43511   4.202  11.513  13.928  0.1196  0.1522  0.1607
27703W        W43512  16.647  17.024  12.032 -0.1649  0.1347 -0.1799
27704W        W43513   0.904   2.453   1.748 -0.0434  0.0279 -0.0771
27705W        W43514   2.078  15.763  13.079 -0.5028  0.0655 -0.2922
27706W        W43515   9.682   4.261  12.112 -0.3040  0.1869 -0.4317
27707W        W43516   9.180   8.835   3.528 -0.0989 -0.1651  0.3754
27708W        W43517  16.381  18.337   3.306 -0.0760  0.3500  0.0498
27709W        W43518  11.180   8.014   2.212 -0.0516  0.2778 -0.1871
27710W        W43519  17.650  11.295  12.954  0.0221  0.0243  0.1652
27711W        W43520   9.232  18.689   1.341 -0.0225 -0.3117  0.2276
27712W        W43521  13.406   1.118  11.243 -0.1265  0.0487 -0.1721
27713W        W43522  17.385  14.915   0.135 -0.2021 -0.1992  0.1215
27714W        W43523   5.206   6.493  15.071  0.0873  0.0486  0.1439
27715W        W43524   5.659  17.443   0.066  0.2173  0.0083  0.2484
27716W        W43525  10.735   8.259   2.169  0.6740  0.1969  0.2916
27717W        W43526  12.675   9.592   3.073 -0.1299  0.2469 -0.0719
27718W        W43527   1.062  15.106   0.873 -0.1527  0.2522  0.0459
27719W        W43528   6.625   3.265   1.402 -0.0122  0.1286 -0.2391
27720W        W43529  15.107  17.062  15.221 -0.0134 -0.3344  0.0401
27721W        W43530  17.810  13.255  14.326 -0.0935  0.1735  0.1292
27722W        W43531   2.759   5.153  13.314  0.1342  0.1076  0.0492
27723W        W43532   3.781   7.216  11.405  0.0420  0.2571 -0.2465
27724W        W43533   9.225  19.020  10.504 -0.0464 -0.0492 -0.0105
27725W        W43534  16.627  15.155   5.220 -0.4817  0.1705  0.2001
27726W        W43535  14.741   4.399   0.555 -0.2004 -0.2719  0.0173
27727W        W43536   4.290  10.506   3.971  0.0296 -0.0823  0.2844
27728W        W43537  18.497  10.484   4.029  0.1661  0.6568  0.1455
27729W        W43538   2.185   8.705   3.105 -0.0738  0.2387 -0.1803
27730W        W43539   0.324   9.912   2.007  0.0584 -0.0905 -0.0902
27731W        W43540   3.469   0.360  13.741  0.0835  0.0310 -0.0708
27732W        W43541  15.239   7.874   4.735  0.0387  0.0344  0.2005
27733W        W43542   2.045   4.044   3.816  0.0603  0.0972 -0.1310
27734W        W43543  13.624   5.303  13.088  0.0613  0.1547 -0.1376
27735W        W43544   7.701   2.490  13.262  0.2245 -0.1789 -0.2861
27736W        W43545   9.217  11.338   9.460  0.1046 -0.4321 -0.2419
27737W        W43546  17.661   2.818  10.663  0.0922  0.0289  0.1768
27738W        W43547   8.764   6.883   2.640 -0.1038  0.0010  0.1144
27739W        W43548   5.181   9.083   3.933  0.0422 -0.1257  0.1204
27740W        W43549   6.458   4.079  14.984 -0.0720 -0.2360 -0.0303
27741W        W43550  17.249   9.394  11.801 -0.1334 -0.2221 -0.4199
27742W        W43551   8.620  15.034   3.653 -0.0820  0.1384  0.0169
27743W        W43552   5.122  14.740  14.380  0.2056 -0.1185  0.0599
27744W        W43553   3.336   5.023  11.578  0.3056  0.1989  0.0011
27745W        W43554   4.384  10.896   2.615 -0.2311 -0.0893  0.3229
27746W        W43555   7.868  10.259  13.289 -0.0574 -0.2284 -0.2254
27747W        W43556  10.056   3.797   1.629 -0.0574  0.2864  0.3444
27748W        W43557   9.330   7.081   4.367  0.1194 -0.1011 -0.0349
27749W        W43558   5.692  11.689   0.719 -0.1644  0.4185 -0.4038
27750W        W43559   4.540  18.887  11.395 -0.0508 -0.2841  0.2921
27751W        W43560  12.738  14.577  12.547 -0.3310  0.0678 -0.2104
27752W        W43561  15.767   4.666  14.324 -0.2235  0.3976 -0.1457
27753W        W43562   3.004   5.099   0.648 -0.0739 -0.0493  0.2673
27754W        W43563  17.582   1.063   3.178  0.0577  0.0920 -0.5526
27755W        W43564   1.645   4.784   4.340  0.2148  0.0994 -0.1523
27756W        W43565  15.478  10.186   4.206  0.0835  0.1843 -0.0118
27757W        W43566  18.159  15.423   6.143  0.0021 -0.0953  0.0563
27758W        W43567   3.618   2.077   4.435  0.2549  0.3724 -0.6294
27759W        W43568   9.047  10.935  11.947  0.0344  0.2528  0.0899
27760W        W43569  13.228   4.323   0.414  0.1328  0.3016 -0.0267
27761W        W43570   7.645   3.638   3.715  0.0005  0.0729 -0.2294
27762W        W43571   9.962   6.152  12.311  0.1005  0.2574  0.0912
27763W        W43572  16.111  11.244   2.162 -0.0293 -0.2824 -0.3676
27764W        W43573   2.200  18.402  11.441 -0.0536 -0.0064  0.0402
27765W        W43574  15.737   5.486  11.504  0.0719 -0.0865  0.3774
27766W        W43575   3.601  11.272   2.075  0.2317 -0.3610  0.2039
27767W        W43576  18.443   3.837   1.411  0.1378 -0.2968 -0.1127
27768W        W43577  13.774   0.003  12.652  0.0388 -0.1680  0.1958
27769W        W43578   2.393  13.303   4.882 -0.0338  0.0423 -0.0257
27770W        W43579   6.561   9.117   0.570 -0.0499  0.0865  0.2931
27771W        W43580   7.146  15.048   1.284 -0.1757 -0.3445  0.1033
27772W        W43581  12.081   6.304   0.611 -0.2015  0.0473 -0.1087
27773W        W43582   9.730   2.462   1.596  0.1125 -0.0151  0.1918
27774W        W43583  17.327  17.266  13.537  0.0988 -0.0982 -0.1404
27775W        W43584   7.403   0.850  15.085 -0.2445  0.1018  0.0407
27776W        W43585  14.622   9.716   0.428  0.0675 -0.1623 -0.5233
27777W        W43586   3.295   9.144   2.854  0.0348 -0.4840 -0.0793
27778W        W43587   6.828   4.856  14.874 -0.2853  0.0533 -0.0565
27779W        W43588   7.403   0.983   2.933 -0.0385  0.0037  0.1090
27780W        W43589   7.173   0.676  13.297  0.0414 -0.0541  0.0571
27781W        W43590  17.763   2.008   0.653 -0.0715  0.1311 -0.1238
27782W        W43591  13.017  14.238  14.239 -0.0064  0.1193  0.0905
27783W        W43592   3.642  13.058  13.717  0.1193 -0.1157  0.2512
27784W        W43593   6.861   5.716   1.644 -0.0720  0.2085  0.1092
27785W        W43594   0.818  17.327   1.227 -0.0602 -0.0668  0.1368
27786W        W43595  11.408   4.600  13.090 -0.4030  0.2054 -0.1437
27787W        W43596  14.495  12.782  14.153  0.0275  0.3086 -0.0333
27788W        W43597   8.031  12.006  11.066  0.1365 -0.0756 -0.4256
27789W        W43598   7.254   1.670  11.086 -0.2691  0.0498 -0.0895
27790W        W43599   9.546   6.492   1.953  0.0420  0.0892  0.1021
27791W        W43600   9.829   7.520  12.771  0.1284 -0.0926  0.0374
27792W        W43601   1.315   9.575  12.250  0.4127  0.2470 -0.1025
27793W        W43602   7.622   8.593   2.309 -0.3363  0.1206  0.2487
27794W        W43603  16.345   5.055  12.109  0.3144  0.0938 -0.2445
27795W        W43604  17.975   0.110   3.586  0.1333 -0.0006 -0.0290
27796W        W43605   2.519  10.807  14.514  0.5596  0.2067  0.1048
27797W        W43606   8.784   5.618  12.047  0.2161  0.2547 -0.1392
27798W        W43607   1.667   9.516  12.594  0.1285  0.0900  0.1193
27799W        W43608   1.914  13.780   1.228  0.4105  0.1749 -0.0876
27800W        W43609   7.217  16.793  10.042  0.1120 -0.1721 -0.2078
27801W        W43610   0.646   1.054  12.325  0.1991  0.1638 -0.2608
27802W        W43611   9.816  12.809  11.631 -0.2546  0.0417 -0.0727
27803W        W43612  14.863  13.351  13.344  0.2218 -0.1468  0.0161
27804W        W43613  18.890  18.280  10.843 -0.0964  0.3095 -0.0815
27805W        W43614  14.075  15.624   2.435 -0.1049 -0.2748 -0.3813
27806W        W43615   4.451   3.957   2.660  0.1036  0.1952  0.2151
27807W        W43616  13.648   2.566   5.306 -0.0720 -0.1771 -0.0215
27808W        W43617  15.888   1.030   0.020 -0.0911  0.1278  0.0991
27809W        W43618   1.996  15.084   4.409 -0.0901 -0.1654  0.1951
27810W        W43619   3.033  12.617   5.374 -0.1905  0.1142 -0.1952
27811W        W43620   5.963  14.658  10.942  0.3697  0.2493  0.0667
27812W        W43621   0.669  11.132  13.909 -0.4525 -0.3136  0.2552
27813W        W43622  11.288   2.031   3.753 -0.0086 -0.0947  0.0507
27814W        W43623   0.875  12.514  12.615  0.0461  0.1327  0.1886
27815W        W43624  11.692  16.346  11.687 -0.1947  0.0897  0.1349
27816W        W43625  12.969   5.518  14.974 -0.1097  0.2877  0.0983
27817W        W43626   3.449   9.926   2.297  0.1159 -0.1782 -0.2076
27818W        W43627  17.531   3.114   5.129  0.0953 -0.1014  0.0854
27819W        W43628   7.496   8.160   0.620 -0.0823  0.1942  0.0436
27820W        W43629  13.343  15.970   1.995 -0.1263 -0.1170 -0.1396
27821W        W43630   0.653  17.709  10.834 -0.2248  0.0153 -0.0332
27822W        W43631   8.808  12.026   1.644 -0.0191  0.1997 -0.1520
27823W        W43632  14.085   9.551  10.869  0.1851 -0.0685 -0.3696
27824W        W43633   1.088   1.834   2.388  0.2562 -0.1247 -0.0950
27825W        W43634  11.894  14.846  10.497  0.1867 -0.1185  0.0927
27826W        W43635  14.641   8.855   1.992  0.0820  0.0325  0.0702
27827W        W43636   8.486  16.186  11.171  0.0694 -0.1165  0.0906
27828W        W43637  16.254   7.717  14.523  0.3294  0.0753 -0.1237
27829W        W43638   1.783  17.875  11.590 -0.1112  0.0334  0.0996
27830W        W43639   2.533   8.212  13.498  0.1287 -0.0076 -0.2502
27831W        W43640  15.029  15.852  12.330  0.0172  0.0375 -0.2272
27832W        W43641   0.817  16.693  13.843 -0.1296 -0.0711  0.1168
27833W        W43642  14.203   7.777  13.835  0.5011 -0.0772 -0.2136
27834W        W43643  13.396  14.881   1.825  0.0778 -0.2623  0.1862
27835W        W43644   3.848  13.549   4.037 -0.0381  0.2541 -0.3345
27836W        W43645  17.297  17.682   5.325 -0.1458  0.0318  0.1353
27837W        W43646   3.685   7.024  12.448 -0.0634  0.1113 -0.0252
27838W        W43647   2.293  10.256  12.389  0.1266  0.0956 -0.0389
27839W        W43648  11.345  12.862   0.528 -0.1118 -0.1526  0.1499
27840W        W43649  18.015   4.579  11.993 -0.0396 -0.2189  0.3481
27841W        W43650  13.101  13.153   0.334  0.0448  0.3298 -0.2788
27842W        W43651  14.551   7.662   5.598  0.1177  0.0956 -0.2494
27843W        W43652   3.173  11.683  10.083  0.1286 -0.0276 -0.1689
27844W        W43653  13.488  13.476  13.396  0.1540 -0.3095  0.0599
27845W        W43654   8.438  18.965   3.857 -0.1148  0.0366  0.2274
27846W        W43655   4.177  18.366  14.153  0.0645 -0.1259 -0.2509
27847W        W43656  15.117  17.417   0.334  0.0179  0.3383 -0.2742
27848W        W43657  14.739  17.922  12.628  0.0498  0.0230  0.0024
27849W        W43658   4.293   7.565   3.998 -0.1440  0.0717  0.0005
27850W        W43659  11.648   9.397   1.244 -0.1178 -0.1174 -0.2719
27851W        W43660   0.064  16.750   1.080  0.3229  0.3344  0.0644
27852W        W43661   9.565  12.342  10.261  0.2770 -0.0477 -0.5128
27853W        W43662  10.970  10.552   2.193  0.0523 -0.0382 -0.2012
27854W        W43663   0.397  15.910   3.825 -0.4174 -0.0902 -0.0764
27855W        W43664  14.427   4.313   0.940 -0.2339  0.3306  0.1812
27856W        W43665   3.738   4.412   4.039 -0.2889  0.1279 -0.0559
27857W        W43666  17.689   8.480   3.374  0.1099  0.0366  0.1678
27858W        W43667   4.451  16.011  14.684 -0.0584  0.1702  0.2583
27859W        W43668  12.503  15.718   4.126 -0.3665  0.0728 -0.1082
27860W        W43669   7.781   7.347  10.512 -0.0117  0.0853 -0.2050
27861W        W43670   5.491   8.940   2.818  0.0237 -0.0259  0.3825
27862W        W43671   2.260   8.967  11.806  0.1583  0.1108  0.1409
27863W        W43672   7.393  18.994   0.404 -0.1761 -0.1078  0.4656
27864W        W43673   3.765  11.423   4.353  0.1880 -0.2310  0.1977
27865W        W43674   2.887  18.947  10.732 -0.0155 -0.2159 -0.2465
27866W        W43675  12.387  16.732   2.541  0.0583 -0.0350  0.4523
27867W        W43676   1.204   3.817   0.740  0.0058  0.1496 -0.0139
27868W        W43677   7.931  17.203  14.820 -0.2071  0.2114 -0.0009
27869W        W43678   0.769   2.451   4.873 -0.2304 -0.2527  0.5114
27870W        W43679  13.932   1.546  12.275  0.0439  0.1188 -0.0694
27871W        W43680   7.190  14.603  13.426 -0.0658 -0.4318 -0.1015
27872W        W43681   9.251   3.172   2.687 -0.1567  0.0844  0.4187
27873W        W43682   5.957   1.018   2.821 -0.1118 -0.0250 -0.3117
27874W        W43683  16.085   2.860  10.563 -0.0962 -0.0032 -0.3117
27875W        W43684  10.162   7.737   1.190  0.0492 -0.0105  0.0076
27876W        W43685  11.226   2.596   4.592 -0.1347  0.0756 -0.1376
27877W        W43686   3.644  17.793  14.580  0.2680  0.2466 -0.0049
27878W        W43687   6.882   9.009  14.258 -0.0888  0.1569 -0.1287
27879W        W43688  16.436   5.847  10.631  0.0134  0.0872  0.0733
27880W        W43689   5.178   7.509   1.166  0.1993 -0.0973 -0.2327
27881W        W43690  13.245   8.457  13.301  0.0203  0.1967 -0.1010
27882W        W43691   3.826  14.735   0.253 -0.0877 -0.0171 -0.1996
27883W        W43692  12.675   2.670   4.543  0.0348  0.2242  0.0196
27884W        W43693  12.957   0.454  13.995 -0.4021  0.2404 -0.0034
27885W        W43694   4.211  12.500   2.894  0.0622  0.0470 -0.2031
27886W        W43695  15.434  12.658  10.835 -0.3125 -0.1612  0.1172
27887W        W43696  18.680   0.285   4.509 -0.0595  0.0972  0.0608
27888W        W43697  18.327   2.779   2.285 -0.0977  0.1876 -0.0523
27889W        W43698  12.757  16.358  14.177  0.0201  0.4453  0.1127
27890W        W43699   8.754  13.524  10.477 -0.1715  0.3753 -0.1716
27891W        W43700   3.784   8.189   0.188 -0.1735  0.1373 -0.3048
27892W        W43701  10.591   0.110   1.398  0.0836  0.1268  0.2199
27893W        W43702  17.223   1.381   2.793  0.1387 -0.4001 -0.2468
27894W        W43703  16.365   8.885   1.655  0.0255 -0.0031  0.2014
27895W        W43704  13.225  14.437   0.472  0.3616 -0.1532  0.3683
27896W        W43705  13.121   4.256  11.802 -0.1275  0.0030  0.1204
27897W        W43706   8.920  10.579  13.464 -0.0392  0.2016  0.0115
27898W        W43707   4.355   7.071   2.816 -0.0896  0.0196  0.1325
27899W        W43708  17.405  17.514  12.273 -0.3511  0.1830 -0.1682
27900W        W43709  10.937  14.434   0.709 -0.3750  0.0601 -0.3437
27901W        W43710   8.969   4.409  13.060 -0.0532  0.1034  0.0995
27902W        W43711  17.030  17.635   3.766 -0.2540 -0.2353  0.3228
27903W        W43712   3.499   8.570   0.452 -0.3027  0.2144 -0.3089
27904W        W43713  10.467  10.559  13.325  0.1232  0.0061  0.1026
27905W        W43714   0.459  13.361   3.242 -0.1296  0.1830  0.0501
27906W        W43715  14.880  14.011   1.586 -0.1784 -0.2892  0.0101
27907W        W43716   0.955   1.589  13.330  0.4203  0.1304 -0.0155
27908W        W43717  13.235   9.462  13.262 -0.0496 -0.1227 -0.3629
27909W        W43718   1.318   5.364  10.952  0.1550  0.0896 -0.1120
27910W        W43719   1.560   9.994  11.676 -0.2411  0.0675  0.2125
27911W        W43720   9.126  17.240   4.653 -0.1601 -0.4197 -0.2866
27912W        W43721   9.925   1.794   5.326  0.2507  0.1331 -0.0577
27913W        W43722  14.361  17.424   3.239 -0.0237  0.0595 -0.1363
27914W        W43723   0.881  10.681   1.974 -0.0448  0.0378 -0.1394
27915W        W43724   2.805  14.868   0.743 -0.2541  0.0287  0.2807
27916W        W43725   6.670   6.972   3.740 -0.6776  0.0660 -0.0533
27917W        W43726  10.996  16.329  11.136  0.1066  0.0748 -0.0656
27918W        W43727  14.747  12.923  13.690 -0.0004  0.3088 -0.1920
27919W        W43728  14.910  17.529   6.140 -0.1170  0.0276  0.1287
27920W        W43729   2.443   6.014  14.363 -0.1100 -0.1748 -0.0242
27921W        W43730   2.106  14.684   5.073 -0.2211 -0.1477 -0.2870
27922W        W43731  11.214  13.740   1.147 -0.2804 -0.1294  0.0727
27923W        W43732  10.111  18.485  14.710  0.0727 -0.2690  0.2690
27924W        W43733   5.314   9.971   2.239 -0.0623  0.0362 -0.0903
27925W        W43734  13.844   2.185  13.879 -0.0172 -0.0383  0.2390
27926W        W43735  13.002   5.097   5.060  0.0172  0.1191 -0.0733
27927W        W43736  13.576  12.724   0.902  0.3876 -0.0212 -0.0478
27928W        W43737  13.340  18.868  12.925 -0.1405  0.2564  0.0619
27929W        W43738  14.230   7.995   1.770  0.0595  0.3295 -0.2339
27930W        W43739  12.165  11.805  14.071 -0.2504 -0.1055 -0.0556
27931W        W43740   3.101   5.477  13.869  0.1124  0.0942  0.0822
27932W        W43741   4.513  12.703  12.329 -0.3791  0.1734  0.4077
27933W        W43742  18.667  17.318   0.806 -0.3366  0.0647  0.0831
27934W        W43743   8.667   2.843   3.906  0.0085 -0.1427 -0.0072
27935W        W43744   1.256   9.190   2.173  0.2304 -0.0951  0.1328
27936W        W43745   2.452   5.962  10.712  0.2146  0.2149  0.0318
27937W        W43746   9.272  17.219   1.781 -0.0465  0.1360 -0.0320
27938W        W43747  14.355   8.141   3.741 -0.1502  0.2102  0.2261
27939W        W43748   6.977   0.013  14.439  0.0596 -0.1741  0.2365
27940W        W43749  17.817  14.765   3.121  0.0742 -0.1200  0.1268
27941W        W43750   2.532   4.958  14.285  0.4990 -0.4591 -0.1212
27942W        W43751  17.556   4.922   0.857 -0.0378 -0.1573  0.0517
27943W        W43752   9.591  11.992  14.287  0.0473 -0.0840  0.2416
27944W        W43753  18.135  13.277   4.904 -0.1275  0.0366 -0.0453
27945W        W43754   4.040   2.115   0.495 -0.3901 -0.0130 -0.1150
27946W        W43755  15.394  18.365   3.198 -0.0004  0.1540  0.2209
27947W        W43756   6.927  13.089   3.717 -0.0059 -0.0242 -0.1430
27948W        W43757   5.024   8.583  10.628  0.1572  0.1890  0.0212
27949W        W43758   5.211  15.193   3.483 -0.0035  0.1391  0.4234
27950W        W43759  15.289  12.231  10.695  0.0368  0.4301  0.1535
27951W        W43760   0.548   3.320   4.679  0.0686 -0.4049  0.1444
27952W        W43761   1.063   6.733  14.470  0.1674 -0.0541  0.0529
27953W        W43762   9.342   4.636   3.665 -0.0519  0.2310 -0.0777
27954W        W43763  12.608   7.708   0.996 -0.0725  0.2227 -0.0661
27955W        W43764  11.955  10.459   2.491 -0.1897  0.2726 -0.0439
27956W        W43765  12.185  14.133  12.426 -0.1952  0.1964  0.2380
27957W        W43766   0.983  15.011   9.738 -0.1704  0.0680 -0.0596
27958W        W43767   9.385  15.648  13.914 -0.3120  0.1097 -0.0072
27959W        W43768  10.932   6.937  14.301  0.1253 -0.0991 -0.1630
27960W        W43769  11.543   0.469  14.710 -0.3587 -0.3713 -0.3585
27961W        W43770   3.903   8.216  12.427 -0.2096 -0.2068  0.0761
27962W        W43771   8.481   8.222   3.719  0.2506  0.0930 -0.3582
27963W        W43772   1.762  11.380   2.616  0.0685  0.0732  0.0645
27964W        W43773  14.803  13.934  14.072  0.3681 -0.1342 -0.2132
27965W        W43774  15.722  16.763  11.258  0.0947  0.1719 -0.0477
27966W        W43775  17.416   3.486  12.858 -0.2057  0.2015  0.1216
27967W        W43776  13.636  11.509  10.980  0.0011  0.0217  0.2132
27968W        W43777  13.621   9.916  14.574 -0.1954  0.5735 -0.4668
27969W        W43778   1.676   9.808  12.981 -0.0316 -0.3652 -0.2850
27970W        W43779  15.330  14.918  12.372  0.1708  0.4044  0.0509
27971W        W43780   7.672   4.911  11.170  0.0763  0.3284  0.3105
27972W        W43781   7.952   3.086  14.306  0.1203 -0.0090  0.3272
27973W        W43782  12.314   5.897   0.467  0.0261 -0.2195  0.0288
27974W        W43783  14.780  18.942  13.035 -0.0264 -0.0476 -0.1152
27975W        W43784   2.784   2.286  13.678  0.0274 -0.0892 -0.3306
27976W        W43785  13.298  12.478  10.048  0.1303  0.1221  0.5345
27977W        W43786  11.575  17.464  14.997 -0.0664 -0.0665  0.2454
27978W        W43787  11.773  13.349  10.549  0.0575 -0.1964 -0.2531
27979W        W43788   5.461  15.699  12.341  0.0454 -0.1491 -0.0073
27980W        W43789  10.058   5.451   9.563  0.3201 -0.0426 -0.3804
27981W        W43790   1.473  15.538  13.254  0.0184 -0.2470 -0.2072
27982W        W43791   9.873  17.589  14.408 -0.0655 -0.0470  0.2564
27983W        W43792  12.499   2.939  10.867  0.2485  0.0228  0.3654
27984W        W43793  18.198   5.219   5.462 -0.0141  0.1502 -0.0057
27985W        W43794   2.833   6.437  10.445 -0.2190  0.2200  0.2903
27986W        W43795   7.929  10.401  14.125  0.1330  0.0498 -0.0664
27987W        W43796  11.050  18.618  14.938  0.0115 -0.0437 -0.0421
27988W        W43797  11.642  16.117  13.750 -0.4280  0.1602 -0.1235
27989W        W43798   8.296  17.934   2.624 -0.0172  0.2087  0.0975
27990W        W43799  17.172   9.321   4.757  0.1277 -0.2899 -0.1179
27991W        W43800   4.744   3.088  10.353  0.1755  0.1397 -0.1041
27992W        W43801   0.426  18.335  11.376  0.2094  0.1795  0.0048
27993W        W43802  11.924  11.345   4.074 -0.1259 -0.1088 -0.0014
27994W        W43803   6.096  16.059   1.133 -0.2735  0.1998  0.3630
27995W        W43804   4.374   6.923  15.123  0.3128  0.0757  0.3308
27996W        W43805  12.052  14.095  11.574  0.1706  0.1370  0.5666
27997W        W43806  12.761  18.992   3.042 -0.1457  0.1505 -0.0870
27998W        W43807   0.890  10.189  11.845 -0.0213 -0.1345  0.1717
27999W        W43808   4.788  15.095  12.671  0.1152 -0.0008 -0.0447
28000W        W43809  16.675  16.977   5.312 -0.4234 -0.1953 -0.0274
28001W        W43810   4.229   4.069   2.239  0.1799  0.1321  0.0586
28002W        W43811   3.201  16.921  10.889 -0.1697 -0.0776  0.2637
28003W        W43812  16.654   7.632  14.808  0.0878  0.1716  0.2589
28004W        W43813   8.942   8.764   2.153 -0.0592  0.1041 -0.1458
28005W        W43814  16.328  13.499   4.380 -0.0962 -0.0054 -0.3250
28006W        W43815   6.926   6.087  12.253 -0.0241  0.1277  0.3016
28007W        W43816   4.892  12.563   1.803  0.0029 -0.5072  0.3634
28008W        W43817   3.322   8.453  14.703  0.1137  0.0265  0.0211
28009W        W43818   3.054   9.285  14.576 -0.1549  0.1139 -0.2218
28010W        W43819   3.453   8.055  10.947 -0.2499 -0.1513 -0.0072
28011W        W43820   2.407   2.071   2.836 -0.0484  0.0153  0.0289
28012W        W43821  13.021  13.872  10.478 -0.0863  0.3980  0.0372
28013W        W43822   4.976  13.576  14.505 -0.0601  0.1226 -0.0524
28014W        W43823   4.154  16.764  14.329 -0.1089 -0.1986 -0.1269
28015W        W43824  14.076  18.801   4.436  0.2815 -0.3243 -0.1023
28016W        W43825   5.111  10.116  11.666 -0.0035 -0.0793 -0.0381
28017W        W43826  12.120  14.329   0.868 -0.2371 -0.3469 -0.0335
28018W        W43827  11.443  14.522   4.153  0.1803  0.1178  0.0630
28019W        W43828   6.474   7.825   2.437  0.1360 -0.1456  0.3111
28020W        W43829  13.544   8.850  13.249  0.2170 -0.1116  0.2220
28021W        W43830  16.428  11.132  11.950  0.1858 -0.0273 -0.3529
28022W        W43831  15.160   4.077  14.622 -0.1176  0.1378 -0.3833
28023W        W43832  16.809   2.229  12.946 -0.2797 -0.2186 -0.3859
28024W        W43833   9.179  16.123  14.812  0.4390  0.2251 -0.2070
28025W        W43834  10.304   5.318  12.880  0.1216  0.0229  0.4865
28026W        W43835   9.234  18.048  11.882 -0.3633 -0.1012 -0.2759
28027W        W43836   3.292   1.971   2.998 -0.0215  0.0971 -0.3797
28028W        W43837   1.300   2.997   3.780  0.3662 -0.0869  0.2115
28029W        W43838   5.279  10.090  14.513  0.2287  0.0205  0.1317
28030W        W43839   4.335  11.143  11.932 -0.0724  0.1634  0.0517
28031W        W43840  11.453  13.409   0.051 -0.1590  0.0744 -0.1318
28032W        W43841   0.787  15.363   2.424 -0.3863 -0.1930 -0.0610
28033W        W43842   4.816   0.317  11.202 -0.2217 -0.0511  0.0427
28034W        W43843  13.686   3.070   4.601  0.0732  0.2882 -0.1169
28035W        W43844   3.541  15.102  12.316  0.0461 -0.2091  0.1255
28036W        W43845   4.322  14.529  13.674 -0.3959 -0.1565 -0.2896
28037W        W43846  13.323   1.663  13.177 -0.4954 -0.0776  0.0948
28038W        W43847   6.769   9.646   0.790 -0.1488 -0.0012 -0.1896
28039W        W43848  13.455  16.753   2.951  0.1297 -0.4674 -0.0518
28040W        W43849  15.714  10.236   3.513 -0.1803 -0.1774  0.2373
28041W        W43850   2.473   9.287  10.782  0.0243 -0.3165  0.2046
28042W        W43851  16.339  18.945  10.771  0.0348  0.1938 -0.0794
28043W        W43852   3.620   3.397  10.172  0.0067  0.1171  0.0796
28044W        W43853   8.505   3.970  15.136  0.2738  0.0455 -0.0445
28045W        W43854   8.614   2.043   4.104 -0.0095  0.0863  0.1484
28046W        W43855   8.340  12.541  12.555  0.1123  0.2729  0.0571
28047W        W43856   2.505   6.121  13.877  0.0412 -0.2304  0.1602
28048W        W43857  13.732  15.842   0.135 -0.0575 -0.0187  0.1601
28049W        W43858  12.693  14.962   0.964  0.0905 -0.0361 -0.1607
28050W        W43859  12.827  16.113  12.905 -0.0713  0.0114 -0.0597
28051W        W43860   0.198  16.903  13.300  0.0877 -0.1240 -0.0053
28052W        W43861  10.906   9.719   3.507  0.0003 -0.1008 -0.0610
28053W        W43862   0.832  14.972  11.803 -0.1031  0.0208  0.3414
28054W        W43863   1.161  14.046   5.211 -0.2549  0.0916 -0.1057
28055W        W43864   4.491   7.676  13.033  0.0793  0.0308  0.3768
28056W        W43865  12.911   9.591   4.354  0.0095  0.1439 -0.1443
28057W        W43866  17.187  11.861   4.032  0.1137  0.0365 -0.0398
28058W        W43867  18.927   2.281   5.353  0.2043  0.0330  0.0233
28059W        W43868  10.941  15.661  14.763 -0.3376  0.3843  0.0324
28060W        W43869   7.495   8.547  14.768  0.1484  0.0358 -0.0861
28061W        W43870  14.480  15.309  10.723  0.2169  0.0293 -0.1836
28062W        W43871  11.978  12.449   5.034 -0.0256 -0.1769 -0.0927
28063W        W43872   5.791   8.667   0.153  0.0784 -0.4577  0.0118
28064W        W43873   1.487  18.786   2.282 -0.0255 -0.1331  0.5204
28065W        W43874   7.449  11.666  11.675  0.0450  0.0000 -0.0322
28066W        W43875  14.882   6.190   4.966 -0.0124 -0.1047  0.0999
28067W        W43876  14.481   7.645  14.868 -0.1200 -0.1282 -0.0851
28068W        W43877  12.915  10.440   2.164  0.0227 -0.2559  0.0377
28069W        W43878  11.716   1.241   4.934  0.0848 -0.0332 -0.1220
28070W        W43879   6.715  12.381  12.685 -0.1045  0.2329  0.0663
28071W        W43880   4.551   3.320   0.199 -0.0123  0.0758  0.1561
28072W        W43881   8.557  14.724   2.577  0.1202  0.1300 -0.0201
28073W        W43882   6.033  16.548   1.143  0.0356  0.0949 -0.0771
28074W        W43883   3.987   6.051  14.982 -0.1379 -0.0988 -0.0822
28075W        W43884  15.309  14.122  14.034  0.0206 -0.4381 -0.1073
28076W        W43885  16.360   5.606  15.035 -0.0305 -0.6049  0.0082
28077W        W43886  13.369  14.416  13.925 -0.1755  0.1770 -0.1085
28078W        W43887   8.950  15.974  11.828 -0.0846 -0.0764 -0.0495
28079W        W43888   8.554   2.024   3.271  0.1740  0.1642  0.1278
28080W        W43889  13.830   4.934  12.784  0.0538 -0.2266 -0.1908
28081W        W43890  14.432  16.508  11.349  0.1012 -0.0960 -0.0733
28082W        W43891  12.491  11.331  10.969  0.0179  0.1640 -0.0213
28083W        W43892   6.595   5.041   4.121  0.0041 -0.0379  0.1728
28084W        W43893   1.287   7.329   5.989  0.1228  0.2470  0.0170
28085W        W43894  10.754  12.615   5.236 -0.1854 -0.0008 -0.0977
28086W        W43895   8.611   8.068  12.230  0.2024 -0.2547  0.1999
28087W        W43896   3.757  17.737  11.853  0.0548 -0.0534 -0.1158
28088W        W43897   0.707  12.846  15.155  0.1455  0.2817  0.2847
28089W        W43898  12.801   4.445   4.428 -0.0784  0.2422 -0.0614
28090W        W43899   1.906  15.306  12.216 -0.0562  0.1881  0.2228
28091W        W43900  12.444   4.858  14.342  0.0548  0.2601 -0.2248
28092W        W43901   6.480  10.521  13.391  0.2855  0.1917  0.4479
28093W        W43902  16.977  13.527  14.269  0.1232 -0.3033  0.1329
28094W        W43903   5.515   1.649   9.673  0.4157 -0.0604  0.0214
28095W        W43904   2.369  15.760   4.814  0.0661  0.1848  0.0119
28096W        W43905  10.532  15.404  14.918 -0.0580 -0.1392  0.1871
28097W        W43906   8.934   6.254  12.112 -0.2530  0.0364  0.2778
28098W        W43907   1.310   1.013  11.225  0.0534 -0.0607 -0.0092
28099W        W43908  11.376   1.634   4.069  0.1996 -0.1800  0.0702
28100W        W43909  17.486   6.578   1.948 -0.0028  0.1146  0.0274
28101W        W43910  10.168  10.163   3.271 -0.1060  0.3605 -0.3098
28102W        W43911  14.492  18.970   1.491 -0.0147 -0.0054 -0.2082
28103W        W43912   0.352   5.601   4.047  0.1449  0.1568 -0.0328
28104W        W43913   0.010   0.313   0.869  0.0376 -0.1383 -0.1763
28105W        W43914   6.042  15.560   1.881 -0.2781 -0.2802 -0.2352
28106W        W43915   5.804   2.215  14.652 -0.2844 -0.0970 -0.3785
28107W        W43916  13.801  15.555  12.533  0.0382  0.0404  0.1240
28108W        W43917  15.801  14.155  14.324  0.5035  0.0365 -0.1726
28109W        W43918   9.720  13.778  13.056 -0.4573 -0.3629 -0.1376
28110W        W43919   8.346  17.796   9.657 -0.1063  0.1993 -0.1012
28111W        W43920   2.301  11.197  10.884  0.1871  0.2194  0.0300
28112W        W43921   6.651   9.672  10.529 -0.1184  0.1888  0.1754
28113W        W43922   8.600  15.760  10.404  0.0271  0.1142  0.1185
28114W        W43923   0.752  18.210   3.821  0.3608  0.1274  0.0166
28115W        W43924  16.157   9.940   4.614 -0.0795 -0.3238  0.0727
28116W        W43925   4.218   7.685  10.816  0.2496 -0.0408  0.0721
28117W        W43926  11.191   0.236   3.341  0.0462  0.0281  0.2960
28118W        W43927   0.316   8.238   3.631  0.2281 -0.2506  0.0916
28119W        W43928   8.859  12.570   1.493 -0.0363 -0.1260  0.2750
28120W        W43929  14.641  15.345   1.529  0.3160  0.1343 -0.0948
28121W        W43930  14.101  12.373   4.556  0.1071  0.0882  0.5056
28122W        W43931   2.060  10.179  13.125  0.2159 -0.3192 -0.0365
28123W        W43932  13.638  17.293   1.680 -0.1753  0.1802 -0.4134
28124W        W43933  13.559   6.406   0.767  0.0484 -0.1469  0.0822
28125W        W43934   3.809   7.068  14.036 -0.2477  0.2408  0.0138
28126W        W43935  16.182  13.807   0.559  0.1610  0.2079 -0.0339
28127W        W43936  15.294   5.664   1.339  0.1623  0.4458 -0.2428
28128W        W43937  13.961   2.945  12.970  0.2590  0.0448  0.0126
28129W        W43938   8.603   9.064   9.665 -0.1053 -0.0435  0.2754
28130W        W43939  14.769   1.456  11.784  0.0777 -0.1830 -0.0717
28131W        W43940   0.368   9.854  10.276  0.4854  0.2530  0.0091
28132W        W43941  12.191  11.457   4.948  0.1609 -0.0304 -0.0061
28133W        W43942   1.248   6.866  15.002 -0.0213 -0.2079  0.1691
28134W        W43943   5.998   8.398  12.484 -0.1034 -0.1647 -0.0510
28135W        W43944   6.399  11.137   3.460 -0.2720  0.0209  0.0520
28136W        W43945  15.709   7.662   3.716  0.0816 -0.0132  0.2526
28137W        W43946   9.423  13.091  11.411  0.0470  0.1507  0.2742
28138W        W43947  11.684  16.097  14.237  0.0336  0.0289  0.0529
28139W        W43948   3.860   0.909  10.041 -0.2995  0.2773 -0.1989
28140W        W43949  10.840  12.845  10.876 -0.0422 -0.0457  0.0007
28141W        W43950  18.581  12.612  13.051 -0.2530 -0.0981 -0.0837
28142W        W43951  15.197  17.005   3.095 -0.0771  0.0526  0.1495
28143W        W43952   2.720   3.046  12.597 -0.0377  0.3071  0.3669
28144W        W43953   5.691  15.610   0.977  0.3758  0.1081 -0.2394
28145W        W43954  15.827   8.454   4.287  0.2783 -0.1270 -0.0030
28146W        W43955  17.143   0.448   4.497  0.0971  0.1201 -0.0854
28147W        W43956   5.830  17.190   4.314 -0.0724 -0.0781 -0.0197
28148W        W43957  12.119  11.887   1.731 -0.0822 -0.1378  0.0829
28149W        W43958  12.324  18.012  12.521  0.2252  0.1098 -0.0842
28150W        W43959  13.516   4.456   3.502  0.0344 -0.1463  0.2997
28151W        W43960   9.227  12.728  12.982 -0.1959 -0.1888  0.1186
28152W        W43961   5.311   0.068  13.862  0.0334  0.0970  0.2080
28153W        W43962   6.046   2.841  10.050  0.0565 -0.0833 -0.0977
28154W        W43963   9.868   1.214   1.992  0.1123 -0.4018  0.4248
28155W        W43964  16.024   0.143   2.603 -0.1422 -0.2205  0.0830
28156W        W43965   4.772  10.427   4.191  0.1711 -0.0291  0.0664
28157W        W43966   7.933  14.134  14.323  0.3830 -0.0122 -0.3903
28158W        W43967  14.386  17.439  13.473  0.0094 -0.1099  0.0354
28159W        W43968  11.014  14.298   3.266  0.1474 -0.0511 -0.0460
28160W        W43969  16.892   7.230  12.865  0.3614  0.1101 -0.0035
28161W        W43970  14.125  17.278  11.576  0.2057 -0.1665 -0.2750
28162W        W43971   0.487  13.732  14.645  0.0597  0.0183 -0.1390
28163W        W43972  10.000  15.405   4.318 -0.2319  0.0509  0.0790
28164W        W43973  14.322  15.662  12.639 -0.4119  0.1983  0.2869
28165W        W43974   3.425   4.233   2.655  0.0383 -0.1234  0.3642
28166W        W43975  10.746   9.856   4.659 -0.0509  0.0273  0.0335
28167W        W43976   1.750   0.642   1.971 -0.1427  0.0754  0.0744
28168W        W43977  18.054  12.966  12.573 -0.3918  0.2757 -0.0540
28169W        W43978   9.994   7.106  14.763 -0.0041 -0.0303  0.2238
28170W        W43979  10.998  17.792  10.564 -0.0727 -0.3277  0.1876
28171W        W43980   7.620  15.722  11.388  0.3105 -0.1783 -0.2128
28172W        W43981   6.819   0.196  10.978 -0.0884 -0.0953 -0.1057
28173W        W43982  16.368  15.928  11.040  0.1606  0.2992  0.0718
28174W        W43983  15.677   8.610   3.420 -0.0426  0.0683 -0.1352
28175W        W43984   0.976   4.592  11.586 -0.0282 -0.1104  0.1485
28176W        W43985   7.363  11.508  10.553 -0.0031 -0.1872 -0.3665
28177W        W43986   8.136   2.705  14.656  0.1906  0.1107  0.1418
28178W        W43987  17.590   0.582   3.557 -0.1676  0.2586  0.1040
28179W        W43988  14.067   5.062  11.152  0.0003  0.2520  0.0435
28180W        W43989  17.015   8.644  14.737 -0.0716  0.1174  0.0729
28181W        W43990  12.720  15.462   0.921  0.1339  0.4100 -0.0882
28182W        W43991  16.506   2.047  15.206  0.1984 -0.0307 -0.3463
28183W        W43992   7.999  11.194  13.272 -0.1823 -0.1024  0.3792
28184W        W43993  14.476   3.909   0.688 -0.0225 -0.1713  0.2460
28185W        W43994  12.925   2.785   2.596 -0.1597 -0.0643  0.1915
28186W        W43995   5.463  17.489  14.872  0.0856  0.2003  0.2241
28187W        W43996   8.089   0.431  12.404 -0.1167  0.1606  0.0000
28188W        W43997  12.960   7.892  14.442 -0.0446 -0.0258  0.0388
28189W        W43998  13.255  10.215   4.956 -0.3781 -0.2970 -0.2831
28190W        W43999   7.246   8.196   2.685  0.1595  0.4195 -0.1183
28191W        W44000   5.800  11.180   1.768  0.3276  0.1260 -0.1219
28192W        W44001  18.029   3.312   3.780 -0.2145  0.3084  0.1086
28193W        W44002  12.825   3.794   3.379 -0.3716 -0.1452  0.3912
28194W        W44003   8.281   4.759   2.070  0.0097 -0.2251  0.0607
28195W        W44004  13.354   9.929  13.786  0.0111  0.1163 -0.0990
28196W        W44005   1.403   2.860  11.812 -0.3033 -0.0606 -0.1262
28197W        W44006   0.217   9.810  13.277 -0.0347 -0.1640  0.2392
28198W        W44007   9.663  12.003  11.105 -0.1356 -0.1270 -0.1718
28199W        W44008   3.863  18.918   1.951 -0.0298  0.1033  0.1334
28200W        W44009   0.672  17.670  12.352  0.1723 -0.0367 -0.0003
28201W        W44010  10.558  16.223   5.098 -0.2450 -0.0254 -0.2509
28202W        W44011   7.165   4.309   5.413 -0.0425 -0.1314 -0.1246
28203W        W44012   5.331  11.977   3.402 -0.2243  0.2470  0.1520
28204W        W44013  15.368   4.083   4.377 -0.1196  0.0608  0.0474
28205W        W44014   3.886   2.321  11.801  0.0428 -0.1419  0.1636
28206W        W44015   4.841  17.655   0.860  0.3195  0.2011  0.0626
28207W        W44016   2.694  16.196   1.869  0.0928 -0.2001 -0.2071
28208W        W44017  12.036  11.287  15.021  0.0212 -0.2417 -0.0420
28209W        W44018   2.928  15.988  13.485  0.0237 -0.1736 -0.1867
28210W        W44019  13.856   3.545  10.266 -0.1847 -0.1028  0.2175
28211W        W44020   4.880   4.365   2.516  0.0307 -0.1612 -0.2063
28212W        W44021   4.806  13.594   0.035 -0.0510 -0.0023 -0.1332
28213W        W44022   1.653  14.004  12.303  0.1306  0.0603  0.1974
28214W        W44023  10.756  10.524  12.070 -0.1504 -0.2083 -0.3504
28215W        W44024  14.897  16.487   4.830  0.2605 -0.2472  0.0114
28216W        W44025   6.560   1.128   4.192 -0.1974 -0.2155  0.1749
28217W        W44026  10.017  13.187   9.706 -0.0641  0.5657 -0.1181
28218W        W44027  16.312  14.128  13.069  0.2718  0.1442 -0.0608
28219W        W44028   4.231  13.937  10.643 -0.0612  0.0737 -0.2442
28220W        W44029  12.235   7.062   1.340  0.2788  0.3763  0.1430
28221W        W44030  12.889   4.580  12.081 -0.1651  0.0500  0.0479
28222W        W44031   2.774  17.732   1.482 -0.0478  0.3605 -0.2714
28223W        W44032   2.826   5.886  11.944  0.1256 -0.2513  0.3579
28224W        W44033   6.007   7.315   1.218 -0.0812  0.1698 -0.0538
28225W        W44034  16.496   9.796  12.915  0.0853 -0.0735 -0.2721
28226W        W44035  12.110   3.439  12.573  0.3080  0.0590  0.0107
28227W        W44036   5.208  13.616   4.351  0.3729 -0.1231  0.2294
28228W        W44037  11.689  18.035  13.794  0.1778  0.3476  0.2349
28229W        W44038   0.585  14.919  10.192 -0.1346 -0.2470 -0.0205
28230W        W44039  14.719  18.589  10.005 -0.2112 -0.4464  0.0868
28231W        W44040  11.912   9.469   2.766  0.0617 -0.1504 -0.5272
28232W        W44041  10.687   1.429   0.597 -0.1130 -0.1663 -0.1578
28233W        W44042  15.492  12.818   4.143  0.1897  0.0234 -0.1479
28234W        W44043   0.970   8.837   3.349  0.0051 -0.0924  0.0128
28235W        W44044  18.386  13.130  11.138  0.0257  0.1160 -0.0416
28236W        W44045   6.352  17.456  13.204 -0.0022  0.2536 -0.2978
28237W        W44046  11.008  16.683   3.085  0.1921 -0.0975  0.0190
28238W        W44047   4.188   8.362  13.953  0.2209  0.4057 -0.1120
28239W        W44048   2.510   9.674   4.182  0.0508 -0.1330  0.4627
28240W        W44049   0.095  15.355  14.872 -0.0822  0.1247  0.1218
28241W        W44050  14.758  14.282  13.688 -0.2172  0.1607  0.2879
28242W        W44051  11.467   9.183   2.676 -0.0998 -0.4532  0.0718
28243W        W44052   3.946   4.019  11.828 -0.0440 -0.1723  0.1448
28244W        W44053   0.700   9.243  12.886 -0.4039 -0.1957  0.0465
28245W        W44054   6.980  18.732  11.969 -0.0495 -0.0025 -0.0283
28246W        W44055  16.169  17.843   3.281 -0.0310  0.2108  0.3424
28247W        W44056   0.650   6.085  14.088  0.0285 -0.3102 -0.1613
28248W        W44057  13.252   8.006  15.182  0.0742 -0.1039  0.0244
28249W        W44058   5.033  11.036   1.212  0.3064 -0.2800 -0.0979
28250W        W44059  16.193  14.930  12.429 -0.1013  0.3022 -0.2529
28251W        W44060  11.169   8.254   0.484 -0.0866  0.2718 -0.5434
28252W        W44061   2.642  18.711   3.839 -0.0555  0.0524  0.3418
28253W        W44062   8.860  16.610   4.156 -0.1812  0.0488  0.1168
28254W        W44063   1.429   9.859   0.741 -0.2879 -0.3740 -0.0421
28255W        W44064   9.062   7.065  12.537  0.1937  0.1528  0.2241
28256W        W44065  10.737  10.176  13.557 -0.1395  0.2328 -0.0087
28257W        W44066   4.439  10.150   0.137  0.1950 -0.3737 -0.4162
28258W        W44067   1.351  15.158  13.601 -0.1755 -0.0646  0.0741
28259W        W44068   3.459   5.153  10.475 -0.3175 -0.2119 -0.2397
28260W        W44069   5.971  17.285  13.550 -0.0685  0.2536  0.3674
28261W        W44070  11.925   0.357   1.581 -0.1312  0.2009  0.0740
28262W        W44071  11.987   3.642  12.043  0.0519 -0.1263 -0.1825
28263W        W44072   8.061   1.946   2.888 -0.0318 -0.1238  0.1622
28264W        W44073  13.679   0.270   5.459 -0.1013 -0.3636 -0.0184
28265W        W44074  11.969   3.857   0.354  0.2506 -0.2261 -0.1186
28266W        W44075   6.719  12.051  11.512  0.4548 -0.2206 -0.1092
28267W        W44076  12.055   7.010   2.256  0.1910  0.2654 -0.0982
28268W        W44077   0.690   8.029   1.747  0.1209  0.0633 -0.0739
28269W        W44078  18.255   5.684  13.271 -0.0649  0.2976 -0.0694
28270W        W44079   4.745   9.186   2.318  0.1847  0.0475  0.1047
28271W        W44080  18.992   4.045  14.914  0.2225  0.0009 -0.0917
28272W        W44081   0.700  10.213  13.247 -0.1540  0.0206 -0.0891
28273W        W44082  18.869  17.253   4.514  0.3391  0.1511  0.0662
28274W        W44083  10.823   1.295   4.160  0.0360 -0.2278  0.0675
28275W        W44084   7.285   9.866  11.637 -0.1926  0.0224  0.0729
28276W        W44085  13.684   9.466   2.903 -0.2949 -0.1449  0.1373
28277W        W44086   7.019   0.722   0.052  0.1240  0.0480  0.0625
28278W        W44087  13.314  16.371   1.002 -0.0416  0.3925  0.4341
28279W        W44088  15.208  10.139   2.606  0.1504  0.2050 -0.1482
28280W        W44089  10.056  12.828  14.094 -0.5042  0.1230  0.2177
28281W        W44090  10.089  15.514  12.619  0.2251 -0.2082 -0.2617
28282W        W44091   1.834   3.119  13.106 -0.0234  0.3000 -0.0444
28283W        W44092  14.057   9.708   1.094 -0.0690 -0.3066  0.1264
28284W        W44093   6.385   2.901  11.883  0.3200 -0.1421  0.2630
28285W        W44094  15.022  13.569   4.432 -0.1966 -0.3207  0.1678
28286W        W44095   7.754  16.468   9.320  0.0626 -0.1084  0.0303
28287W        W44096  14.263   8.228   2.433 -0.0928  0.3284  0.0712
28288W        W44097  13.857   5.586   2.633  0.1000  0.2651 -0.0365
28289W        W44098  15.144   5.652   0.330 -0.4892  0.1324  0.0818
28290W        W44099   3.505  17.489   0.981  0.1143  0.0145  0.2306
28291W        W44100   4.635  18.530  11.067 -0.1663 -0.1627 -0.1186
28292W        W44101   3.460   2.539   5.518 -0.0196  0.3513 -0.2683
28293W        W44102  13.355  16.276   3.899  0.0695 -0.1327 -0.0231
28294W        W44103  15.715  14.766   1.634  0.3317  0.0056  0.1953
28295W        W44104   3.448   9.337  14.206  0.0473 -0.1444 -0.0193
28296W        W44105  18.788  11.886  13.147 -0.1416  0.0056  0.3131
28297W        W44106  18.279  17.931   1.928 -0.1429 -0.0587 -0.3075
28298W        W44107  17.542   4.929  13.940  0.0086  0.0435  0.1344
28299W        W44108   9.149  12.154   1.265 -0.2536 -0.0034 -0.2505
28300W        W44109  17.760  12.447  13.302 -0.0333 -0.0901  0.4184
28301W        W44110   1.832  10.090  14.451 -0.0954  0.1049  0.1185
28302W        W44111  13.833   6.615   1.654  0.2941  0.1117 -0.0605
28303W        W44112   7.681   2.068   4.319  0.0827  0.0131  0.1490
28304W        W44113  18.112   3.926   0.619 -0.0028  0.0358 -0.3760
28305W        W44114   9.223   1.455   3.127 -0.0130  0.2331 -0.1621
28306W        W44115   2.150  10.567   2.830  0.0151  0.0520 -0.3518
28307W        W44116  14.591   0.978  11.616  0.0671  0.0024  0.0744
28308W        W44117  14.211  11.948   4.247 -0.3062  0.1147 -0.0197
28309W        W44118   5.977  15.102  12.946  0.0076 -0.0202 -0.1409
28310W        W44119  18.293   8.613  14.927 -0.1395 -0.0584 -0.1851
28311W        W44120  14.360   2.339   3.821 -0.0561 -0.1987  0.1054
28312W        W44121   3.123   4.089   6.184  0.1160 -0.1949 -0.0468
28313W        W44122   8.351  13.362  12.211  0.2526  0.1047  0.1264
28314W        W44123  11.136   0.702  10.850  0.1395  0.3138 -0.1540
28315W        W44124  14.251   8.502   1.897  0.1794  0.1413  0.1106
28316W        W44125   6.110   0.864   5.530 -0.5172 -0.0504  0.0397
28317W        W44126   9.563   1.462  11.559  0.1653 -0.2227 -0.1945
28318W        W44127  14.030   5.574   0.698  0.0875 -0.1964  0.1826
28319W        W44128   7.786  15.109   1.601 -0.2231  0.1146  0.1018
28320W        W44129  16.323   9.708   5.031  0.3758  0.0314  0.0570
28321W        W44130   8.187  14.886   3.931  0.2873  0.0238 -0.0763
28322W        W44131   3.231  17.044   5.285 -0.0502  0.1771 -0.1379
28323W        W44132  12.213   9.745   2.133 -0.2669  0.0983  0.2554
28324W        W44133  12.121   8.586   0.089 -0.1127  0.2420 -0.2124
28325W        W44134  14.832   7.991  12.954  0.3071  0.0159  0.0569
28326W        W44135   0.888   0.960   0.232  0.1276  0.0271 -0.3348
28327W        W44136   6.360   5.212  10.727 -0.2629 -0.4326 -0.2808
28328W        W44137  14.848  10.113   3.801 -0.1950 -0.1411 -0.1510
28329W        W44138  18.359  16.412  14.128  0.1596 -0.1416  0.0244
28330W        W44139  11.598   8.916  11.760  0.0701  0.0855 -0.2051
28331W        W44140   9.442  15.659   3.640  0.4378 -0.0639 -0.2018
28332W        W44141  11.705   4.972  12.873  0.1141  0.0849  0.1865
28333W        W44142  11.171   6.322   3.772  0.2420 -0.1295 -0.0973
28334W        W44143   8.770   3.195   3.021 -0.1618 -0.0120 -0.2687
28335W        W44144  17.478   1.458   0.605  0.0861  0.0769 -0.1035
28336W        W44145  14.074  18.945   2.578 -0.2047  0.1655  0.0710
28337W        W44146  16.407   8.887  11.577  0.2691  0.0935  0.0737
28338W        W44147   0.677   6.801  15.010 -0.0199 -0.4067  0.0101
28339W        W44148   4.936  18.152   0.998  0.3620 -0.1562 -0.1421
28340W        W44149   5.740   1.113  15.246 -0.0191 -0.2494 -0.0841
28341W        W44150  17.199  17.243  14.868  0.0486 -0.1109 -0.1812
28342W        W44151   3.586   6.707  11.548 -0.0527 -0.0192  0.0980
28343W        W44152   1.147  14.562  14.866  0.1553  0.0780  0.2545
28344W        W44153  10.119  13.855  13.481 -0.4231 -0.1408 -0.2879
28345W        W44154  18.564   0.648   4.841  0.4536  0.0169  0.1396
28346W        W44155   8.859   9.132  13.108  0.2087 -0.3846  0.3483
28347W        W44156   5.217   0.069  11.922 -0.2882  0.0886 -0.0202
28348W        W44157  11.482   6.196   0.102 -0.0794  0.2606  0.3315
28349W        W44158   5.816  16.167   0.657  0.0085 -0.0417 -0.0306
28350W        W44159   5.469   8.483   0.944 -0.3905 -0.1055 -0.1621
28351W        W44160   5.025  12.123   2.747 -0.3408 -0.1938 -0.1202
28352W        W44161   4.777  15.388  11.014 -0.4753  0.0127 -0.2015
28353W        W44162   6.457  15.643   0.213 -0.0805 -0.1430  0.1323
28354W        W44163   1.476   5.526   3.106 -0.1592 -0.1429 -0.0484
28355W        W44164   0.912   3.664  13.303 -0.2135 -0.3848  0.3958
28356W        W44165   3.184   1.214   2.600  0.0884 -0.0460  0.1814
28357W        W44166  15.767  10.372   2.636 -0.2341  0.2200 -0.2964
28358W        W44167  18.959  12.424   4.333 -0.0971 -0.3639 -0.1626
28359W        W44168  13.810  11.860   1.056 -0.0947  0.4964 -0.3038
28360W        W44169   0.124   9.755   0.697  0.0102 -0.0095 -0.0599
28361W        W44170  11.809  11.103  11.447  0.2333 -0.0656 -0.3156
28362W        W44171   0.333  11.752  11.001 -0.0840  0.1259 -0.0178
28363W        W44172   7.956   1.191   3.725  0.0354  0.0182 -0.1653
28364W        W44173   8.444   8.719   3.912  0.1497  0.1394 -0.0046
28365W        W44174  17.420   1.026   2.216  0.1566  0.1514  0.4101
28366W        W44175   6.310  12.499   4.919 -0.0751 -0.0982  0.2030
28367W        W44176  10.854   4.547  13.217  0.3459  0.0472 -0.1611
28368W        W44177  10.192   7.202  12.879  0.0124 -0.2793 -0.0073
28369W        W44178  18.372  12.939  12.188 -0.0204  0.0356  0.0358
28370W        W44179  14.249  11.720   2.748 -0.0040  0.1515  0.1020
28371W        W44180   2.396  11.393   1.055  0.1541 -0.1022  0.0621
28372W        W44181   2.860  13.227   5.014 -0.0958  0.0300 -0.3920
28373W        W44182  10.316  18.389   0.194  0.1221 -0.0431  0.1278
28374W        W44183  10.966   4.898   4.543  0.3266  0.1775  0.1984
28375W        W44184  16.271  11.028   0.384  0.1540 -0.0180 -0.0053
28376W        W44185   7.304  15.637   2.152  0.0018  0.2090  0.3796
28377W        W44186   4.078  14.304   0.369 -0.3631  0.1896 -0.0722
28378W        W44187   9.588   9.947  10.594 -0.2178 -0.1098 -0.0326
28379W        W44188  13.789   9.186   1.765  0.1967 -0.1027  0.1437
28380W        W44189   0.864  13.604   0.341 -0.1528  0.0536  0.1026
28381W        W44190  10.316  16.754   5.202 -0.1043 -0.4264  0.0836
28382W        W44191  15.664   6.150   1.959  0.3269  0.2105  0.1921
28383W        W44192  16.933  16.645   4.856  0.0805 -0.0534 -0.3337
28384W        W44193  11.842  15.837  14.899 -0.1323 -0.1263  0.1738
28385W        W44194   9.974  12.159   0.785  0.1497 -0.1642  0.0782
28386W        W44195  12.463  14.197   2.247 -0.1114  0.0734 -0.1073
28387W        W44196  11.037   0.755   2.200  0.2260 -0.0463  0.1525
28388W        W44197   8.458  13.147   1.209  0.0446  0.0957  0.0776
28389W        W44198  12.407   5.396   3.819 -0.1324 -0.0016 -0.3787
28390W        W44199   3.218  17.839  11.139 -0.1991 -0.3382  0.2897
28391W        W44200  14.529  10.489   2.469 -0.0478 -0.0778 -0.3368
28392W        W44201   1.175   4.720   2.991  0.1489 -0.1959  0.2317
28393W        W44202   9.234  12.230  11.006  0.5163  0.0965 -0.3719
28394W        W44203  10.643   8.894  13.554  0.0455 -0.3937  0.0145
28395W        W44204  13.095  10.947   3.538  0.0179  0.0203  0.1503
28396W        W44205  10.508   2.540   0.955 -0.0113  0.3406  0.0588
28397W        W44206  13.387  12.596  14.315 -0.2486  0.0290 -0.0726
28398W        W44207   4.294   1.351  12.197  0.2400  0.0806  0.0282
28399W        W44208   3.900   0.044   2.400 -0.3029  0.1060 -0.0503
28400W        W44209  12.255  18.127   0.005 -0.4352  0.0020  0.1133
28401W        W44210   4.501   5.642   1.624  0.0393  0.1311  0.0683
28402W        W44211  14.525   6.736   0.447 -0.2066  0.1232 -0.2142
28403W        W44212   7.112   6.189   0.247  0.0090 -0.0370  0.1237
28404W        W44213  14.616   2.612  11.361 -0.3267  0.0623  0.1194
28405W        W44214  16.280  17.413   1.232  0.0135  0.0611 -0.0106
28406W        W44215   4.129   0.210   0.273 -0.1384  0.0848 -0.3118
28407W        W44216  13.022   7.934   1.227  0.1092  0.2917  0.1511
28408W        W44217   6.305  16.308   0.768 -0.1586 -0.0099  0.1293
28409W        W44218   0.804   6.222  10.874 -0.3303  0.0170  0.2938
28410W        W44219   1.226  15.615   0.869 -0.0290 -0.3462 -0.0982
28411W        W44220   2.610   8.342  11.056 -0.0914 -0.3727 -0.0724
28412W        W44221   6.304   9.955  13.468  0.4977 -0.1231  0.3240
28413W        W44222  14.242   8.879   0.113  0.5250 -0.3253 -0.0250
28414W        W44223   8.478   6.884   4.097 -0.0387  0.1063  0.1046
28415W        W44224   4.896   8.726   3.666 -0.2310  0.0058 -0.0564
28416W        W44225   6.478  13.060   0.768  0.0235 -0.1289 -0.2073
28417W        W44226  12.351   5.717  10.813  0.0066  0.1157 -0.1848
28418W        W44227   0.125   7.299   0.274 -0.1714  0.3546  0.4233
28419W        W44228   8.698  12.722   3.524 -0.0835  0.3115 -0.0877
28420W        W44229  12.206   3.872   1.863 -0.0585  0.1219  0.0109
28421W        W44230   8.255   9.177   0.476  0.2800  0.1102 -0.0506
28422W        W44231   8.965   7.058  11.524 -0.3577 -0.1541 -0.2103
28423W        W44232  18.581   4.914  14.450 -0.0226 -0.0400  0.0548
28424W        W44233  10.499   2.574  10.590 -0.0611 -0.0539  0.2337
28425W        W44234  16.508  15.502  14.549 -0.0182  0.2717  0.2444
28426W        W44235  16.724  17.274   4.000  0.2647  0.2684 -0.1877
28427W        W44236  18.328   4.636  12.879 -0.0430  0.2181  0.1318
28428W        W44237   5.461  18.751   0.041  0.1947 -0.2327  0.4675
28429W        W44238  18.843   6.939  14.124  0.1828 -0.0018 -0.2696
28430W        W44239  14.258   4.101  14.947 -0.2146 -0.2217 -0.2618
28431W        W44240   2.683  14.332   4.263 -0.2351 -0.1027  0.1864
28432W        W44241   1.748   2.345  10.563 -0.1520 -0.0116 -0.0277
28433W        W44242   6.521   3.973  14.431 -0.0255 -0.2383 -0.1196
28434W        W44243  16.937  17.926   0.583  0.0404  0.1050 -0.0387
28435W        W44244   5.412   6.738   2.830  0.0656 -0.2104  0.1221
28436W        W44245  14.083   7.728  15.266 -0.2351  0.0893  0.1038
28437W        W44246  18.962  17.685   0.968 -0.0651 -0.0106  0.1865
28438W        W44247  15.911   6.107   9.579 -0.0512  0.0516 -0.1163
28439W        W44248   2.419   5.397   4.644 -0.0623  0.0843  0.0947
28440W        W44249  14.028   1.747   1.783 -0.1236  0.2880 -0.2583
28441W        W44250   4.830  18.739   3.648  0.2570 -0.2744  0.0892
28442W        W44251  16.979   9.019  11.664 -0.3789 -0.1014 -0.1927
28443W        W44252  15.810   4.170   3.480  0.2189  0.4667 -0.2113
28444W        W44253   4.289   0.342   4.826  0.3585 -0.0088 -0.0022
28445W        W44254   3.306  15.683  14.545  0.0441 -0.1154  0.1707
28446W        W44255   6.194  15.565   3.233 -0.4532  0.0759 -0.0216
28447W        W44256   4.638   4.752   4.437  0.0478  0.0053  0.0721
28448W        W44257  12.017  15.866  13.922  0.0494 -0.4996 -0.1716
28449W        W44258  16.560   7.669   5.038  0.0711  0.2490 -0.3041
28450W        W44259   3.894   5.675  12.734 -0.1826  0.0477 -0.1794
28451W        W44260  10.326   5.167  14.806 -0.2712 -0.2150 -0.0706
28452W        W44261  16.862  16.804   3.803  0.0764 -0.1422 -0.4174
28453W        W44262  18.113   4.086   1.166 -0.2152  0.0847  0.1014
28454W        W44263   5.793   7.351  12.627  0.0966  0.1280  0.0549
28455W        W44264  12.359  17.139  12.939  0.0433 -0.0630  0.1192
28456W        W44265   9.103   4.034  13.832 -0.1660  0.0840 -0.0579
28457W        W44266  12.888  18.152  14.983  0.0025  0.0419  0.0735
28458W        W44267  18.591  12.284  11.196  0.1702  0.1530  0.3031
28459W        W44268  10.442  18.281   3.972 -0.1357 -0.3522  0.1150
28460W        W44269  17.336  12.183  11.324 -0.1422  0.1542 -0.0790
28461W        W44270   1.473  18.082   4.660  0.0716 -0.0560  0.1837
28462W        W44271  11.190  12.368   4.227  0.2018 -0.1387 -0.0335
28463W        W44272  11.144   8.188  15.106  0.5371 -0.3555  0.2909
28464W        W44273  18.914  15.454   1.398  0.1859 -0.0063  0.1286
28465W        W44274   0.577  14.298  12.556 -0.1198 -0.1893  0.0102
28466W        W44275  16.915   5.324  13.485  0.0408 -0.0761  0.0685
28467W        W44276  15.131  13.298   2.187  0.2752 -0.1342 -0.0014
28468W        W44277  17.071  12.459   3.301 -0.0160 -0.0627 -0.0009
28469W        W44278  17.357   8.321  15.019  0.2522  0.0285  0.0658
28470W        W44279  17.061   2.052   1.594  0.0138  0.0341  0.1966
28471W        W44280   7.323  16.856   3.683 -0.7125  0.0139 -0.1379
28472W        W44281   4.938   1.089  11.485 -0.0770 -0.0626 -0.1332
28473W        W44282   9.882   9.721   1.924  0.2654 -0.0372 -0.2726
28474W        W44283  18.193  13.976  11.572  0.2821  0.1349 -0.0555
28475W        W44284  13.246  13.422  10.573  0.5466 -0.0619  0.1273
28476W        W44285   4.632  18.512   4.092  0.1422 -0.2978  0.0901
28477W        W44286  12.227  13.200  10.596 -0.0557  0.1152  0.2948
28478W        W44287   5.713   0.294  13.691 -0.3451  0.2103  0.0509
28479W        W44288  17.630   0.355  11.069  0.0035 -0.3250  0.0913
28480W        W44289  17.609  12.653   3.969  0.0937 -0.1876  0.0539
28481W        W44290   0.432   3.271   0.610  0.0236  0.3256 -0.0911
28482W        W44291  14.089   0.331   1.215 -0.0633  0.1533 -0.1637
28483W        W44292  15.712   6.079   4.208 -0.3428 -0.3343 -0.0209
28484W        W44293   6.579  17.977   5.725  0.6053 -0.0154 -0.2130
28485W        W44294  18.837  12.306  13.396 -0.0749 -0.0338 -0.0958
28486W        W44295   1.627   6.076  13.398  0.0472 -0.1565 -0.2441
28487W        W44296  16.701   2.975   0.561  0.1604  0.4223 -0.1043
28488W        W44297  18.388  17.224  13.176  0.3780  0.0955 -0.2182
28489W        W44298   7.692  10.896  12.390 -0.0678  0.0059 -0.0683
28490W        W44299  11.711   0.273   3.136 -0.1232 -0.0319 -0.0629
28491W        W44300  14.677   0.386  12.968  0.3191  0.3904 -0.0874
28492W        W44301  18.216   8.605   2.864 -0.2065 -0.1254  0.4000
28493W        W44302   5.452   8.231   0.489  0.2819  0.1564 -0.1507
28494W        W44303   1.864  10.001   1.040 -0.0380 -0.4267 -0.4442
28495W        W44304  18.804   1.621   2.463  0.1914 -0.0590  0.0658
28496W        W44305  17.539   0.063  13.766  0.3109  0.0580 -0.2540
28497W        W44306  10.978  17.318  10.567 -0.4756  0.0643  0.1193
28498W        W44307  18.546  10.410  14.737  0.0323  0.0344 -0.0724
28499W        W44308  16.477   7.157  14.857  0.0626  0.3507  0.1177
28500W        W44309  18.611   4.085  15.233  0.0585 -0.1110  0.3089
28501W        W44310  10.356  13.824   2.317  0.0518 -0.1839  0.1179
28502W        W44311   2.631   6.450  10.873  0.0580 -0.0448  0.1312
28503W        W44312  10.205   0.795   2.967 -0.0083 -0.1652  0.1163
28504W        W44313   5.251   0.289   5.283  0.1975  0.2361  0.2058
28505W        W44314  14.845   2.148   0.029 -0.1990  0.0123  0.1598
28506W        W44315  16.652  14.442   4.136  0.1466  0.1861 -0.2041
28507W        W44316   9.930   3.270   5.658 -0.1286 -0.0964 -0.2226
28508W        W44317  14.609   2.348   0.831  0.2638  0.1393 -0.3085
28509W        W44318   6.222  13.815   3.894  0.2730 -0.1720 -0.3260
28510W        W44319   0.313   1.924  14.121  0.2444 -0.2337 -0.0764
28511W        W44320   3.374   1.370  12.730 -0.2218  0.2193 -0.1516
28512W        W44321   9.820  13.910  11.463 -0.3357  0.2273  0.0949
28513W        W44322   5.965   5.798  12.995  0.1580 -0.0675 -0.1040
28514W        W44323   2.959   4.700  13.427  0.0171  0.0703  0.0644
28515W        W44324  17.882  10.531   4.095 -0.0334  0.3125  0.3609
28516W        W44325   0.274   4.683   5.644 -0.1845 -0.1275 -0.3305
28517W        W44326   2.571   2.914   9.803  0.1403 -0.0119 -0.0275
28518W        W44327   3.279  10.452   2.580  0.2672 -0.2674  0.1638
28519W        W44328  15.320   0.484  12.078  0.1169  0.1375 -0.2037
28520W        W44329   5.228  13.104   3.639 -0.1059 -0.1244  0.1285
28521W        W44330  14.359  15.837  11.425 -0.1007 -0.1329 -0.0285
28522W        W44331  17.832   4.392   0.584  0.0324 -0.1502  0.0321
28523W        W44332   4.937   8.319   0.681 -0.0772 -0.1804 -0.0930
28524W        W44333   7.470  13.488   2.199  0.0316  0.0533 -0.2533
28525W        W44334   2.079   8.863   1.984  0.0429 -0.0545  0.0962
28526W        W44335  17.255   7.925  11.420 -0.1520 -0.1534 -0.2644
28527W        W44336   1.245   8.390  13.010  0.0951  0.0795  0.0618
28528W        W44337  17.588   8.011  11.845 -0.3123 -0.2736 -0.0335
28529W        W44338  12.890   3.149  12.878 -0.3607 -0.1295  0.2893
28530W        W44339   1.586   8.120  10.194  0.2480  0.1541 -0.2856
28531W        W44340   8.474   1.971   1.119  0.0235  0.0476  0.0398
28532W        W44341   1.563   0.588   4.402 -0.2360  0.1018  0.0509
28533W        W44342   9.058  11.357  10.517 -0.1081  0.0146  0.1240
28534W        W44343   7.399  11.350  12.599  0.2997 -0.0513 -0.0334
28535W        W44344   0.206   6.576   5.785 -0.2807 -0.0789 -0.1112
28536W        W44345  18.703  17.996  11.885  0.2185 -0.2054  0.0172
28537W        W44346  14.354  14.416  13.967 -0.0711 -0.3700 -0.1278
28538W        W44347  14.626  11.512   2.498  0.3105 -0.0086 -0.2303
28539W        W44348  12.539  17.591   9.632  0.0724  0.0979 -0.0841
28540W        W44349   5.659   9.384   4.681  0.1955 -0.1290 -0.1760
28541W        W44350   0.022   3.334   4.219 -0.2934  0.1850 -0.0758
28542W        W44351   0.987  10.260   4.889 -0.0144 -0.1860  0.0639
28543W        W44352  17.295  17.194   4.759  0.0966 -0.0309  0.2392
28544W        W44353  12.377  14.771   2.201 -0.2087 -0.0500  0.3210
28545W        W44354   4.401   1.330  15.071 -0.2799 -0.5144 -0.0429
28546W        W44355   8.356   2.663   1.221 -0.0733  0.0392 -0.1678
28547W        W44356   1.070   7.493   3.675  0.2628 -0.2199  0.0165
28548W        W44357  12.859  12.817   4.837  0.2105 -0.0412 -0.1659
28549W        W44358  16.790  10.283  12.914  0.0695 -0.1151  0.2833
28550W        W44359  18.898  15.758  11.536 -0.3524 -0.0555 -0.1358
28551W        W44360   3.581  14.965   3.832  0.0144  0.4662  0.0262
28552W        W44361   6.075  17.406   5.352  0.2394  0.0880 -0.1881
28553W        W44362   8.530  16.175  12.973 -0.3081  0.1715 -0.0356
28554W        W44363   8.998  14.230   0.723  0.1842 -0.0185  0.2911
28555W        W44364   9.020  16.157   3.228 -0.2943 -0.0058 -0.2846
28556W        W44365   5.951  18.206  14.772 -0.0393 -0.0250  0.3535
28557W        W44366   6.173   3.460  13.429 -0.2094 -0.4542  0.1278
28558W        W44367   2.449   3.523   1.138  0.0613  0.2978  0.1838
28559W        W44368   5.266   8.636   1.713  0.0575 -0.0402 -0.0333
28560W        W44369   1.013   9.310  13.604  0.0421 -0.1989 -0.2512
28561W        W44370  11.449   7.975   3.131  0.0702  0.3317  0.3003
28562W        W44371  15.837   9.608   4.814 -0.2045  0.1079 -0.2370
28563W        W44372   6.719  10.919   2.334 -0.0289  0.1243  0.1201
28564W        W44373   9.319   2.669  10.461 -0.0046  0.1367 -0.0389
28565W        W44374  14.970  10.033   6.002 -0.2000 -0.1206 -0.0739
28566W        W44375  17.411   4.147   1.425  0.0300  0.1777 -0.1492
28567W        W44376  12.622   6.561   5.349 -0.0571  0.0534 -0.1485
28568W        W44377   0.255  18.451   5.336 -0.1272 -0.2194  0.4165
28569W        W44378   1.410   3.726  10.772  0.2432  0.0849  0.0028
28570W        W44379   7.455   6.546   0.555 -0.1311 -0.3281 -0.0354
28571W        W44380   2.764   2.185   4.218  0.1819 -0.1142  0.1474
28572W        W44381  14.307   8.608  12.082 -0.0454 -0.0224  0.2533
28573W        W44382   2.250   4.363   3.233 -0.2994  0.0643  0.0144
28574W        W44383   2.847   7.351  15.154 -0.1700  0.1828 -0.1295
28575W        W44384   2.444  18.953  12.251  0.0030  0.1429  0.1654
28576W        W44385  16.721   0.767   3.223 -0.2190  0.0060 -0.0851
28577W        W44386   3.922   0.438   3.410  0.0813  0.0114  0.2090
28578W        W44387   5.100  17.115  10.508  0.4592 -0.1074 -0.0990
28579W        W44388  11.608   2.644   1.728  0.0833 -0.2715 -0.2634
28580W        W44389  18.915  14.046   2.478  0.3045 -0.2846 -0.0053
28581W        W44390  12.501  12.786   1.557  0.0719 -0.0344  0.2078
28582W        W44391  10.975   2.421  12.242 -0.1276  0.3473  0.0206
28583W        W44392   1.565  12.906  11.180 -0.2010  0.0131 -0.3431
28584W        W44393  17.636  17.341   3.762  0.1913 -0.4053  0.1997
28585W        W44394   1.260   4.841   9.428  0.1175  0.1343 -0.1215
28586W        W44395   4.245   0.648  11.192 -0.1319 -0.1568  0.0170
28587W        W44396  16.872   9.106   1.517  0.0785  0.1807 -0.1190
28588W        W44397  16.032  18.655  11.687  0.1751  0.2850 -0.3093
28589W        W44398  14.431  15.322  11.352 -0.1202  0.0454  0.2533
28590W        W44399  10.227   3.174   0.299  0.2726 -0.1119 -0.0447
28591W        W44400   6.495  10.668   1.070 -0.2456  0.1061 -0.0719
28592W        W44401   2.508   9.347   2.192 -0.2513  0.1807  0.0461
28593W        W44402  16.493  17.464  11.921  0.2450 -0.0168 -0.0124
28594W        W44403   1.060   8.613  11.910  0.0213 -0.0149  0.0631
28595W        W44404   1.268   3.719   3.458  0.2269 -0.0006  0.0202
28596W        W44405  14.927   7.553   0.168  0.1685 -0.2208 -0.3330
28597W        W44406   3.149   2.690   1.289  0.2037  0.1937 -0.0079
28598W        W44407  10.627  17.132   0.443 -0.1515 -0.1526  0.0938
28599W        W44408  13.447   0.880  12.713  0.2347 -0.1699 -0.0103
28600W        W44409  10.695   3.425   2.068 -0.0516 -0.5735  0.0368
28601W        W44410   4.551   6.196  12.425 -0.0485 -0.4373 -0.4008
28602W        W44411   2.797  11.402  13.399  0.2019  0.0984 -0.1797
28603W        W44412   7.220   7.872  14.068 -0.0551 -0.5131  0.1085
28604W        W44413   3.873  11.891  12.107 -0.0699 -0.1508  0.2330
28605W        W44414   5.474  16.734   2.020  0.0151  0.1400 -0.0290
28606W        W44415   0.275   5.299   2.768 -0.0164  0.0361  0.0824
28607W        W44416   9.807  14.801  13.096  0.1077 -0.0089 -0.3475
28608W        W44417   0.605   9.625   0.902 -0.0645 -0.1108 -0.0687
28609W        W44418   7.357   3.306  11.359  0.3122  0.1311 -0.2154
28610W        W44419   3.518   6.625  12.207  0.1102 -0.0844  0.1119
28611W        W44420  12.676   3.144   4.384 -0.1823  0.1303  0.0360
28612W        W44421   3.936  14.390  11.376  0.3432  0.1571  0.0751
28613W        W44422  16.561   0.633   3.710 -0.0383 -0.2211 -0.0698
28614W        W44423  10.842   1.694   2.449  0.2439 -0.0863  0.1106
28615W        W44424   4.472  11.639   2.108 -0.0133 -0.1419  0.0490
28616W        W44425  11.242   7.924   4.501  0.2431  0.1321 -0.3041
28617W        W44426  14.259  12.243  14.260 -0.3300 -0.1032 -0.3233
28618W        W44427  14.272   5.252  15.250  0.0386  0.0489 -0.0016
28619W        W44428  14.375  11.661  13.611  0.0184  0.2489  0.1005
28620W        W44429  17.075   8.269   3.994 -0.0827 -0.2839  0.2615
28621W        W44430   3.932  16.578  12.181  0.0582  0.2475 -0.3178
28622W        W44431   5.676  13.818  10.584  0.3225  0.0336 -0.2823
28623W        W44432   7.925  14.522   9.891  0.0871 -0.4183 -0.2358
28624W        W44433   5.150  15.562   4.144 -0.0190  0.1132  0.0455
28625W        W44434   1.851  15.308  15.066 -0.0874  0.0476 -0.0936
28626W        W44435  12.664  10.406  13.380  0.0137  0.1473 -0.1396
28627W        W44436   4.721   3.268  13.144  0.0221 -0.2064 -0.3481
28628W        W44437   6.594   0.570   4.360  0.2679 -0.1277  0.1517
28629W        W44438   3.098   4.613   2.235 -0.3160  0.1566 -0.1480
28630W        W44439  11.017   3.655   0.764 -0.0387  0.1511  0.2120
28631W        W44440   8.227  12.648  12.998 -0.1139 -0.1602  0.1082
28632W        W44441  11.886   5.027   0.921 -0.1470 -0.2554  0.2257
28633W        W44442   5.078  12.940   0.624  0.2424  0.0412 -0.2793
28634W        W44443   8.475   0.860  13.895 -0.2384 -0.2689  0.0546
28635W        W44444  13.317  16.766   0.187  0.1998 -0.0242  0.1242
28636W        W44445   8.672  12.003   3.330  0.1341 -0.2612  0.4735
28637W        W44446   1.285  12.204   9.242  0.0296  0.0825 -0.0402
28638W        W44447   0.028   3.345  13.804 -0.0537 -0.2709 -0.3001
28639W        W44448  10.707  17.932  11.456 -0.1250 -0.0044  0.1968
28640W        W44449  10.976  15.476   0.257 -0.2440 -0.1290 -0.2257
28641W        W44450   6.582  12.831   2.283 -0.0521 -0.0761 -0.1503
28642W        W44451  12.315  16.250   3.941  0.0492  0.2432  0.0180
28643W        W44452   4.680  13.185  12.362 -0.0009  0.0669 -0.2308
28644W        W44453   6.845  12.667  11.873  0.1326 -0.1162  0.1378
28645W        W44454   3.468  11.819   2.208  0.0274 -0.0372  0.2081
28646W        W44455  11.706  16.899   4.959  0.0168  0.1936  0.0804
28647W        W44456   5.637  14.522   4.319 -0.1264 -0.1053 -0.1169
28648W        W44457   3.814   4.693  10.828 -0.0311  0.0934 -0.2810
28649W        W44458  16.381   5.490  14.174 -0.1604 -0.2308 -0.0518
28650W        W44459   8.413  14.042  12.650 -0.3029 -0.1668 -0.0686
28651W        W44460   3.811  11.149   1.487 -0.0263  0.1299 -0.1766
28652W        W44461  12.022  16.084   3.301 -0.4474  0.3280 -0.1801
28653W        W44462   6.711   3.416   4.769  0.1616  0.2354 -0.3186
28654W        W44463  11.903   2.919   4.046 -0.1091 -0.0461  0.2284
28655W        W44464  18.810   7.276  10.812  0.0997  0.1403  0.0889
28656W        W44465  11.271   2.892   3.423 -0.1487 -0.0525  0.0917
28657W        W44466   4.564   2.485   1.312  0.0035 -0.2258  0.2102
28658W        W44467  17.219  13.933   4.572  0.0078  0.0936  0.0356
28659W        W44468  13.673  18.274  14.322  0.0805  0.4318  0.0615
28660W        W44469   7.016  18.289   4.046 -0.2232 -0.2596  0.2056
28661W        W44470  11.094   1.959  10.121 -0.2822 -0.0828  0.0665
28662W        W44471   2.439  11.946   2.007 -0.1223 -0.0755  0.0189
28663W        W44472  12.059   0.997  14.804  0.2918 -0.0537  0.0155
28664W        W44473   8.602  10.935   0.452  0.0949 -0.1656  0.2975
28665W        W44474   2.625   2.633  12.312  0.0363 -0.1688 -0.1032
28666W        W44475   5.605   4.963  11.354  0.0801 -0.0291  0.0870
28667W        W44476  14.605  13.075  11.125 -0.1625 -0.0515 -0.4082
28668W        W44477  15.556   9.484  13.911 -0.0048 -0.1221  0.1545
28669W        W44478  11.838  14.603   3.113 -0.2320  0.1665 -0.0574
28670W        W44479   7.306   2.579  14.959  0.2387 -0.1036 -0.1910
28671W        W44480  11.613  17.792  13.255 -0.1334  0.2063  0.0304
28672W        W44481  14.457   0.324   0.215  0.0210 -0.2431  0.0517
28673W        W44482  17.126   5.337  12.528 -0.0759 -0.0030 -0.1427
28674W        W44483  10.058   7.623   5.424 -0.0739  0.0276  0.3132
28675W        W44484   9.011   3.126  13.789 -0.0961 -0.3158  0.2120
28676W        W44485   6.230   9.171   2.567  0.0658 -0.3056  0.0280
28677W        W44486  13.178   3.386   3.256  0.2569 -0.3982 -0.1845
28678W        W44487  11.481   2.540   3.802  0.0210 -0.1118 -0.2849
28679W        W44488  17.101  12.279   5.961 -0.0395  0.2480 -0.1713
28680W        W44489   6.431  11.540  14.283 -0.3808  0.1558 -0.1515
28681W        W44490  12.580   5.898   4.843  0.0175  0.1133  0.2303
28682W        W44491   0.773   1.499   3.191  0.1330 -0.4555  0.0178
28683W        W44492   2.081  18.369  14.508 -0.0119 -0.0103 -0.5038
28684W        W44493  10.541  13.251  10.660  0.0344 -0.1955 -0.3194
28685W        W44494  10.174  12.562  11.287  0.0352  0.0580  0.1269
28686W        W44495   3.395  10.119  14.507 -0.1937  0.1497  0.4040
28687W        W44496   4.931  12.357  14.733  0.0921 -0.1681  0.1322
28688W        W44497   5.264   2.474   4.855  0.2705 -0.1043 -0.1095
28689W        W44498  12.032   9.867  14.390  0.4029 -0.1471  0.0797
28690W        W44499  17.300  17.269  11.804 -0.3402  0.0663  0.1474
28691W        W44500  14.907   4.209   2.370  0.3818  0.1449 -0.1153
28692W        W44501  15.762  12.759   1.384  0.0839 -0.2030  0.0208
28693W        W44502  13.010  15.365  15.269  0.0726 -0.1412  0.0638
28694W        W44503  10.001  16.559   3.821  0.0001 -0.1989 -0.0051
28695W        W44504  15.169   6.355  11.707 -0.1702  0.1423  0.2920
28696W        W44505   9.610   8.769  11.837 -0.3226  0.0582  0.1687
28697W        W44506  17.570   3.276   3.605  0.0075  0.1216  0.0597
28698W        W44507   6.447   5.383   4.454 -0.0845 -0.2785  0.1842
28699W        W44508   6.295   4.069   1.150 -0.0978  0.1021 -0.0593
28700W        W44509   8.152  15.929  14.945  0.2055  0.2756 -0.0562
28701W        W44510  18.733   8.934  11.667  0.0772 -0.1323  0.2009
28702W        W44511  14.841  18.706  14.204 -0.0470 -0.1501  0.2175
28703W        W44512   7.082   0.353  15.019 -0.2997 -0.1925 -0.0296
28704W        W44513   3.897  14.587   1.286  0.0868  0.0856  0.2910
28705W        W44514  11.770  13.480   2.456 -0.0836 -0.1882 -0.0369
28706W        W44515  17.400   5.226   2.298 -0.0336 -0.0867 -0.1099
28707W        W44516  17.534   4.384   0.114 -0.1676 -0.2733 -0.3454
28708W        W44517  17.097   3.209  10.264  0.2374 -0.0108  0.1822
28709W        W44518   6.310  18.521  12.640 -0.1427 -0.0601  0.0175
28710W        W44519   6.210   5.300  14.422 -0.4811  0.1485 -0.0323
28711W        W44520   1.776  12.555   0.157  0.2377 -0.1233 -0.1336
28712W        W44521   7.171  10.586  13.175  0.0781 -0.0455  0.1967
28713W        W44522   6.756   5.944   0.003  0.1530 -0.2440  0.3221
28714W        W44523   5.183  18.549  13.613  0.1676 -0.0098  0.0277
28715W        W44524   1.318   1.529  11.298 -0.1471 -0.0658 -0.3907
28716W        W44525  12.979   4.014   4.170 -0.0486  0.0674  0.2952
28717W        W44526  14.356   3.264  11.027 -0.1766 -0.1865 -0.0373
28718W        W44527  14.152  18.449   2.388  0.0618 -0.1969  0.0031
28719W        W44528  18.364  12.755   5.155 -0.0290 -0.2099  0.0025
28720W        W44529  13.713  16.133  10.833 -0.0551  0.0299 -0.0063
28721W        W44530   2.368  18.572  14.173 -0.0532 -0.0091 -0.1502
28722W        W44531  17.376   0.247  14.323 -0.1216 -0.0023 -0.4063
28723W        W44532   4.721   0.613  12.094 -0.1137  0.2105  0.0069
28724W        W44533   8.866  15.864   0.094 -0.1361  0.0215  0.3510
28725W        W44534  18.800  16.070   3.212 -0.0897 -0.2144 -0.0679
28726W        W44535   6.637   3.904  11.413  0.0213 -0.1627  0.0078
28727W        W44536  17.880   8.584   0.487  0.0473 -0.1586 -0.2078
28728W        W44537  10.240   8.288   4.032  0.0914  0.0596 -0.0344
28729W        W44538   5.081  16.035  14.415  0.0882 -0.0663 -0.0726
28730W        W44539  11.072  14.570   1.986 -0.3344 -0.1806  0.3527
28731W        W44540   5.055   6.758  12.889  0.0915  0.2516 -0.1912
28732W        W44541  10.282   1.022  11.950 -0.0760  0.0231  0.1634
28733W        W44542  18.769  16.254   0.072  0.0668  0.4604  0.0157
28734W        W44543   5.414   3.693   3.733  0.0451  0.2297 -0.0485
28735W        W44544  14.938   8.753  12.715  0.3602 -0.0893 -0.0222
28736W        W44545   4.055   4.488  12.123  0.3944 -0.0759 -0.3471
28737W        W44546   4.048  11.730  10.330  0.0966 -0.1574  0.1358
28738W        W44547  16.184   4.890  14.736 -0.1650  0.1736 -0.2835
28739W        W44548   9.551   2.854  11.623 -0.0486  0.0933 -0.0188
28740W        W44549  12.562   9.184   1.398  0.3326 -0.2106 -0.0898
28741W        W44550  17.886  12.262   2.215 -0.0030 -0.0972  0.2044
28742W        W44551  13.931   5.328   2.043  0.0280  0.0513  0.5520
28743W        W44552  14.304  18.649  13.791  0.2303 -0.2179 -0.0768
28744W        W44553   7.942  18.827   3.921  0.2341 -0.1685 -0.0916
28745W        W44554   3.403   0.409   3.206 -0.0995  0.0693  0.3445
28746W        W44555   9.058  10.711  11.371  0.3879 -0.0602  0.0455
28747W        W44556   9.092  17.791  12.890  0.1888 -0.1631  0.1288
28748W        W44557   7.649  11.110  10.269  0.3268  0.0723 -0.2624
28749W        W44558  11.576  12.888  11.002 -0.0952  0.3428  0.0283
28750W        W44559  13.274  18.744   2.250 -0.0193  0.0184 -0.1396
28751W        W44560  17.384  14.084   2.520 -0.0110 -0.0384  0.0723
28752W        W44561  12.611   3.255   2.385  0.0229  0.2224 -0.0189
28753W        W44562   7.449  10.250   4.881  0.2913 -0.1034  0.2321
28754W        W44563  10.558  18.117  11.877 -0.0843 -0.1674  0.0030
28755W        W44564   8.091  10.081  10.734 -0.2815 -0.1573  0.0342
28756W        W44565  11.171   5.976   5.764  0.1070 -0.4052 -0.0185
28757W        W44566  16.543   3.635   3.630  0.1671  0.0740 -0.0825
28758W        W44567   4.425  14.683   0.603 -0.0628 -0.3334  0.1784
28759W        W44568   2.888   8.501  13.686  0.0916 -0.0267 -0.0500
28760W        W44569  16.323   6.066   4.761 -0.0494 -0.1722 -0.0421
28761W        W44570  14.747  10.014  15.014 -0.2340 -0.1770  0.1773
28762W        W44571  13.471  11.562   0.726 -0.0518 -0.1257 -0.0937
28763W        W44572   6.823  13.638   3.715 -0.0333  0.0487  0.3815
28764W        W44573   3.694  10.075  13.504  0.0533 -0.2222 -0.0126
28765W        W44574  14.863  10.749  13.580  0.0435 -0.2987 -0.0977
28766W        W44575   1.635  14.105   5.570 -0.3777 -0.3317  0.1898
28767W        W44576   4.473  13.016  10.587  0.0373 -0.1884 -0.1258
28768W        W44577   0.059   4.373   1.961 -0.2046  0.1941 -0.2211
28769W        W44578   4.630   9.760  12.263 -0.1721 -0.1212  0.1382
28770W        W44579  13.208  11.874   2.582 -0.3916  0.2915  0.0241
28771W        W44580  13.211   2.135  13.888  0.1376  0.2020 -0.1091
28772W        W44581  15.381   7.385  12.476  0.1880 -0.2416  0.1776
28773W        W44582  15.332   1.574  13.082 -0.0181 -0.2290 -0.2093
28774W        W44583  13.247   2.258   5.181 -0.2422 -0.0889  0.1159
28775W        W44584   6.908  15.258   4.370  0.1635  0.2220 -0.4305
28776W        W44585   6.664  15.088   1.473 -0.0340  0.1909  0.1412
28777W        W44586   5.061  12.524  10.646 -0.2105 -0.2173  0.2568
28778W        W44587  18.833  14.377   2.137  0.0827  0.0865 -0.2346
28779W        W44588   7.992   7.824   2.570  0.1573  0.2792  0.2625
28780W        W44589  10.643   8.583   1.726  0.2199  0.0875  0.2583
28781W        W44590   6.043   5.095  11.133 -0.2558 -0.0705 -0.4109
28782W        W44591   4.673   1.929  12.747  0.4362 -0.1438 -0.1152
28783W        W44592   5.331   9.672  11.537  0.3945 -0.0059  0.1026
28784W        W44593   8.128   5.942   0.354 -0.0564 -0.0835 -0.2695
28785W        W44594   7.827   7.275   2.695  0.0870  0.1964 -0.1775
28786W        W44595   3.429  16.927   4.812  0.1883 -0.2439  0.2940
28787W        W44596   3.436  17.078  12.989 -0.0041 -0.1406  0.1951
28788W        W44597  15.720  12.199   0.016  0.3009  0.0784  0.0840
28789W        W44598   2.060  11.552  12.285 -0.2836 -0.0113 -0.1345
28790W        W44599   8.472   7.109   3.017  0.2049  0.1114 -0.0497
28791W        W44600   4.278   0.806  12.069  0.0478  0.1717 -0.1318
28792W        W44601   9.727   4.000  11.614  0.0325 -0.0590 -0.2927
28793W        W44602   6.268  12.589   0.815 -0.0493 -0.1139 -0.0718
28794W        W44603   2.946   8.516  10.341  0.0101 -0.2293  0.0946
28795W        W44604  14.738   0.682   1.072  0.0790 -0.2678  0.0583
28796W        W44605   0.951   8.742  14.349  0.4333  0.0570 -0.0571
28797W        W44606   9.712   6.573  14.527  0.1097 -0.1037 -0.2981
28798W        W44607   9.738  14.057   1.140 -0.2242  0.0403 -0.0394
28799W        W44608   8.722  10.288  12.508  0.4334 -0.0553  0.1241
28800W        W44609  18.343   1.288   0.908 -0.2012  0.2512  0.3242
28801W        W44610   7.931   9.241  13.215 -0.1281 -0.0800 -0.1682
28802W        W44611  14.143   4.446   2.282 -0.0488 -0.3621 -0.2529
28803W        W44612  16.742   6.864  15.142 -0.2478  0.1686  0.3766
28804W        W44613  18.440   6.339  13.289 -0.0862 -0.2042  0.1400
28805W        W44614   1.143   9.203   4.513 -0.1541 -0.1491  0.0239
28806W        W44615   8.119  14.646   2.794 -0.0205 -0.5375  0.0395
28807W        W44616  11.395   9.727   1.054  0.0522  0.2478  0.1717
28808W        W44617  18.548  18.232   2.276 -0.0374 -0.0474 -0.1453
28809W        W44618  14.003  15.078   2.400 -0.2382 -0.0362 -0.0538
28810W        W44619  11.925  16.738  12.983 -0.1004  0.2140 -0.0450
28811W        W44620  15.606   5.615   3.284  0.2516  0.2844  0.0175
28812W        W44621  17.200   3.447   3.894 -0.3116  0.0102 -0.1358
28813W        W44622   7.123  13.856  11.749 -0.0121 -0.2555  0.2184
28814W        W44623  14.858  15.658   2.792 -0.1572 -0.2913  0.1757
28815W        W44624  18.450  14.090   4.107 -0.0845  0.0660  0.2111
28816W        W44625   5.631   7.792   2.555  0.1723 -0.0300  0.2335
28817W        W44626   8.248  10.799   4.822  0.0724 -0.1186 -0.1711
28818W        W44627   2.930   5.237  14.298 -0.2219 -0.0290  0.3435
28819W        W44628  12.275  12.295   0.938 -0.2437  0.1709 -0.0300
28820W        W44629   0.975   8.723   4.972 -0.2357  0.0318 -0.2340
28821W        W44630  14.155  16.151   1.637  0.0182 -0.2182  0.2742
28822W        W44631  17.947   6.196   4.589  0.1460  0.1688  0.1037
28823W        W44632  10.750   3.934   2.088  0.3234  0.0525  0.1082
28824W        W44633   6.033  17.695  11.784  0.1697 -0.3759  0.0550
28825W        W44634  15.744   7.139  10.948 -0.1381 -0.0556  0.0363
28826W        W44635  14.113   0.109   0.668  0.0024 -0.1028 -0.0283
28827W        W44636   8.812   3.023  11.391  0.0595 -0.3753  0.2228
28828W        W44637   4.205   3.325  13.320  0.1567 -0.2943 -0.0870
28829W        W44638   7.609  18.949  13.727  0.1514 -0.1071  0.3144
28830W        W44639  10.210  11.255  12.212  0.1344  0.3226 -0.1541
28831W        W44640   1.650   6.504  13.151 -0.0209  0.0749  0.0035
28832W        W44641  17.441   7.579  14.262 -0.0397  0.0202  0.1718
28833W        W44642  18.573   8.768  14.407  0.0531  0.0762 -0.1635
28834W        W44643   1.922  16.510   1.491 -0.1442  0.0631 -0.1858
28835W        W44644  15.391   9.516   1.122 -0.1126  0.3797  0.1436
28836W        W44645  12.635   3.404  13.360  0.0405  0.0042 -0.0756
28837W        W44646   9.704  15.266  10.988 -0.1423  0.0073 -0.0997
28838W        W44647   3.317  12.835   4.808  0.3062 -0.1064  0.1261
28839W        W44648   5.448  17.560   1.698  0.1270 -0.2581 -0.0450
28840W        W44649   1.106   8.341   4.513  0.3219  0.0275 -0.3739
28841W        W44650   9.296   4.825  12.410  0.1342  0.2103  0.1448
28842W        W44651   3.258  13.760   2.424  0.2715 -0.3712 -0.1571
28843W        W44652  17.837  13.697  12.713 -0.0623  0.1626  0.3455
28844W        W44653  17.494  10.252   4.640  0.0198  0.1707  0.1006
28845W        W44654   3.809  17.969  12.441  0.2268  0.2236 -0.0759
28846W        W44655  18.966   1.396  12.262  0.1024 -0.0605 -0.0252
28847W        W44656   3.765   1.935   3.255  0.0355  0.0604  0.1016
28848W        W44657  11.030   3.009   4.331  0.0343 -0.0609  0.1053
28849W        W44658  13.054   0.681  14.505  0.2461  0.1920 -0.3583
28850W        W44659  17.795   9.892  13.695  0.0132  0.2928  0.0249
28851W        W44660   6.897  13.491  13.617 -0.0896 -0.1312 -0.2315
28852W        W44661   4.701  14.547  12.733  0.1457  0.0453  0.1627
28853W        W44662  12.415   1.603  14.224 -0.0455  0.3713  0.1069
28854W        W44663   7.318  15.801  12.676 -0.1116 -0.1307  0.1823
28855W        W44664  15.565   0.812  10.936  0.2308 -0.0442 -0.0158
28856W        W44665  17.672  13.300   2.428  0.1084 -0.0156  0.0734
28857W        W44666  14.626   3.950   1.242 -0.0449  0.0660 -0.1881
28858W        W44667   7.628   9.068   3.880 -0.0248 -0.1362  0.4787
28859W        W44668   2.952   3.443   0.757  0.1685  0.2219 -0.0030
28860W        W44669  13.892  10.554  10.162 -0.2714 -0.0122 -0.4417
28861W        W44670  12.625   3.858  14.169  0.0400 -0.0606 -0.0894
28862W        W44671   7.930   5.882   0.845 -0.3783 -0.1639  0.5957
28863W        W44672   9.846   3.427  13.018  0.2980 -0.1545 -0.1395
28864W        W44673  11.777  16.626   2.005  0.0930 -0.1389 -0.2999
28865W        W44674   2.376  18.219   2.771  0.0444 -0.1290 -0.1069
28866W        W44675   5.461   7.499   4.685  0.0864 -0.1107  0.1464
28867W        W44676  11.370  14.927  10.559  0.0089 -0.1061 -0.0822
28868W        W44677   2.254  16.129  13.417 -0.0583 -0.2499  0.0581
28869W        W44678  15.078  14.455   3.367 -0.2446 -0.0971 -0.1523
28870W        W44679   6.038   8.169  12.043  0.1718  0.0177 -0.1198
28871W        W44680   0.711  12.824   3.977 -0.0635 -0.2001  0.0978
28872W        W44681   4.083   5.728   3.108 -0.1451  0.1729  0.0149
28873W        W44682   2.531   0.089  13.790 -0.1594  0.0013  0.1745
28874W        W44683  12.868   9.609  12.837  0.1319  0.1753 -0.1864
28875W        W44684  15.101  18.439   4.089  0.1585  0.0993  0.1586
28876W        W44685   1.404   6.986   4.505 -0.1736 -0.2347  0.0339
28877W        W44686  11.441  16.517  10.678 -0.0808 -0.0657 -0.0361
28878W        W44687   1.841  16.216  13.089 -0.0180 -0.4049 -0.0228
28879W        W44688   3.726  14.811   2.949  0.0049  0.0999 -0.2779
28880W        W44689   8.638  14.795   4.098 -0.0371  0.1591 -0.1186
28881W        W44690   4.236  14.895   4.379 -0.2468 -0.0592  0.2895
28882W        W44691   9.722   5.494   1.003 -0.0015 -0.1869 -0.0181
28883W        W44692   0.232   4.551  11.238  0.0130 -0.1122 -0.0293
28884W        W44693  14.992   9.955  10.970 -0.4227  0.1976 -0.1162
28885W        W44694  11.974   9.921   2.573 -0.1224  0.1944  0.3465
28886W        W44695  12.108  12.260  14.915 -0.0885 -0.0789  0.2192
28887W        W44696   1.626   0.038   4.293  0.2236  0.1366  0.0441
28888W        W44697  11.190  16.627   3.919  0.1819  0.0703  0.1997
28889W        W44698   7.112   6.771   0.821 -0.1420  0.3493 -0.2796
28890W        W44699  10.599   0.242   0.346 -0.4424 -0.0262 -0.2720
28891W        W44700  10.444   1.658   2.859 -0.2632  0.1941  0.3939
28892W        W44701   8.988  11.941   2.682  0.0337 -0.2969 -0.0281
28893W        W44702   6.478  12.914   3.858 -0.1054  0.1589 -0.1072
28894W        W44703   6.445   9.881   3.898  0.1338  0.1251  0.0341
28895W        W44704  12.132   4.463  11.696  0.1593  0.2961 -0.2435
28896W        W44705  10.689   4.818  11.568  0.0313 -0.0391 -0.5639
28897W        W44706  16.617   7.267   2.176 -0.0666 -0.2371 -0.1242
28898W        W44707   0.817   0.733   2.500  0.0929  0.2417 -0.0680
28899W        W44708  11.717   3.377   4.040 -0.0058  0.2617 -0.2238
28900W        W44709  16.322   1.587   3.366  0.1620 -0.5116 -0.1665
28901W        W44710   6.284   8.689   0.258 -0.0595  0.0595  0.2254
28902W        W44711   2.320  12.392   0.176  0.0011  0.1054 -0.1669
28903W        W44712   0.194   8.643  11.033  0.0267  0.2494  0.1089
28904W        W44713  10.017   7.281   3.070 -0.2500  0.1982  0.0353
28905W        W44714  10.622  14.164  10.868 -0.0773  0.1132 -0.1761
28906W        W44715  17.297   6.399   5.136  0.0311  0.2998 -0.2135
28907W        W44716  10.498   9.479   1.593 -0.1203 -0.2786  0.3105
28908W        W44717  16.658   2.900   0.056 -0.0765 -0.0808  0.3404
28909W        W44718   8.690   2.390   1.922  0.0672 -0.2391 -0.1194
28910W        W44719   9.011   8.462   1.113 -0.1167 -0.1757  0.2652
28911W        W44720   1.462   3.422  12.475 -0.1452 -0.5823  0.1665
28912W        W44721   8.341  11.900  10.651  0.0996 -0.0480 -0.1521
28913W        W44722   6.113  17.074  10.114  0.1177 -0.0030  0.4022
28914W        W44723  18.564   3.180  13.741  0.2483 -0.1142 -0.2110
28915W        W44724  14.392  18.957  14.202  0.0807 -0.0929  0.1098
28916W        W44725  18.656  15.632   1.794 -0.0465 -0.1501 -0.4126
28917W        W44726   6.287  12.340   3.585  0.1667 -0.0642 -0.0200
28918W        W44727   2.643   8.817  13.429  0.1508 -0.2587 -0.2153
28919W        W44728  13.532   0.254  13.920 -0.4099  0.0736 -0.3558
28920W        W44729   4.795   8.378  14.592 -0.0549 -0.3009 -0.1851
28921W        W44730   1.878   1.957  13.724 -0.1995 -0.0599 -0.0196
28922W        W44731  13.662   0.784  13.369 -0.0954 -0.0257 -0.2431
28923W        W44732  15.841  18.475  13.872  0.0898 -0.0233  0.1201
28924W        W44733  17.122   5.833   2.968  0.1030 -0.1189  0.0632
28925W        W44734  15.758  12.041  13.470  0.2015 -0.2167  0.0200
28926W        W44735   0.357   3.093  13.266  0.3313 -0.2508 -0.2674
28927W        W44736   9.891   0.053  12.339 -0.1005  0.0643 -0.0848
28928W        W44737   6.235   2.470   2.716 -0.0727  0.0984 -0.0344
28929W        W44738   7.170  15.700  11.539  0.0561 -0.1351 -0.0425
28930W        W44739   4.009   4.465  11.491 -0.1107 -0.1352  0.1412
28931W        W44740   9.734  16.144   1.443  0.1813  0.1289  0.0894
28932W        W44741  18.955   4.527  12.513  0.2609 -0.0822 -0.3600
28933W        W44742   3.493   3.211  10.865 -0.0053  0.2122  0.0135
28934W        W44743  18.276   7.332   4.029  0.1517  0.1430  0.0277
28935W        W44744   8.391   3.718   0.320  0.0025  0.2860  0.0663
28936W        W44745   6.938   0.746   2.793  0.0115  0.0815  0.1072
28937W        W44746   3.414   6.781  15.170 -0.2253  0.0805  0.2714
28938W        W44747   8.039   7.571  14.216 -0.0657 -0.2601 -0.0131
28939W        W44748  17.491  10.202  12.967  0.1081 -0.1239 -0.4907
28940W        W44749   2.288  17.875   2.399  0.1871 -0.0300 -0.2293
28941W        W44750  10.235   3.227  11.240  0.1100  0.3191  0.3258
28942W        W44751   0.007  14.427   4.814 -0.1769 -0.0639  0.0372
28943W        W44752   2.992   5.251   5.290 -0.1868 -0.1588 -0.0909
28944W        W44753  13.177  17.259   1.846 -0.1009 -0.2564  0.4622
28945W        W44754  18.467   9.031  15.153 -0.0575  0.5572  0.1407
28946W        W44755   9.507   8.654   4.958 -0.1578 -0.0902  0.3431
28947W        W44756  16.408   0.518   4.817 -0.0203 -0.2902 -0.1491
28948W        W44757  15.985   5.850   5.043 -0.0721  0.0034  0.1787
28949W        W44758   7.933   5.486   1.642  0.0875  0.0957  0.0789
28950W        W44759   3.364   6.609   4.334 -0.2274  0.1964 -0.1071
28951W        W44760  12.242   4.968  12.800  0.0972 -0.0071 -0.0850
28952W        W44761   7.453   9.466  11.433 -0.2560  0.2672  0.1155
28953W        W44762   4.877  12.195  13.342  0.1568 -0.1606  0.2275
28954W        W44763   0.731   7.839  13.252  0.3877 -0.2459 -0.1133
28955W        W44764   9.516  17.661   2.334 -0.4176 -0.0166 -0.1151
28956W        W44765  12.275  10.651  12.366  0.1895  0.3071  0.0959
28957W        W44766   8.474  17.912  13.795 -0.2396  0.0664  0.0462
28958W        W44767  13.257  10.861  13.874 -0.0104  0.2921 -0.1694
28959W        W44768  17.442  14.838  13.517  0.0753  0.0875  0.1590
28960W        W44769   7.571   5.332   0.631  0.1823  0.0873  0.1003
28961W        W44770  13.924  14.569  14.940  0.2684  0.1886  0.1891
28962W        W44771   8.761   0.807   3.520 -0.1915  0.1369 -0.1773
28963W        W44772  16.724   7.907  13.369  0.0651  0.0295 -0.0964
28964W        W44773  15.904  11.248   5.055 -0.4049  0.0111  0.1507
28965W        W44774  15.300  11.302  12.152  0.1226 -0.0616 -0.3706
28966W        W44775  16.799  17.558  14.858  0.0121 -0.3059  0.1634
28967W        W44776  14.941   0.286   1.308  0.1313  0.2567  0.0638
28968W        W44777  12.443  12.761  13.500  0.0129 -0.0913 -0.1851
28969W        W44778   5.563   9.534  11.115 -0.3495 -0.1669 -0.0342
28970W        W44779  18.477  17.008   0.105  0.0680  0.2559  0.2160
28971W        W44780  16.832  18.446  13.687  0.0673  0.1755  0.1185
28972W        W44781   0.459  15.270  12.038 -0.1841  0.1595  0.0002
28973W        W44782  12.006  11.140   1.773  0.2680  0.2019  0.2076
28974W        W44783   9.244   9.667  10.793  0.0653  0.1653 -0.0797
28975W        W44784   2.802  14.665   5.333 -0.2168 -0.0882 -0.1948
28976W        W44785   0.404   9.303   1.278 -0.1746  0.3960  0.1514
28977W        W44786  15.158   1.039  10.673  0.3169 -0.1494  0.0821
28978W        W44787  15.571  13.476  11.649 -0.0244  0.1738 -0.1698
28979W        W44788  15.063  17.082  11.857 -0.0857  0.1421  0.0094
28980W        W44789   8.472  10.827  10.521 -0.2772  0.1167  0.0359
28981W        W44790  13.890   8.073   3.636  0.2386  0.1434  0.0709
28982W        W44791   3.960   3.294  10.652 -0.3690 -0.0424  0.3504
28983W        W44792   5.028  13.267  14.945 -0.1735  0.1162  0.0732
28984W        W44793  11.341   7.015   1.759 -0.2093  0.0218 -0.1364
28985W        W44794   9.051   5.500   1.848 -0.0060 -0.1565  0.1262
28986W        W44795   1.819   0.691  11.198 -0.2542  0.1545  0.1337
28987W        W44796   3.549  15.331  11.291  0.1285 -0.1225 -0.1217
28988W        W44797   4.096   1.035  12.487  0.0068  0.3265 -0.3044
28989W        W44798  11.087   0.694  12.648 -0.2992 -0.1653 -0.0433
28990W        W44799   7.589  11.711  10.981  0.4802 -0.1083  0.1978
28991W        W44800   7.895   4.450  11.408  0.2801  0.0769 -0.1889
28992W        W44801   0.271   8.377   4.344 -0.0169  0.2990 -0.0405
28993W        W44802  12.619   2.712  14.727  0.1610  0.1158 -0.0419
28994W        W44803   8.641   6.287   2.911  0.1528  0.0409 -0.0951
28995W        W44804   2.534   4.452   3.666 -0.0231 -0.2497 -0.1550
28996W        W44805  17.667   5.528   4.280  0.2143  0.1653 -0.1130
28997W        W44806  13.388   6.427   1.876  0.1539  0.1688 -0.0174
28998W        W44807  13.257   9.866  13.019 -0.4154 -0.1437  0.1566
28999W        W44808   1.297   4.260  14.133 -0.0005 -0.0263  0.2511
29000W        W44809   6.747  17.854   4.299 -0.1835  0.1763  0.0809
29001W        W44810  11.776   8.550  12.037  0.1592 -0.4054  0.3272
29002W        W44811   1.929   4.553  10.691  0.1838 -0.2628 -0.1094
29003W        W44812  11.469  12.408  12.557  0.1128  0.1736  0.0212
29004W        W44813   1.700   8.659  11.938  0.1826  0.1626 -0.0505
29005W        W44814   1.946  14.812  12.233 -0.2134  0.0606 -0.1150
29006W        W44815   5.661   7.615   1.105 -0.1528 -0.1733  0.3000
29007W        W44816   2.966  16.079   1.048  0.1739  0.0763  0.1295
29008W        W44817  15.779   1.297   2.611 -0.0461  0.3597  0.0653
29009W        W44818   6.512  16.805   0.619 -0.0836 -0.0910  0.0871
29010W        W44819   9.612   1.451  11.021 -0.0189  0.0484 -0.2033
29011W        W44820   1.026  17.792   3.650  0.0424 -0.3201 -0.1037
29012W        W44821   6.867   4.377  15.002 -0.1856  0.0804  0.0625
29013W        W44822   3.234   0.546  11.540  0.1142  0.4827  0.1749
29014W        W44823   3.233   6.883   2.960 -0.0152 -0.1332  0.1702
29015W        W44824  15.419   6.223  13.714 -0.1109  0.0202 -0.1223
29016W        W44825  16.126   5.748   5.535 -0.0902  0.1652 -0.2663
29017W        W44826  13.267  11.055   3.050  0.0441  0.0636  0.2253
29018W        W44827  13.340  11.310   3.776 -0.1407  0.4108 -0.1084
29019W        W44828  18.068   9.507  13.469 -0.0849  0.2430  0.0014
29020W        W44829   9.121  18.026   2.518 -0.1066  0.0204  0.2813
29021W        W44830  17.850   3.245  12.896 -0.1189  0.0318 -0.0147
29022W        W44831   6.836   1.337   2.725 -0.1539  0.3234 -0.0157
29023W        W44832   3.121   9.646   4.083 -0.2467 -0.2422 -0.1903
29024W        W44833   0.481  12.147  13.428 -0.1286  0.1148 -0.3863
29025W        W44834  10.311   3.292   0.893 -0.0369 -0.0876  0.3774
29026W        W44835   6.079   7.917   2.674 -0.0965 -0.0355 -0.0827
29027W        W44836   4.314   0.297   2.646 -0.0744  0.1612 -0.1911
29028W        W44837   5.597   0.552   2.148  0.3586 -0.0423 -0.1858
29029W        W44838  17.375   3.685   5.624  0.3023  0.0283  0.2197
29030W        W44839  17.860   1.897   1.148  0.0105 -0.1082  0.0124
29031W        W44840   0.934   8.668   3.836 -0.1086 -0.1477  0.1862
29032W        W44841   8.421  11.449  13.276 -0.0125 -0.0368  0.0280
29033W        W44842   9.227  12.192  11.526  0.0646  0.1768  0.0135
29034W        W44843  11.625  18.607  13.917 -0.1475 -0.2835  0.0412
29035W        W44844   0.127  13.132  10.987  0.0983 -0.0127 -0.2326
29036W        W44845  12.137   5.910  14.869 -0.0367  0.1811  0.2642
29037W        W44846  13.065   7.199  11.541 -0.3800 -0.0052  0.3701
29038W        W44847  13.987  18.306   1.951 -0.0366 -0.0067 -0.0461
29039W        W44848  14.162  14.152  14.843  0.0554 -0.2222  0.3616
29040W        W44849   4.457  13.177   1.123 -0.3080  0.1090 -0.0955
29041W        W44850  10.078   3.593  10.833  0.0939 -0.3352 -0.0429
29042W        W44851   5.571  11.427  12.689 -0.1304 -0.1262  0.0970
29043W        W44852  16.006   6.671  13.031  0.1614  0.0453 -0.1761
29044W        W44853   7.750  18.660   2.821 -0.4786  0.4079  0.0374
29045W        W44854   5.464   9.509  14.353  0.0797  0.1608 -0.0426
29046W        W44855   8.149   1.846  14.223 -0.2761  0.1495 -0.3699
29047W        W44856   2.373  18.948   1.783  0.0241  0.1965  0.0950
29048W        W44857  18.415   1.110  12.205  0.2600  0.2411 -0.0818
29049W        W44858  11.678   0.386  13.789  0.1709 -0.0771 -0.1553
29050W        W44859   9.044  16.700  13.627  0.0035 -0.0084 -0.1396
29051W        W44860  10.684   4.504   0.403  0.0809  0.3375  0.2721
29052W        W44861  13.870   4.290   1.005 -0.1226  0.1112 -0.0796
29053W        W44862  15.855  18.135   2.978  0.0391 -0.1847  0.0305
29054W        W44863  14.516   7.892   0.505 -0.3899  0.0511  0.2463
29055W        W44864  18.323   1.584   2.084  0.0555 -0.0442  0.2579
29056W        W44865  12.744  15.392  14.060  0.1412 -0.0389  0.0467
29057W        W44866   0.286  18.073  10.899 -0.1034  0.2909 -0.0672
29058W        W44867   9.373  18.682  10.897  0.0260 -0.0525 -0.1175
29059W        W44868  13.921   2.129   2.049 -0.3202  0.3732 -0.0580
29060W        W44869   7.099  10.675   1.785 -0.0550  0.0283  0.0790
29061W        W44870   3.181  18.696   1.120  0.1242 -0.0530 -0.0240
29062W        W44871  13.951  13.580   4.696  0.0120 -0.1103 -0.2203
29063W        W44872   5.035   9.111  10.590  0.2158  0.0503  0.2282
29064W        W44873  17.128   8.345  11.180 -0.1830 -0.1433 -0.0978
29065W        W44874   3.376  12.323   2.365 -0.1269  0.4158  0.0375
29066W        W44875  11.018   9.160   9.936  0.2205 -0.2995 -0.2928
29067W        W44876   8.926  18.887   3.979 -0.1483 -0.1649 -0.0284
29068W        W44877   0.736   0.827   1.893 -0.1126  0.0934  0.0485
29069W        W44878   7.342  11.803  12.194  0.1434 -0.2560 -0.3525
29070W        W44879  18.703   1.917  12.858  0.1375 -0.3305 -0.0246
29071W        W44880   8.902  14.325  13.474 -0.0820 -0.0480  0.2426
29072W        W44881  15.131   5.162  14.314  0.0328 -0.0467  0.1190
29073W        W44882   0.994  14.432   3.147  0.0127 -0.2640  0.0285
29074W        W44883  16.791   1.367  12.084 -0.1308 -0.0336 -0.1823
29075W        W44884   4.525   9.189  10.200  0.1553 -0.2494  0.3569
29076W        W44885  15.354   2.950  11.742  0.1617 -0.0837 -0.3547
29077W        W44886   5.410  11.912  15.133 -0.2316 -0.1193 -0.1926
29078W        W44887   3.972   0.327   3.907 -0.1360 -0.1589 -0.2963
29079W        W44888   2.330   6.988  14.117  0.1445  0.0884 -0.0253
29080W        W44889   7.357   0.935   1.835 -0.0518 -0.0413  0.1039
29081W        W44890  12.318  10.960  11.241  0.1078  0.0925 -0.3311
29082W        W44891  18.262   7.824   4.042 -0.1946 -0.0339  0.3464
29083W        W44892   8.786  17.332  12.135  0.5741 -0.0473 -0.1628
29084W        W44893  13.239   5.319  14.193  0.0165  0.1539  0.2118
29085W        W44894   2.869  15.108  13.982  0.0921  0.3904 -0.1714
29086W        W44895   2.904  18.928   1.527  0.1936 -0.0160  0.2583
29087W        W44896  14.905   5.495   4.606  0.1128 -0.0519  0.0617
29088W        W44897  13.281   7.881   4.969  0.2899 -0.0744  0.2018
29089W        W44898   7.053   3.523  11.758  0.0953 -0.1705 -0.1792
29090W        W44899   3.189  10.137  13.577  0.0368  0.0434 -0.4311
29091W        W44900  17.918  12.296  12.591 -0.1940 -0.1044 -0.1801
29092W        W44901   8.658  18.394   0.194 -0.0870 -0.0148  0.4852
29093W        W44902  11.622   9.236  14.875  0.3496  0.3300 -0.3481
29094W        W44903  15.651   8.717  13.011 -0.1802  0.1580 -0.0911
29095W        W44904  18.656   4.730  13.547  0.4590 -0.0487  0.2543
29096W        W44905  14.002  16.010   5.104  0.1439  0.1791  0.2746
29097W        W44906   1.500   2.188   4.096  0.0585  0.0495 -0.1956
29098W        W44907  16.774  10.849   3.744  0.0119 -0.3059 -0.0676
29099W        W44908   5.996  15.215   1.046 -0.1415  0.0449  0.1696
29100W        W44909  16.291  16.552   0.402 -0.0782 -0.0435  0.2716
29101W        W44910   9.649  12.482  11.315  0.1265  0.0334  0.0642
29102W        W44911   8.440  12.818   9.341 -0.0216  0.1960 -0.1679
29103W        W44912  16.747  17.853   5.006  0.0714  0.0497 -0.0330
29104W        W44913  11.238   0.808   0.934  0.3807 -0.3710 -0.1399
29105W        W44914  17.546   5.297   0.518  0.1914 -0.0790  0.0650
29106W        W44915   5.298   5.241   3.999  0.1809  0.2745  0.0091
29107W        W44916   1.867  18.410   4.775  0.1921  0.1350  0.3398
29108W        W44917   9.665  13.158   9.076  0.1291 -0.2120  0.0358
29109W        W44918  11.557   8.604   3.958  0.0558  0.1220  0.0543
29110W        W44919   7.613   2.046   0.431  0.1280 -0.1563 -0.0227
29111W        W44920  11.796   9.267   0.731 -0.1209  0.1121 -0.0326
29112W        W44921  13.552   7.868  12.203  0.1777 -0.0729  0.3463
29113W        W44922   3.364   7.890   2.163  0.0842  0.0634 -0.2911
29114W        W44923  15.066   9.867  12.978  0.1837 -0.1360  0.1621
29115W        W44924  15.775  13.595  14.625 -0.2427  0.0696  0.0547
29116W        W44925  17.548  17.941  11.103 -0.3794  0.2120 -0.0995
29117W        W44926  16.630   2.567   1.770  0.0025 -0.1410  0.0844
29118W        W44927   1.854   8.839   4.838  0.4150  0.0919 -0.1336
29119W        W44928  10.556   5.426  12.464 -0.2076  0.1791 -0.2940
29120W        W44929  15.769  15.140  12.552  0.0323 -0.1380 -0.2482
29121W        W44930  15.210  14.578   1.590 -0.0514  0.0973  0.0952
29122W        W44931  11.611   4.995   5.561  0.3449 -0.0529 -0.1484
29123W        W44932  18.770   3.126   9.940  0.0999  0.1397  0.3236
29124W        W44933   3.227   0.887   4.133 -0.2556 -0.2656 -0.2192
29125W        W44934   3.246   2.498   2.941 -0.2358 -0.0434 -0.0230
29126W        W44935   7.955  16.044  14.426  0.1602 -0.1531 -0.3213
29127W        W44936  18.781  14.383  13.190  0.0990  0.2406  0.0055
29128W        W44937   3.928  12.895   3.236 -0.1937 -0.3598 -0.2804
29129W        W44938  16.805  14.617  12.354  0.0861 -0.1722  0.0435
29130W        W44939   8.401  11.589  14.996  0.1748  0.0828  0.1157
29131W        W44940   0.363   4.272  15.228 -0.0549  0.0626 -0.3040
29132W        W44941   5.876  15.442  14.384 -0.0025 -0.1323 -0.1083
29133W        W44942  13.265  10.685  12.860  0.0758  0.0653  0.0847
29134W        W44943  10.124  15.013  11.060 -0.0871  0.0672  0.2295
29135W        W44944  11.065   9.331   4.537 -0.0970  0.1728 -0.1519
29136W        W44945  12.139  10.844   3.322  0.2381 -0.1752  0.2938
29137W        W44946   5.855   3.308   1.487 -0.0709  0.0285  0.1703
29138W        W44947   6.983  18.509  11.479  0.2088  0.1737  0.1622
29139W        W44948   8.677  14.393  14.606  0.3014 -0.0879  0.0703
29140W        W44949   3.893  18.098   4.421 -0.2583 -0.0766 -0.1025
29141W        W44950   2.044   7.218  11.149  0.2024 -0.1472 -0.1181
29142W        W44951  10.046  14.773  15.186 -0.2000 -0.0221 -0.0377
29143W        W44952   6.449   1.187  10.180  0.1215 -0.2103  0.2377
29144W        W44953  11.788  13.194  12.924 -0.3806 -0.1151  0.2329
29145W        W44954  14.421   1.099  11.168  0.0545  0.3539 -0.1154
29146W        W44955   5.933   3.697  12.523  0.0265  0.0313  0.1261
29147W        W44956   9.609  11.670   3.703  0.1895 -0.1107 -0.0672
29148W        W44957   3.874  12.486   0.872  0.0666 -0.2298  0.0243
29149W        W44958  13.802   5.682   4.635 -0.1695 -0.3300 -0.2163
29150W        W44959   8.986  15.399   3.735  0.1684 -0.1645 -0.1410
29151W        W44960   5.462   4.851   1.745 -0.1140 -0.0163 -0.1115
29152W        W44961  15.414  12.787  12.924  0.3472  0.0774  0.0320
29153W        W44962   4.154   3.017   4.359  0.2339 -0.1113  0.3822
29154W        W44963  17.730   6.401   3.263 -0.0698 -0.1680 -0.2799
29155W        W44964   7.008  12.775  14.741 -0.2990 -0.2466 -0.2458
29156W        W44965   2.718  16.035   0.488 -0.1380 -0.1482 -0.1502
29157W        W44966  10.862  10.036   4.120 -0.0803 -0.0405 -0.0088
29158W        W44967   2.429  11.670  13.122  0.0739  0.2784  0.3005
29159W        W44968  17.740  18.697   3.900 -0.0730 -0.2515  0.0456
29160W        W44969   3.305   1.251  13.262 -0.4673  0.0627 -0.1660
29161W        W44970   5.624   5.192   3.261  0.1881 -0.0008 -0.3306
29162W        W44971   9.607   2.641   3.061 -0.3762 -0.2541 -0.0441
29163W        W44972  15.167  13.012   0.248  0.2280  0.0505 -0.0054
29164W        W44973   1.856   6.930  15.134 -0.2295  0.0319 -0.0784
29165W        W44974  11.526  17.924   3.491  0.2670  0.1499 -0.0312
29166W        W44975  17.804   4.735   5.145 -0.2744 -0.1089 -0.1817
29167W        W44976   2.596  10.958   1.067  0.0030 -0.0117  0.0189
29168W        W44977  12.038  10.702  11.626 -0.2827 -0.1768 -0.2802
29169W        W44978   4.949   0.933   3.838 -0.0285 -0.0309 -0.0525
29170W        W44979   3.618   8.458   4.507  0.1502  0.1195 -0.3026
29171W        W44980   4.062  11.575  11.775 -0.1226  0.3335  0.2379
29172W        W44981   6.957  17.704  11.825 -0.3425  0.2336  0.1815
29173W        W44982  14.204  10.066  12.594 -0.0646  0.0519  0.1133
29174W        W44983  12.243   9.372   3.433  0.0891  0.1834 -0.2151
29175W        W44984   3.160  12.718  11.895  0.0955 -0.4108  0.3585
29176W        W44985  10.927  18.414   0.798 -0.1567 -0.0861 -0.0946
29177W        W44986   8.373  17.074   5.055  0.2531 -0.0052  0.1106
29178W        W44987  15.796  18.177  11.238  0.0768  0.1861  0.1189
29179W        W44988  14.796   7.029   4.253  0.2902 -0.3058  0.0809
29180W        W44989   7.015  13.869  12.369  0.0407  0.2540 -0.3447
29181W        W44990  17.573   8.103   4.859 -0.2723  0.2861  0.1135
29182W        W44991  18.885   1.917  14.179  0.0293 -0.1045  0.4936
29183W        W44992   3.512  18.907  14.542 -0.1142 -0.0468  0.1092
29184W        W44993  14.317   1.214   5.447 -0.2764  0.0918  0.2802
29185W        W44994   6.353   9.435  11.547  0.2639 -0.0341 -0.0976
29186W        W44995   5.317   7.933   0.100 -0.2371  0.2885 -0.1060
29187W        W44996   8.703   0.505   2.216 -0.0042  0.2293 -0.0539
29188W        W44997   6.021  11.587  12.238  0.0680 -0.2828  0.0272
29189W        W44998   9.239  12.755  11.084 -0.1834  0.2291  0.1097
29190W        W44999   8.402  12.605   0.274  0.0144 -0.2619  0.0529
29191W        W45000   9.267  11.760  13.908  0.0988  0.1908  0.0111
29192W        W45001  15.541  18.159   0.838 -0.1997 -0.2576  0.0502
29193W        W45002  14.467   1.793  13.414 -0.0189 -0.0098  0.1959
29194W        W45003   5.444   6.977   4.893 -0.0394  0.0507 -0.1672
29195W        W45004  14.661  14.847  11.713  0.0797  0.0089  0.0342
29196W        W45005   7.169   0.856  10.433 -0.1251 -0.2727  0.0012
29197W        W45006  16.372   0.056   0.152 -0.1315 -0.0316  0.1832
29198W        W45007   2.409   8.022   3.785  0.1319 -0.0546 -0.4713
29199W        W45008   9.836   6.402  15.268  0.1135  0.0534  0.2718
29200W        W45009   4.940   3.738  12.865 -0.3841 -0.1793 -0.0537
29201W        W45010  18.467   7.054   2.030  0.2782  0.1502 -0.0534
29202W        W45011  18.555   1.872  13.738 -0.2229  0.2097 -0.1023
29203W        W45012  14.794  18.899   3.946 -0.0720  0.1909 -0.2911
29204W        W45013   0.335   5.038   4.093  0.2292  0.1468 -0.1839
29205W        W45014  15.576   5.336   2.856 -0.1174  0.0018  0.3931
29206W        W45015   6.698  14.813   1.987 -0.1526  0.0862  0.1701
29207W        W45016  15.673   2.231   4.142 -0.0337 -0.0893 -0.1861
29208W        W45017   4.179   1.589  13.293  0.2041  0.3551  0.2390
29209W        W45018   2.423  18.130   4.948  0.4223  0.0543  0.1719
29210W        W45019  17.885  15.435  14.780  0.1586 -0.2500  0.0463
29211W        W45020  16.357   0.491   5.356  0.0628 -0.2397  0.1799
29212W        W45021  14.120  15.267   0.700 -0.4121  0.0081 -0.1024
29213W        W45022   9.415  17.646   4.388 -0.1588  0.1369 -0.1463
29214W        W45023  14.118  17.235  12.156 -0.0614  0.0089 -0.0273
29215W        W45024  18.433  10.830   4.752  0.0822 -0.0286 -0.1906
29216W        W45025  11.691  18.559   3.850  0.1639  0.1307 -0.0784
29217W        W45026   8.493  14.454   4.506  0.1081 -0.2182 -0.2735
29218W        W45027  16.736  13.850   4.922 -0.1145 -0.1084 -0.2351
29219W        W45028   9.826  14.417   2.263  0.4366  0.1228  0.2057
29220W        W45029  17.942  13.545   3.183 -0.0538 -0.1109  0.1710
29221W        W45030  13.269  17.564  11.747 -0.1982 -0.1400  0.2129
29222W        W45031   5.789   0.483  11.340 -0.0339 -0.2227  0.0532
29223W        W45032  14.363   3.902   0.155  0.2669 -0.0380  0.2305
29224W        W45033   8.932  11.732   0.021  0.1343 -0.0541 -0.2922
29225W        W45034   0.066   0.198   0.376 -0.1469  0.0865 -0.0076
29226W        W45035   3.225  11.492   2.972  0.2117 -0.0664 -0.1651
29227W        W45036  14.348   2.059   1.606  0.0258 -0.2764 -0.1677
29228W        W45037  15.274   0.780   0.126 -0.2898  0.1086  0.1640
29229W        W45038   6.941   5.715   0.787 -0.1951  0.3601  0.0210
29230W        W45039   7.254   3.491  13.907 -0.0019  0.0978 -0.1978
29231W        W45040  16.911   4.061   1.610 -0.2027 -0.0629 -0.2297
29232W        W45041   2.409  14.053   3.956 -0.0902 -0.0916  0.1437
29233W        W45042   5.589   2.381  15.062 -0.1090  0.0292 -0.0206
29234W        W45043   6.196   6.528  15.189 -0.2469 -0.4839  0.1825
29235W        W45044   1.966  13.925  12.840 -0.3287 -0.1814 -0.0035
29236W        W45045  18.954  10.344   3.885 -0.0502  0.1832  0.1225
29237W        W45046  15.070  18.498   4.659  0.0806 -0.1044  0.1169
29238W        W45047  17.880   1.367  11.334  0.0624  0.1264 -0.0048
29239W        W45048  16.670  15.812   2.183  0.1964  0.2432  0.3265
29240W        W45049  12.015  14.039   2.960  0.1295 -0.3322 -0.5633
29241W        W45050  15.209  17.285   0.844 -0.0027  0.0262 -0.2113
29242W        W45051   8.865  15.214  14.370  0.0561 -0.0698 -0.2180
29243W        W45052  11.743  17.064  14.143  0.1866  0.0478  0.1170
29244W        W45053   7.238   4.970   5.099  0.4399  0.1501  0.1936
29245W        W45054  14.353  12.330  14.832 -0.2126 -0.3427  0.2411
29246W        W45055  16.949   4.376   3.632  0.2032  0.3894  0.3950
29247W        W45056  18.667  17.866   3.204 -0.2470  0.1866 -0.2194
29248W        W45057   1.498   3.323  11.982  0.2650  0.0270  0.3386
29249W        W45058   1.875  15.203   2.502 -0.1096 -0.0348  0.4718
29250W        W45059  18.806   4.729   2.329  0.4725  0.1608 -0.2597
29251W        W45060   3.451  13.851   1.546 -0.2056  0.0173 -0.2447
29252W        W45061  12.014   1.997   0.202  0.1675  0.0566  0.2787
29253W        W45062   6.441   1.699  11.911 -0.3061 -0.2106  0.1126
29254W        W45063  13.706  13.625  12.619 -0.3025 -0.1338 -0.3006
29255W        W45064   5.116   9.153   4.407 -0.2813  0.5512  0.1380
29256W        W45065   4.612   0.752   2.249  0.2360 -0.1363  0.1712
29257W        W45066   5.668  15.224  12.486  0.4820  0.0394  0.1362
29258W        W45067  17.812   7.665   4.841 -0.2549  0.1187 -0.0214
29259W        W45068  18.984   1.584  14.748  0.2703 -0.6262 -0.0206
29260W        W45069   1.670  17.097  14.736  0.0175 -0.2196  0.1433
29261W        W45070   7.843   8.261  12.887  0.2021  0.1204 -0.1378
29262W        W45071   8.709   8.286   3.086  0.0241 -0.3316 -0.0049
29263W        W45072  12.266   0.970   0.421  0.0774 -0.2052 -0.4799
29264W        W45073   8.546   1.742   4.617  0.1117  0.1603 -0.0018
29265W        W45074   2.569   9.985  14.023  0.0257  0.0208 -0.0482
29266W        W45075   1.346   9.456   1.691 -0.2393 -0.3254 -0.0186
29267W        W45076  18.219   1.020   1.849 -0.1009  0.2851 -0.0913
29268W        W45077  11.011   3.683  12.874 -0.2278 -0.0063 -0.2069
29269W        W45078   7.252  12.438  15.124  0.3040 -0.0089  0.3939
29270W        W45079  11.498   4.692  12.537  0.1608 -0.0611 -0.3290
29271W        W45080   5.260   0.677  12.044  0.0162 -0.4472 -0.1834
29272W        W45081   1.618   1.620  13.182  0.1210 -0.1606 -0.2588
29273W        W45082  15.651  15.555  14.873 -0.1311  0.0604 -0.0172
29274W        W45083  14.369  11.709   4.767  0.0927 -0.1112 -0.2005
29275W        W45084   7.984   9.675  13.451  0.1581  0.3397 -0.1074
29276W        W45085   6.120  16.429   3.172 -0.1677 -0.1537 -0.2233
29277W        W45086  18.743  13.570   6.351  0.0274 -0.0440 -0.3284
29278W        W45087   6.622   5.503   2.248  0.0294  0.2438  0.0429
29279W        W45088   0.030  16.576   3.234  0.0394  0.1961  0.2816
29280W        W45089  12.984  13.560   1.024  0.1989  0.2261 -0.2278
29281W        W45090   5.329   5.703  12.732  0.2792  0.1032  0.1886
29282W        W45091  15.421  15.227   0.729 -0.1650 -0.2212  0.0189
29283W        W45092  12.215   7.325  14.659 -0.0243  0.2649 -0.0185
29284W        W45093  12.745   4.138  12.396 -0.2513  0.0829  0.0275
29285W        W45094   9.398   1.614  10.473 -0.3784 -0.1777  0.1023
29286W        W45095   0.555   2.242   0.584 -0.1392 -0.2013  0.2472
29287W        W45096  12.726  15.724  11.766 -0.1395 -0.0729 -0.0951
29288W        W45097   0.722   9.542  11.528 -0.2203  0.1159 -0.1426
29289W        W45098  12.652   2.426  13.479  0.2092 -0.3629  0.0313
29290W        W45099   5.648   7.192   1.527  0.4279  0.2227 -0.1060
29291W        W45100   5.350   5.963   4.082  0.0947  0.1530  0.3810
29292W        W45101   8.725  17.312  14.315 -0.0416 -0.0615 -0.0249
29293W        W45102  10.722   9.252   3.370 -0.0949 -0.3469  0.0362
29294W        W45103  17.301  18.998  10.778 -0.1412  0.0342 -0.0752
29295W        W45104  17.483   1.350  12.845 -0.5928  0.0995 -0.1456
29296W        W45105  11.063   0.446  13.914  0.0118 -0.0565  0.1074
29297W        W45106   4.525  12.653  10.179  0.1197  0.0638  0.0187
29298W        W45107   8.748   3.856   1.886 -0.1005  0.1275  0.1430
29299W        W45108   6.206   1.323   1.534  0.1826 -0.3706  0.1039
29300W        W45109   5.744   7.959  10.457  0.5235 -0.1585  0.1151
29301W        W45110   7.851  12.044   3.220 -0.0227 -0.1857  0.1036
29302W        W45111   0.852   2.095  13.357  0.3507 -0.1014  0.1688
29303W        W45112   5.770   5.368   4.131 -0.1071 -0.0406 -0.0723
29304W        W45113  10.617  18.101  13.705  0.2493 -0.1980 -0.0321
29305W        W45114   6.276  10.783   0.285  0.0553  0.5222 -0.2572
29306W        W45115   5.425   1.535   1.203  0.0495 -0.0782 -0.1667
29307W        W45116  17.741   3.491   4.770  0.0382  0.2034  0.1728
29308W        W45117   5.995  16.341  13.037 -0.1852  0.2607  0.0107
29309W        W45118   5.804  15.064   4.452  0.1085  0.0985  0.1808
29310W        W45119  16.918  13.710   3.692  0.0537 -0.0185 -0.0509
29311W        W45120  14.358   2.048  14.128  0.3143 -0.2191 -0.0276
29312W        W45121  10.010  11.736   1.889  0.0487 -0.4401 -0.1546
29313W        W45122   7.268   9.167  10.107 -0.0320  0.2459 -0.2271
29314W        W45123   1.899  10.779   3.915 -0.3543  0.2643  0.0866
29315W        W45124  18.055   5.810   0.790 -0.5582 -0.1789 -0.1999
29316W        W45125  12.601   8.012  11.616 -0.1805 -0.1654  0.0536
29317W        W45126  14.877   6.455  10.822  0.1183 -0.3756 -0.0840
29318W        W45127   4.434  10.201   3.586 -0.3777 -0.1624 -0.3161
29319W        W45128   6.685  14.181  10.380  0.2318 -0.0335 -0.1855
29320W        W45129  11.337  15.787   4.985  0.1269  0.3020  0.3187
29321W        W45130   3.928  11.672   5.612 -0.3994 -0.2244  0.0209
29322W        W45131  18.661   7.687   2.716  0.0033 -0.1480  0.0559
29323W        W45132   6.886  13.419   5.296  0.0157 -0.0101  0.4550
29324W        W45133  16.764   7.391  15.201  0.2239  0.0670 -0.2284
29325W        W45134  18.759  17.404   3.539  0.3110 -0.2911 -0.2634
29326W        W45135  14.495  10.643   0.849  0.2086 -0.0330  0.2880
29327W        W45136  10.764  10.383   1.773  0.3428 -0.0180  0.3896
29328W        W45137  11.411  11.771   2.957  0.1360 -0.0697 -0.2321
29329W        W45138  13.323   4.033  14.931 -0.0822 -0.2550  0.0639
29330W        W45139   0.945  18.544  11.454  0.0055 -0.0396  0.2465
29331W        W45140   9.393   0.794   3.271  0.0751  0.1767 -0.0017
29332W        W45141   2.786  11.328  11.713  0.0459 -0.1233 -0.0325
29333W        W45142   6.974  10.564   2.773 -0.1995  0.0422 -0.0031
29334W        W45143  15.672  18.230  12.150  0.0330  0.1783  0.0553
29335W        W45144   7.498  15.329   0.987  0.4642  0.0327 -0.3915
29336W        W45145   6.749   7.826   3.323  0.3124 -0.0733  0.1003
29337W        W45146   5.798  16.778  14.308 -0.1843  0.0712 -0.1397
29338W        W45147   7.214   4.652   1.208  0.1496 -0.1115  0.1132
29339W        W45148   1.799  17.278   1.108  0.2311  0.1933  0.1267
29340W        W45149  14.262   8.349   0.031 -0.4611  0.0529 -0.2450
29341W        W45150   8.946   4.951  12.742 -0.2161  0.1590 -0.0919
29342W        W45151  18.861  16.545   2.796 -0.0921 -0.2046 -0.1155
29343W        W45152   2.443   4.123  15.163 -0.0923 -0.0712 -0.2649
29344W        W45153   7.720  10.659   0.763 -0.0382  0.0283 -0.0472
29345W        W45154  13.111  15.539   2.264 -0.0578  0.0052  0.2601
29346W        W45155  10.823   5.249   2.874  0.0262 -0.0465 -0.2357
29347W        W45156  18.193   6.836  11.074  0.3680  0.0068  0.1777
29348W        W45157  14.559  16.546   2.613 -0.0904 -0.1269 -0.0555
29349W        W45158  15.771   8.438  11.755  0.2165  0.0156 -0.1167
29350W        W45159   0.630   5.289  14.205  0.1420 -0.1019 -0.3529
29351W        W45160   8.326  11.933   0.876 -0.2216  0.0375 -0.2076
29352W        W45161  12.971   7.975   3.250  0.1412 -0.1255  0.2385
29353W        W45162  10.078   4.883  10.850  0.1592  0.3120 -0.2570
29354W        W45163   0.701  14.428   2.087  0.1404 -0.3770  0.2544
29355W        W45164  12.856   7.043   5.377  0.0621  0.3567  0.1308
29356W        W45165  12.894  13.853  12.087  0.2891  0.0815 -0.0390
29357W        W45166  11.389  14.505   0.868  0.1483 -0.3459  0.1443
29358W        W45167  10.849   1.999   1.490  0.4844 -0.1256 -0.0222
29359W        W45168  15.537   0.725   3.058 -0.0152 -0.1699 -0.1395
29360W        W45169  17.902  12.020  13.108  0.1958 -0.0878 -0.0604
29361W        W45170  11.777   0.784  14.423  0.0566  0.1922 -0.2118
29362W        W45171   7.252   3.170  12.166  0.2280  0.1711 -0.2969
29363W        W45172  12.593  13.417  12.985 -0.1237 -0.0468 -0.3372
29364W        W45173   5.623  12.377   3.454  0.0996  0.0717 -0.1781
29365W        W45174   2.841   0.778   1.749 -0.2675 -0.3929  0.0932
29366W        W45175  11.432   6.707   2.638 -0.0082 -0.0474  0.0419
29367W        W45176   5.931  18.101  10.763 -0.2749  0.2805 -0.0926
29368W        W45177   6.789   6.183   3.508  0.1326 -0.3116  0.1167
29369W        W45178   7.634  17.672  12.777 -0.0697 -0.1076  0.3403
29370W        W45179   1.279  11.401   4.769 -0.1951 -0.3166 -0.0307
29371W        W45180  15.223   6.653   1.497  0.0312 -0.1403  0.0957
29372W        W45181  16.418   1.370   5.668  0.0701 -0.1586  0.0382
29373W        W45182  11.081  13.658  13.251 -0.0001 -0.0378  0.0478
29374W        W45183   2.282   1.385  15.274  0.1440  0.2292 -0.0136
29375W        W45184  17.539  11.248   3.090 -0.0652 -0.3565 -0.2161
29376W        W45185  17.525   1.848  12.658  0.4635  0.0720  0.1155
29377W        W45186   9.742   2.211   5.030  0.1113 -0.0340 -0.4371
29378W        W45187   9.680   1.461  13.654 -0.0490 -0.1003  0.2366
29379W        W45188   4.669  16.800   2.166  0.0374 -0.0913  0.2563
29380W        W45189   9.218  16.187  13.807  0.0256  0.3183  0.1608
29381W        W45190  17.307   1.850   0.950  0.0979 -0.2074 -0.0807
29382W        W45191  17.480   1.732  13.640 -0.2507  0.1539 -0.2015
29383W        W45192  11.869  15.027  12.391 -0.1291 -0.1586 -0.2059
29384W        W45193  13.965  12.846   1.181 -0.5508  0.1482 -0.1465
29385W        W45194  15.680   8.404  10.836  0.3019 -0.0777  0.2464
29386W        W45195  11.375  17.290   1.356  0.0899 -0.0838  0.2305
29387W        W45196  11.369   3.845  14.902  0.4289 -0.1079 -0.3152
29388W        W45197  14.987   2.685  10.815  0.0157  0.1036 -0.5127
29389W        W45198  12.165   7.269  12.056  0.0547  0.0518 -0.0258
29390W        W45199   7.791  10.644  14.644  0.0552  0.0232 -0.2040
29391W        W45200   0.750   4.458   1.929  0.0322 -0.1942 -0.1323
29392W        W45201   6.936  16.427   5.502  0.1206 -0.1839 -0.1099
29393W        W45202   9.782   9.545   0.098  0.3593 -0.0115 -0.0393
29394W        W45203  10.805  10.900  13.007 -0.2615  0.1996  0.0275
29395W        W45204   8.199   8.751  11.735  0.3389  0.0995  0.1634
29396W        W45205  18.176  16.318  12.580 -0.2296 -0.0978  0.0801
29397W        W45206  15.685   3.531   4.143 -0.0332 -0.0057 -0.0493
29398W        W45207  16.246  12.456  12.708 -0.2595  0.0034  0.2180
29399W        W45208  14.772  19.000  12.439 -0.1580 -0.1146  0.1420
29400W        W45209  13.905   8.031   1.381 -0.0178 -0.3103 -0.1048
29401W        W45210  12.406  17.094   2.926 -0.0404  0.1427 -0.1016
29402W        W45211  15.771   2.416  13.477 -0.0315 -0.2176 -0.2268
29403W        W45212   1.075   8.159  13.441 -0.0007 -0.1991  0.2068
29404W        W45213  18.944   4.323  11.690  0.1991  0.2269 -0.0327
29405W        W45214   5.655   4.043   4.025 -0.0807 -0.1964 -0.0474
29406W        W45215   3.644  16.551  10.222  0.1311 -0.1758 -0.2220
29407W        W45216  15.785   0.747  14.334 -0.1360 -0.0419  0.3414
29408W        W45217  14.086  14.939   5.942 -0.4364  0.0302  0.0909
29409W        W45218   4.447  11.624   3.067  0.0209  0.1747  0.1627
29410W        W45219  18.410   9.581  14.309  0.3357 -0.0587 -0.0654
29411W        W45220  18.214   5.845   2.100 -0.1151  0.1162  0.0489
29412W        W45221   1.926   3.139  14.910  0.0272  0.3225 -0.1931
29413W        W45222   0.985  13.349  13.831 -0.1841 -0.0029 -0.1940
29414W        W45223   9.414   2.236   9.509  0.1375  0.2095  0.1246
29415W        W45224   2.345   3.555   2.114  0.1926  0.1899 -0.0549
29416W        W45225   3.039  14.278  10.908  0.0011  0.3349  0.3207
29417W        W45226   2.186  18.516   0.993 -0.1821  0.0440  0.2981
29418W        W45227  14.777   0.720   0.006  0.1635 -0.0955 -0.0359
29419W        W45228  15.221   8.921   1.948  0.0655 -0.1935 -0.1478
29420W        W45229   4.571  11.768  13.134  0.2556 -0.0157 -0.0073
29421W        W45230   2.466   2.373   3.257 -0.0064 -0.2133  0.0410
29422W        W45231  17.157  18.558  11.070  0.0527 -0.2093 -0.1649
29423W        W45232  18.230   1.340   2.548  0.1024 -0.0160  0.1361
29424W        W45233  10.757  10.181   4.988 -0.0556  0.0928 -0.0851
29425W        W45234   2.789   2.170  12.549 -0.0244 -0.0428 -0.2228
29426W        W45235  12.436  13.288  13.426 -0.2026  0.0488  0.3831
29427W        W45236  14.394  17.513  14.503  0.0355 -0.1843 -0.1652
29428W        W45237   0.410   3.603   2.411 -0.0028 -0.0617  0.1377
29429W        W45238  13.523  17.920  13.282  0.0632  0.5302 -0.2329
29430W        W45239  11.124  11.203  13.252  0.2414  0.1644 -0.1074
29431W        W45240  17.679  16.869  14.834  0.0665  0.0781 -0.1027
29432W        W45241  18.354  14.828  13.257  0.2674 -0.0998  0.1785
29433W        W45242   8.778  17.904   0.275  0.0465 -0.3097  0.1885
29434W        W45243  13.637  14.137   1.673  0.0736  0.0746  0.1292
29435W        W45244  18.752  16.828  14.994 -0.2489  0.3442 -0.0349
29436W        W45245  15.605   9.422   2.490  0.0920 -0.0875  0.0097
29437W        W45246   4.223   8.822   2.454  0.0150  0.2498 -0.2415
29438W        W45247  11.708   2.522   4.247 -0.2493  0.0892 -0.1044
29439W        W45248   0.052   6.988   3.943  0.2211  0.2226  0.3176
29440W        W45249   8.204   4.470  15.086  0.1729 -0.2256  0.0264
29441W        W45250   9.388  15.286   1.669  0.4390 -0.2564 -0.1539
29442W        W45251   7.778   2.994   0.769 -0.0220  0.2118 -0.2828
29443W        W45252   1.960  17.964   5.049 -0.0868 -0.3605  0.0553
29444W        W45253   6.939  15.331  12.283  0.0611 -0.1660 -0.0308
29445W        W45254   7.266  15.319  12.639 -0.4204  0.1442  0.3827
29446W        W45255   0.386   0.083  12.058  0.1440 -0.0646 -0.0467
29447W        W45256  13.663   1.703   3.794 -0.0315  0.1411 -0.0778
29448W        W45257  16.013   6.368  11.740 -0.1860  0.0627 -0.0586
29449W        W45258  16.975  13.019   9.948  0.0126 -0.0483 -0.1279
29450W        W45259  11.764   1.789  14.272  0.1287 -0.0174 -0.4092
29451W        W45260  18.914   4.900  12.123 -0.2652 -0.2661  0.3535
29452W        W45261  18.105   2.541  12.208 -0.0094  0.3812  0.1357
29453W        W45262   6.370  17.604  13.679  0.2379 -0.3146 -0.2921
29454W        W45263   8.051   3.380   4.983 -0.3319  0.2150 -0.2222
29455W        W45264   1.100  15.310   4.960 -0.0694 -0.0854  0.3529
29456W        W45265   9.954  10.737  10.597 -0.1972 -0.1242  0.1121
29457W        W45266   7.828  17.607   0.496 -0.2585  0.1077  0.1167
29458W        W45267   7.335   3.017  12.712 -0.0038  0.4554  0.1703
29459W        W45268  17.973  12.193   3.701 -0.2909 -0.1028  0.2406
29460W        W45269  12.983   2.316   1.231  0.4103 -0.0811  0.3333
29461W        W45270  17.787   8.194  12.435  0.0706  0.2242 -0.3489
29462W        W45271  12.895  15.296   3.199  0.1640  0.0176  0.0101
29463W        W45272  17.289  18.591   1.009  0.1490  0.2001  0.1162
29464W        W45273  15.532   2.022  11.526 -0.3886 -0.0801 -0.2099
29465W        W45274  10.474   0.795  13.806  0.0152  0.0184 -0.0357
29466W        W45275   4.274  18.045  12.237 -0.0729 -0.2373  0.1086
29467W        W45276   9.301  18.569   3.911  0.3269  0.0946 -0.0267
29468W        W45277  10.972  10.496  11.306 -0.1781  0.3475  0.1717
29469W        W45278  16.575  14.279   4.651  0.0221 -0.3445  0.1391
29470W        W45279   7.936  17.765   2.243 -0.1600 -0.1437 -0.0693
29471W        W45280  13.133   8.941   3.563 -0.0519  0.0516  0.1979
29472W        W45281  17.648  13.905  13.156 -0.2849  0.0736  0.1552
29473W        W45282   4.885   7.902  10.436 -0.2013 -0.2482  0.0379
29474W        W45283  16.334   6.859  13.413 -0.1148 -0.0374 -0.1133
29475W        W45284  11.135   6.553   3.281  0.1099  0.0327  0.1223
29476W        W45285  11.544  12.452   2.543  0.0235 -0.0171 -0.2366
29477W        W45286   8.847   9.567  13.506 -0.0423  0.2071  0.1016
29478W        W45287   4.403   6.190  14.173  0.0343  0.4679  0.0117
29479W        W45288  11.780   5.087  11.123  0.0152  0.2389  0.0209
29480W        W45289  13.197  16.296  13.890  0.0058  0.0776  0.0060
29481W        W45290  12.393   5.560   1.175 -0.2287  0.0754 -0.1584
29482W        W45291  13.577   5.917   2.924  0.0037 -0.1846  0.0001
29483W        W45292  11.438  14.049  12.591  0.0648  0.2810 -0.0084
29484W        W45293   1.375   1.210  13.225 -0.0297  0.0034  0.1420
29485W        W45294  14.322  12.706   1.876 -0.0384 -0.1412  0.0869
29486W        W45295  14.353  17.960  13.182 -0.0591 -0.1784 -0.0419
29487W        W45296  13.916  14.275  11.668 -0.1706 -0.0386 -0.1484
29488W        W45297   1.342   0.025   2.786  0.2794 -0.0310  0.0238
29489W        W45298  12.718  17.506  11.685  0.1111 -0.0301  0.0015
29490W        W45299   4.448   2.835   9.988 -0.0570 -0.0642  0.0806
29491W        W45300   4.871   9.711   2.339  0.1697  0.0317  0.0873
29492W        W45301   3.985   8.973   3.846 -0.0184 -0.2823 -0.2131
29493W        W45302  13.378   5.100   1.731  0.0727  0.1806 -0.1304
29494W        W45303  17.387   4.186   3.802 -0.3149  0.0069  0.3812
29495W        W45304  15.362  13.956  14.490 -0.1926 -0.1506 -0.1772
29496W        W45305   0.634  12.251   5.030  0.1680 -0.0455  0.3545
29497W        W45306   0.207   7.358  13.659  0.2554 -0.1587  0.3157
29498W        W45307  16.838   4.015   4.532 -0.2599  0.1448  0.3283
29499W        W45308  16.004   4.442  11.034 -0.0359 -0.3057 -0.3148
29500W        W45309  11.521  15.001   4.399  0.3313  0.0722 -0.0281
29501W        W45310   1.201   7.942   0.366  0.3016  0.1500 -0.1236
29502W        W45311   7.157   7.262   4.914 -0.1750  0.1889  0.0866
29503W        W45312   1.104  18.448   3.499 -0.0403  0.2442 -0.0325
29504W        W45313   0.788   0.177   2.523  0.1371 -0.3808 -0.0530
29505W        W45314  17.131  11.073   3.467  0.1354 -0.0143 -0.3250
29506W        W45315   1.609   4.043   2.865  0.2162 -0.0148  0.2618
29507W        W45316  12.126   3.808   4.644 -0.0860  0.1229  0.0645
29508W        W45317  12.463   6.606   3.094  0.0543  0.0902 -0.0060
29509W        W45318  10.004  10.217   2.755  0.0376 -0.3013 -0.3710
29510W        W45319   5.742   7.485  13.107  0.0044  0.0733  0.0814
29511W        W45320   0.631   4.242  11.249  0.2179  0.2719 -0.1525
29512W        W45321  15.193  14.952  15.003 -0.0666 -0.0394 -0.1352
29513W        W45322   7.162  12.424   4.341  0.1378  0.1535  0.0414
29514W        W45323   2.410   1.050   4.714 -0.0262 -0.1100  0.2651
29515W        W45324   8.271  18.762  11.619 -0.0738 -0.2684 -0.3477
29516W        W45325   7.847  16.888   2.368 -0.2269 -0.0576  0.2523
29517W        W45326  17.834  18.450   4.662 -0.0043  0.1716  0.1513
29518W        W45327   6.670  11.184  14.763  0.3619  0.0356  0.5337
29519W        W45328  13.571  12.659   2.154 -0.0345 -0.2653  0.1757
29520W        W45329  13.702   7.304   2.467 -0.1364  0.2885 -0.0681
29521W        W45330  14.315   5.804   2.786 -0.1596 -0.3819 -0.3813
29522W        W45331  13.181  18.575   3.061  0.0162  0.0857 -0.5089
29523W        W45332   8.508  10.627  15.250 -0.1386  0.1720 -0.1129
29524W        W45333  17.767   5.006  11.977 -0.4317  0.6077  0.4365
29525W        W45334  11.970   9.634  11.423 -0.3731 -0.0082 -0.0554
29526W        W45335   5.174  10.555   1.267 -0.1405  0.1008 -0.3512
29527W        W45336  16.362  15.448   1.440 -0.1887 -0.2048  0.1137
29528W        W45337  11.668  13.684   2.921 -0.1334 -0.0470 -0.2734
29529W        W45338  12.471   5.760  12.391 -0.1537  0.0254 -0.0669
29530W        W45339   2.112   4.105   2.867  0.2447  0.1957  0.0892
29531W        W45340  12.581   5.314   4.864  0.3459  0.0152  0.0236
29532W        W45341   7.041  18.491  10.120 -0.1480  0.0254  0.0661
29533W        W45342   7.111  12.693  14.251 -0.1968  0.2314 -0.3628
29534W        W45343  18.190  14.949   1.963  0.2547  0.1238 -0.2301
29535W        W45344   9.218  17.474   0.743 -0.1189 -0.1414  0.4071
29536W        W45345  16.818  16.065   4.232 -0.1637 -0.0833  0.2083
29537W        W45346   5.518   4.951  10.325  0.2625  0.0350  0.0120
29538W        W45347   9.974  13.441   4.010  0.1421 -0.0056 -0.0582
29539W        W45348   2.026  18.755   2.642 -0.0524 -0.1202 -0.0608
29540W        W45349   2.226  12.103  13.152  0.0734  0.3205  0.0332
29541W        W45350  11.920  17.713   5.705 -0.1104 -0.0900  0.0820
29542W        W45351   3.521   4.444  14.247 -0.0158  0.3226  0.0997
29543W        W45352  16.107   6.542  11.267 -0.4677  0.3067  0.0754
29544W        W45353  18.055   6.761  10.565  0.2258  0.4479 -0.2845
29545W        W45354  16.177   9.364   4.477 -0.1959 -0.2703  0.2363
29546W        W45355   3.576  13.933  14.548 -0.0908 -0.1891 -0.0710
29547W        W45356  17.993  16.222   2.575  0.1834  0.4396  0.0708
29548W        W45357   4.790   5.538  13.264  0.2344  0.1303  0.1079
29549W        W45358   2.786   1.172   2.299 -0.0115  0.1112  0.3693
29550W        W45359   3.426  13.754   2.946  0.0226 -0.1710 -0.0489
29551W        W45360   8.748   1.190  11.171  0.1602  0.1264  0.1247
29552W        W45361   2.259  18.585  14.998  0.1880  0.1365 -0.1078
29553W        W45362   5.598  14.121  12.402  0.2130 -0.1056  0.3408
29554W        W45363   5.782   9.676   3.254 -0.1915 -0.0942 -0.1298
29555W        W45364   9.335   0.428  10.840  0.0269  0.0941  0.0117
29556W        W45365  14.004  16.511   3.407 -0.0825  0.0485 -0.0712
29557W        W45366   5.626  13.056   2.298 -0.1379  0.0981 -0.1680
29558W        W45367  15.293   0.416   5.484  0.0265  0.4824 -0.1596
29559W        W45368   6.950  17.030  12.540 -0.0812 -0.1729  0.3242
29560W        W45369  16.815   7.174   3.044  0.2225 -0.1209 -0.0771
29561W        W45370  13.727   1.483   6.388 -0.0035 -0.0414 -0.2319
29562W        W45371  18.017   7.963  12.107 -0.0486  0.0090  0.2491
29563W        W45372   6.437   8.518   5.444 -0.2178 -0.0027 -0.1996
29564W        W45373   6.583  16.494  14.938 -0.3268 -0.0340 -0.0431
29565W        W45374   2.368  14.299  14.046 -0.1177 -0.0896  0.2857
29566W        W45375   4.034  11.082  14.187 -0.0217 -0.1355 -0.2518
29567W        W45376   9.348  16.451  12.422 -0.1678 -0.0146  0.1137
29568W        W45377  17.686   6.807  10.945  0.0064 -0.0990  0.1559
29569W        W45378   2.750   7.386  12.963  0.2525 -0.0913 -0.1035
29570W        W45379   3.674  13.499  11.691  0.0469  0.1638  0.0944
29571W        W45380   0.547   4.703   0.479 -0.2130  0.1760 -0.0329
29572W        W45381  18.741  15.294  14.548 -0.3734 -0.2715 -0.0751
29573W        W45382  10.362  16.469   4.732 -0.0891 -0.0970  0.1152
29574W        W45383  14.041   7.017   3.712  0.4273  0.3662  0.1523
29575W        W45384  17.875   5.266   4.979 -0.0055  0.1527 -0.1995
29576W        W45385  17.034   5.948   3.594  0.1216  0.2007 -0.0873
29577W        W45386  18.184  13.153   2.283  0.0677 -0.1332 -0.0591
29578W        W45387   4.202   5.056  10.242 -0.0687  0.5225 -0.0348
29579W        W45388   0.552  13.242   0.162  0.2232 -0.0891 -0.0465
29580W        W45389  15.454   8.998   5.084  0.1892  0.1771  0.1544
29581W        W45390   6.102   0.164  11.702  0.2631 -0.0504  0.0634
29582W        W45391   5.635   5.685   0.619  0.0675  0.1790 -0.2736
29583W        W45392  16.665   8.037   4.727 -0.2301 -0.0143 -0.0824
29584W        W45393   1.117  13.518   1.409  0.0819 -0.2168 -0.0101
29585W        W45394   3.013  12.098   4.213  0.1874 -0.0812 -0.1827
29586W        W45395  13.765   4.373  10.551  0.3352  0.2732 -0.4949
29587W        W45396   8.284   0.321   4.702 -0.3328 -0.0691 -0.0162
29588W        W45397   8.662  13.148   9.034  0.0982  0.0152 -0.1448
29589W        W45398   0.839   9.096   0.303  0.2559 -0.1177 -0.0259
29590W        W45399   2.279   9.591  11.187  0.1937 -0.0988 -0.1383
29591W        W45400  12.718  10.990  14.761  0.0589  0.1221 -0.0608
29592W        W45401   6.205   6.637  11.627 -0.0546 -0.0127  0.1911
29593W        W45402   9.271   9.533  11.338 -0.3154 -0.1455  0.1417
29594W        W45403   7.627  12.746  14.293 -0.4991 -0.1929  0.3489
29595W        W45404   9.742  16.243   1.961  0.4477 -0.0268  0.2973
29596W        W45405   2.424   7.630  11.727  0.2404 -0.0290  0.1496
29597W        W45406   9.937   8.942  12.725  0.0601 -0.4805  0.0304
29598W        W45407   4.640  15.080   0.789 -0.0418  0.3071 -0.0912
29599W        W45408  18.167   5.763  14.277 -0.0262  0.0803 -0.1236
29600W        W45409   8.305  17.612  13.392 -0.0501 -0.3117  0.4453
29601W        W45410  16.180   8.514  10.754  0.1476  0.0346 -0.0103
29602W        W45411   1.490  14.360   3.101  0.0328  0.3193 -0.1239
29603W        W45412   6.317  12.091   1.783  0.1622 -0.0865 -0.0969
29604W        W45413  16.145   8.184   4.866  0.2971 -0.2520 -0.0000
29605W        W45414   3.085   0.618   1.337  0.1996  0.2041  0.2140
29606W        W45415   2.103  12.027   4.558  0.1038 -0.2230 -0.1505
29607W        W45416   5.194   7.893  12.566  0.0035 -0.1374 -0.2436
29608W        W45417   3.878  10.410   5.383  0.0307  0.3223 -0.0854
29609W        W45418   2.840   7.650  12.539 -0.0170 -0.0869  0.0914
29610W        W45419   4.348  15.920   1.156 -0.1337  0.0969  0.2466
29611W        W45420   8.119  12.879   9.748  0.0341  0.3466 -0.1897
29612W        W45421   0.182   1.886  11.234 -0.1260  0.1649 -0.0699
29613W        W45422   4.582  17.569   4.591  0.1741 -0.0298  0.0839
29614W        W45423  16.314   9.026   2.411 -0.0840  0.3685  0.1649
29615W        W45424  17.733  18.550   2.250 -0.0803  0.0483  0.1934
29616W        W45425  10.614   7.563   4.228 -0.3020 -0.1152 -0.1815
29617W        W45426   9.222   2.399   1.654  0.0710 -0.2909  0.0728
29618W        W45427  13.241  14.064   3.442 -0.0788  0.1711  0.0999
29619W        W45428   0.802   7.328  10.383  0.1910 -0.2733  0.1549
29620W        W45429   2.297   7.769  14.725 -0.2217 -0.1284  0.2308
29621W        W45430  17.796   9.680  15.248 -0.0463 -0.0744  0.1141
29622W        W45431   2.892   8.055  13.924  0.0358  0.1729 -0.2258
29623W        W45432  12.969   2.129  11.471  0.0888  0.1393  0.1908
29624W        W45433  18.551  10.504   1.719  0.2369  0.0401  0.1823
29625W        W45434   1.046  18.948   2.164  0.0050 -0.0178  0.1771
29626W        W45435  11.059   6.122  11.999 -0.0314 -0.0680  0.0504
29627W        W45436  10.351   8.928   4.671 -0.1983 -0.2970  0.1600
29628W        W45437  12.268   0.230   4.498 -0.5115 -0.0578 -0.1542
29629W        W45438   3.295  16.920  10.026 -0.3769  0.1167  0.1705
29630W        W45439   0.315  18.608   3.448  0.0369 -0.1307  0.0159
29631W        W45440   2.042   5.046  14.384  0.0808  0.4088 -0.0870
29632W        W45441   4.999  11.981  11.122 -0.2679 -0.1608 -0.6350
29633W        W45442   2.958  16.286  14.748  0.2977  0.3511  0.2457
29634W        W45443  15.077  15.276  12.690 -0.3959  0.2056  0.0242
29635W        W45444   5.877   9.771   5.755  0.4804  0.0537  0.1181
29636W        W45445  15.994  14.367  15.016  0.2576  0.0227 -0.2170
29637W        W45446  18.960   4.576   1.488 -0.0618 -0.1184  0.0889
29638W        W45447   0.307   6.518  10.172  0.1359 -0.0405 -0.4449
29639W        W45448  15.582  16.463  13.186 -0.0969 -0.0889  0.2295
29640W        W45449  14.427   5.845  15.148  0.1616 -0.2616 -0.0237
29641W        W45450   6.575  17.738   0.867  0.3243 -0.2615  0.0869
29642W        W45451   2.739  12.923  14.911  0.3269  0.2891 -0.0874
29643W        W45452   4.722  11.504   1.345  0.1188 -0.3938  0.0965
29644W        W45453  17.544  18.641   0.555 -0.1777 -0.4191 -0.2008
29645W        W45454  14.452   6.367   4.718 -0.2159 -0.1830 -0.1544
29646W        W45455  18.348  18.724   3.760  0.0879 -0.3237  0.0539
29647W        W45456   3.767  17.932  14.078  0.4621 -0.2250 -0.0421
29648W        W45457   2.232   6.783   2.409 -0.0409  0.3640 -0.0091
29649W        W45458  16.271   3.119  15.058 -0.0807 -0.0015  0.0068
29650W        W45459   8.813   2.422   1.420  0.1195  0.0829 -0.2705
29651W        W45460   1.827  16.053   3.931 -0.2782  0.0384  0.1792
29652W        W45461  10.734   5.589   0.735  0.3515  0.2498  0.0190
29653W        W45462  16.929  15.708  14.533  0.1409  0.0691 -0.2005
29654W        W45463   6.555   2.844  14.579 -0.0718 -0.1462 -0.4468
29655W        W45464   1.966   5.977   0.685  0.1461  0.0402 -0.0608
29656W        W45465  16.742   0.757   4.547 -0.3007 -0.3823 -0.0372
29657W        W45466  18.490  15.389  14.078  0.4800 -0.1202  0.1934
29658W        W45467   6.302   1.053   1.044  0.2302  0.2342  0.2488
29659W        W45468   8.466   8.674  13.545  0.4676  0.1743 -0.1368
29660W        W45469  10.874  18.579   3.957 -0.1087  0.2794  0.2256
29661W        W45470  15.314  14.298   2.520  0.0262  0.0291  0.0552
29662W        W45471   5.729  14.362  13.856  0.0243 -0.2475 -0.2569
29663W        W45472   7.051   0.300   0.398 -0.0844  0.0777  0.0407
29664W        W45473   4.739   7.121   2.443  0.0642  0.2626 -0.0417
29665W        W45474   3.345  13.732  11.977 -0.0344 -0.0947  0.0640
29666W        W45475  10.027  16.280  10.714 -0.0488  0.1164  0.3597
29667W        W45476  18.282  12.565  14.465  0.3440 -0.0164 -0.0783
29668W        W45477  13.595  10.898  13.394  0.2263 -0.0173 -0.1621
29669W        W45478   7.764   5.559   4.326 -0.3278  0.2117 -0.0005
29670W        W45479  14.464  13.156   1.472  0.2261 -0.0767  0.3280
29671W        W45480  14.013  11.890  12.161 -0.1711  0.0629 -0.1489
29672W        W45481  16.696   4.242   2.417 -0.3209  0.1029 -0.0776
29673W        W45482  17.712  11.442  14.289  0.0751 -0.1011  0.0002
29674W        W45483  12.579  12.604  13.030  0.0162 -0.1095  0.3408
29675W        W45484   7.015   0.054  10.083  0.1471  0.3163 -0.3219
29676W        W45485   5.960  17.920  14.323  0.2091 -0.1625 -0.2337
29677W        W45486  14.186   0.796  13.367  0.1745 -0.0655  0.3374
29678W        W45487   4.988  14.004  14.192  0.0324  0.2007 -0.1117
29679W        W45488  10.579   1.419  12.039 -0.2960  0.2736  0.0772
29680W        W45489  12.932   0.035   3.896  0.0332  0.4743  0.3185
29681W        W45490  16.507  14.315   3.668  0.0412  0.1466 -0.0264
29682W        W45491   0.611   9.714   1.550 -0.0459  0.0896  0.1733
29683W        W45492  10.937   5.499   5.589  0.2350  0.0837  0.2233
29684W        W45493   6.691  10.931  15.206 -0.0098 -0.1580 -0.0572
29685W        W45494   2.940   4.607  10.783 -0.0380 -0.4212  0.2479
29686W        W45495   6.197  15.003   1.963 -0.1918 -0.1097  0.1193
29687W        W45496  10.363  15.977  14.141  0.1304 -0.3149 -0.1195
29688W        W45497   9.558  17.117   0.550 -0.0557 -0.1252  0.2364
29689W        W45498  15.228  12.579  15.227  0.2193 -0.0836  0.2894
29690W        W45499  10.096   0.210  11.807  0.1636  0.0817  0.2256
29691W        W45500   6.504   9.559  11.068  0.1306  0.0010  0.1315
29692W        W45501  11.562   5.128   2.033 -0.1669 -0.0192 -0.0543
29693W        W45502   1.984  11.904  11.953  0.3441  0.1058  0.0705
29694W        W45503  13.522   4.639  12.337 -0.1046 -0.1235 -0.0068
29695W        W45504  13.972  11.762  11.345  0.1637  0.2359  0.2149
29696W        W45505   5.301   8.041   2.286 -0.2495  0.3958 -0.2327
29697W        W45506  16.108  10.088  13.044  0.1279  0.1002 -0.2492
29698W        W45507   6.489  12.025  13.011  0.2209 -0.1047 -0.0884
29699W        W45508   1.229  14.954   1.768  0.0480 -0.1320 -0.1398
29700W        W45509   5.072   2.852  11.977  0.0086  0.0132 -0.0482
29701W        W45510   0.360  13.917  12.055 -0.2973 -0.1375  0.0484
29702W        W45511   5.149  17.260   0.032 -0.1485  0.1164  0.0106
29703W        W45512   4.541   7.046  13.690  0.0541  0.1594 -0.3248
29704W        W45513  16.509   4.830   5.191 -0.0802  0.1624  0.0190
29705W        W45514  18.011  12.102   1.251 -0.0434 -0.0187  0.0022
29706W        W45515  11.286  13.901   2.658  0.1102 -0.0315 -0.2212
29707W        W45516   3.827   4.531   1.783 -0.0700  0.0147  0.0579
29708W        W45517   2.356   2.718  10.268  0.0476 -0.0703 -0.1481
29709W        W45518  10.122   3.827  14.379 -0.1422  0.2494 -0.1336
29710W        W45519   1.648  14.348   5.094 -0.1794  0.1658  0.0537
29711W        W45520  17.032  10.974  15.240  0.3189 -0.2188  0.1167
29712W        W45521   1.109  14.729  10.174 -0.1232 -0.1176  0.0442
29713W        W45522   9.052   4.204   2.053  0.0260 -0.3968 -0.1758
29714W        W45523  17.884   8.821   4.401 -0.2978 -0.1407 -0.1913
29715W        W45524   1.065   6.193  14.471 -0.1893 -0.2122 -0.1480
29716W        W45525   1.829   5.777   1.182  0.1671 -0.0223  0.2083
29717W        W45526  18.732  14.683  13.620  0.2589  0.1116  0.1410
29718W        W45527  17.961   5.250  11.137  0.0195 -0.0754  0.0663
29719W        W45528  17.294  13.996   5.588 -0.2906 -0.0132 -0.0917
29720W        W45529  11.039  14.967   1.598  0.3858  0.1838  0.0907
29721W        W45530   1.471   0.742  13.078 -0.1022  0.0716  0.1855
29722W        W45531   5.418  18.265  12.127  0.0297 -0.1544 -0.1261
29723W        W45532   7.625  16.195  10.110 -0.2431  0.1058 -0.0812
29724W        W45533   6.757   9.814  11.666 -0.0115  0.0037 -0.1563
29725W        W45534  17.780  18.198   1.764  0.0029 -0.0449 -0.1306
29726W        W45535  17.719  16.466   1.857 -0.3895 -0.2649 -0.0876
29727W        W45536   6.109   0.569   4.041 -0.0552 -0.0546  0.2483
29728W        W45537   6.890   3.372   9.890 -0.2765  0.0670  0.2996
29729W        W45538   3.509   9.307  13.386  0.1590 -0.1481  0.2826
29730W        W45539  16.933   2.961  11.267 -0.0879 -0.2169 -0.2707
29731W        W45540   2.626   6.676   0.379  0.0278  0.2841 -0.0737
29732W        W45541   2.507  18.535  10.700 -0.1369 -0.1266  0.1076
29733W        W45542   3.898  13.198  13.224 -0.1057  0.2403  0.2640
29734W        W45543   8.065  17.867   3.086  0.1500 -0.0060 -0.1679
29735W        W45544   4.998   2.461  10.770 -0.0540 -0.0439 -0.4781
29736W        W45545  10.854   3.757  14.979 -0.3555  0.2125  0.0428
29737W        W45546  13.935  11.991   1.516  0.0545  0.2369  0.2592
29738W        W45547  16.965   0.906   2.821 -0.0141  0.2328 -0.1651
29739W        W45548   5.447  12.827   1.008  0.0896 -0.1943  0.0038
29740W        W45549   9.890   6.763   1.574  0.4258  0.2463 -0.1566
29741W        W45550  14.285  17.730   4.698  0.0833 -0.2945 -0.1028
29742W        W45551  12.726   3.679   9.712  0.0328 -0.0524  0.1175
29743W        W45552   1.199   0.020  11.200  0.0715  0.3600 -0.1977
29744W        W45553   3.713   9.735  11.243 -0.0495  0.2237 -0.2311
29745W        W45554   6.151  15.111  12.253 -0.0925  0.2415  0.1226
29746W        W45555  17.981   0.395   2.653 -0.2149 -0.0264  0.0089
29747W        W45556   0.222   8.871   1.889  0.0270  0.2127 -0.4383
29748W        W45557   1.345   5.131  10.469  0.1618  0.1023 -0.2690
29749W        W45558   7.507   2.971  14.665 -0.0064 -0.3139  0.1588
29750W        W45559  10.843  11.335  11.020  0.0494 -0.1272 -0.2106
29751W        W45560   7.429  16.354  14.403 -0.0268 -0.1034 -0.2358
29752W        W45561  17.778  13.952   5.368 -0.0509  0.1005 -0.0481
29753W        W45562   2.572   8.091   2.276 -0.0031 -0.1890  0.2381
29754W        W45563   9.464   4.287  11.279  0.1601 -0.5100  0.1432
29755W        W45564  17.692  10.875  14.432 -0.1459  0.0805  0.1032
29756W        W45565   9.262   3.508   3.712  0.0375 -0.2270  0.3573
29757W        W45566  10.104   2.611   2.946 -0.3874  0.1353 -0.0608
29758W        W45567  13.178  17.820   0.935 -0.2143 -0.1990 -0.0678
29759W        W45568   5.230  18.419  11.170  0.0926  0.1417  0.1360
29760W        W45569  14.748   2.814  14.790  0.0816 -0.0557  0.1473
29761W        W45570  18.345  15.775   2.334 -0.1784  0.0829  0.1831
29762W        W45571   2.998  15.955   2.464  0.2263 -0.1645 -0.1765
29763W        W45572   8.539   3.582   2.196  0.1911 -0.0937 -0.2963
29764W        W45573   2.162  13.385   1.029  0.1179  0.0697  0.2718
29765W        W45574   1.381  14.757   0.570 -0.2238 -0.0860 -0.0908
29766W        W45575   3.209   1.622   5.303  0.0544 -0.3098  0.0412
29767W        W45576  13.257   4.290  12.511  0.2155 -0.1252  0.0549
29768W        W45577   0.079   8.032   3.035  0.1079 -0.1438  0.0715
29769W        W45578   7.490   5.099  13.602 -0.2529  0.0125 -0.0396
29770W        W45579   3.386   5.560   3.248 -0.1533  0.0528  0.3113
29771W        W45580  16.734   7.226   0.683 -0.0907 -0.1616 -0.2183
29772W        W45581   0.287  15.218  12.505 -0.0404 -0.0705 -0.1705
29773W        W45582  14.840  12.358  14.999  0.0746 -0.0293 -0.1571
29774W        W45583   8.368   4.713  10.551  0.0694  0.4298  0.0266
29775W        W45584  18.812   4.096   2.370  0.0028  0.1626 -0.0108
29776W        W45585   9.206   5.745   3.467  0.0868 -0.2855  0.0453
29777W        W45586  16.478   7.450   4.111  0.1980  0.1713 -0.0386
29778W        W45587   3.464   0.414  12.364  0.2154  0.3334  0.0733
29779W        W45588   4.291  17.273   2.859  0.0113 -0.2566  0.0284
29780W        W45589  13.776   7.721  14.240 -0.1496 -0.1884 -0.3186
29781W        W45590  18.195   7.314   0.025 -0.0383 -0.1280  0.0417
29782W        W45591  19.025  10.664   1.548 -0.1016 -0.0926  0.0444
29783W        W45592  10.673   7.216  13.087  0.0471 -0.0535 -0.0372
29784W        W45593  18.724  15.547   4.523  0.0762  0.2371 -0.0098
29785W        W45594  15.907   9.523   2.947 -0.1249 -0.0022  0.0589
29786W        W45595  16.267   6.420   6.222 -0.0377  0.3187  0.0564
29787W        W45596   7.029   2.251  10.770  0.0721 -0.3265  0.0382
29788W        W45597  11.885   5.544  14.599  0.1238 -0.0075 -0.4637
29789W        W45598   9.496   3.176   3.248  0.0875  0.2242  0.1339
29790W        W45599  13.948  10.635   0.872 -0.1592 -0.2047  0.1813
29791W        W45600  12.515   5.277  12.361  0.0393  0.0918 -0.1665
29792W        W45601  10.975   1.852  11.450 -0.2128  0.1749  0.0636
29793W        W45602   6.137   7.765  12.367 -0.0197 -0.0143 -0.0340
29794W        W45603   2.200   4.284   5.507 -0.3252 -0.1430 -0.1289
29795W        W45604  13.145  10.635  14.916  0.2612 -0.0630  0.0368
29796W        W45605   0.099   2.425  11.168 -0.2176  0.1124  0.0357
29797W        W45606  18.066  17.771  12.599 -0.1150  0.0245 -0.0037
29798W        W45607  13.328   1.104  13.216  0.2640  0.1337 -0.0139
29799W        W45608   7.490  11.750   2.493 -0.0107  0.2113  0.3378
29800W        W45609  10.571   1.775   4.776  0.3201  0.3016 -0.0279
29801W        W45610  16.737  16.506  11.991  0.2250  0.0022 -0.2341
29802W        W45611   2.279  14.674   1.323 -0.0459  0.0459  0.0878
29803W        W45612  10.346   7.346  13.898 -0.0780 -0.2831 -0.0832
29804W        W45613   4.205  15.199  14.405 -0.1254  0.3925  0.0055
29805W        W45614   1.971   5.922  10.540  0.1491 -0.3206 -0.0854
29806W        W45615   5.683  16.736  10.988  0.0457 -0.0268  0.0486
29807W        W45616   0.543  16.752  14.673  0.0455 -0.5586 -0.0379
29808W        W45617   1.250   8.146   1.348 -0.3306 -0.1749 -0.2664
29809W        W45618  17.822   5.917  10.901 -0.1612  0.0907 -0.0011
29810W        W45619  15.555   7.495   4.584 -0.1747  0.2462  0.2361
29811W        W45620   0.022   6.354  14.831  0.2907 -0.2241 -0.2682
29812W        W45621  13.936  18.250  11.151 -0.1611  0.0058 -0.1114
29813W        W45622   7.980   4.219  13.052 -0.0200 -0.0028  0.1804
29814W        W45623  12.469   8.315   4.708  0.2661  0.0160  0.2228
29815W        W45624  17.442  18.415   9.850  0.1399  0.4203  0.2822
29816W        W45625   1.833   1.711  15.234  0.4074 -0.0764  0.2272
29817W        W45626   7.976   1.170   5.462 -0.0422 -0.2134 -0.0131
29818W        W45627   2.963  17.574   0.806  0.2451  0.2270  0.0199
29819W        W45628  11.063  15.196   4.372  0.0193 -0.2405  0.0383
29820W        W45629  17.382  13.550  13.999 -0.1397 -0.1407 -0.1477
29821W        W45630  11.463   8.555  13.566 -0.0679  0.2652  0.1143
29822W        W45631   0.746   8.996  13.347  0.1640  0.0159  0.3735
29823W        W45632   4.889  18.521   0.234 -0.1411 -0.1782  0.0245
29824W        W45633  15.037  13.354   0.884 -0.3485  0.0999 -0.3518
29825W        W45634  13.775  16.256  13.891  0.1530  0.0982 -0.3299
29826W        W45635  11.359   2.385  12.605  0.1624 -0.1335 -0.2184
29827W        W45636  12.362  14.455   1.811 -0.3627 -0.1268 -0.1110
29828W        W45637   2.682   9.605  10.457  0.0470 -0.0066 -0.1559
29829W        W45638   3.557  10.179  12.042 -0.0842  0.0147  0.0355
29830W        W45639  12.355   0.740   4.472 -0.1385 -0.0342  0.4456
29831W        W45640  11.955   5.024  12.338 -0.2675  0.0827  0.1795
29832W        W45641  12.679  10.635   3.449  0.1462 -0.1207  0.1271
29833W        W45642   6.367  12.151   0.491  0.1615  0.0034  0.0818
29834W        W45643  13.030  16.516   2.678  0.0183  0.1767  0.1252
29835W        W45644   9.492  13.576   4.865 -0.0113  0.2733 -0.0914
29836W        W45645  14.876  11.559   1.571  0.1569 -0.1768  0.0359
29837W        W45646   4.282   8.797  15.069 -0.3408 -0.1053 -0.2212
29838W        W45647  12.188   8.577  14.865 -0.1445  0.3186  0.2768
29839W        W45648  18.106   2.714  10.998  0.4200 -0.0376  0.0275
29840W        W45649   7.101  14.211   0.005 -0.0768 -0.0689  0.0066
29841W        W45650   1.388   4.572  12.835 -0.0096  0.1860 -0.0397
29842W        W45651  11.290   5.721  12.228  0.0649  0.1835 -0.0350
29843W        W45652   9.816   1.105   3.226  0.1321  0.0720  0.1007
29844W        W45653   8.731   2.773   2.275 -0.0488 -0.2947  0.2131
29845W        W45654  16.009  16.890   0.708 -0.1015 -0.0887 -0.1995
29846W        W45655   4.801  12.143   0.415  0.0451 -0.2453 -0.1927
29847W        W45656   4.599  10.400  14.836 -0.3932  0.0962 -0.1844
29848W        W45657   5.712   8.682  14.903  0.1131 -0.0520 -0.1041
29849W        W45658  17.744  13.234   1.950 -0.3244 -0.3504  0.0215
29850W        W45659  11.383   2.736   0.064  0.0835  0.5585  0.0368
29851W        W45660   4.058  11.380   1.836 -0.1635  0.0091 -0.0221
29852W        W45661   1.610  17.491  15.006  0.0377 -0.2733  0.1516
29853W        W45662  18.953   4.486   5.313 -0.1016  0.1640 -0.1361
29854W        W45663  15.996   0.118  14.383  0.1837 -0.1235  0.0949
29855W        W45664  14.096   7.544   2.896  0.1994 -0.0061 -0.1741
29856W        W45665   9.712  16.400   4.254  0.1884 -0.0890 -0.2535
29857W        W45666  13.709  16.721   3.873  0.1600 -0.4628  0.4113
29858W        W45667  18.255  14.451   1.930  0.0446 -0.2593  0.0627
29859W        W45668   8.216   8.101   0.588 -0.1745 -0.0589 -0.1790
29860W        W45669  12.942  16.502   3.690 -0.1802 -0.2771  0.0397
29861W        W45670  16.117   9.562   4.014  0.0762  0.1448  0.0035
29862W        W45671   9.982  13.698   5.029 -0.1076 -0.1758 -0.0602
29863W        W45672   4.224   2.086  13.138 -0.0535  0.1830  0.2110
29864W        W45673   1.463  10.384  10.801 -0.5091 -0.1124  0.1962
29865W        W45674  11.637   3.469  13.389  0.0370  0.0911 -0.0380
29866W        W45675  12.060   2.554  14.364 -0.4563 -0.1612 -0.0567
29867W        W45676  16.365  17.100   1.637 -0.0543  0.2488 -0.1416
29868W        W45677   0.061   6.323  11.989  0.1447  0.2878  0.0447
29869W        W45678   1.170   2.667   4.131  0.1865  0.0600  0.0176
29870W        W45679   4.036   9.963   2.464 -0.0563  0.0184 -0.0936
29871W        W45680   3.314  16.294   2.748  0.0269  0.0516 -0.2706
29872W        W45681   1.021   5.948   2.109  0.1726  0.0120 -0.3822
29873W        W45682  15.705   2.086   0.211 -0.3198  0.0657  0.2098
29874W        W45683   2.651   6.962  11.077  0.3116  0.2318  0.0930
29875W        W45684  13.898   6.489  12.371  0.0911  0.2273 -0.1630
29876W        W45685  13.332  13.895  12.345 -0.1063 -0.0859  0.0830
29877W        W45686  13.394   4.073   6.270 -0.1887 -0.4841 -0.1666
29878W        W45687   6.308   7.287  13.101 -0.2128 -0.1177 -0.2898
29879W        W45688   5.105   7.872   0.597  0.1098  0.0925  0.0673
29880W        W45689   1.736   8.349   4.463  0.1816 -0.1907  0.0533
29881W        W45690  11.398   7.647   2.589  0.3655  0.0062  0.0789
29882W        W45691   4.832  12.699  13.556  0.0969  0.3227 -0.0258
29883W        W45692  11.214  11.665  11.347 -0.2797 -0.0752  0.0440
29884W        W45693  12.222   9.885   0.167 -0.1023  0.1189  0.0419
29885W        W45694  12.228  10.059  13.420  0.0264 -0.1450  0.0270
29886W        W45695   3.010   5.417   4.173  0.1680  0.1303 -0.1901
29887W        W45696   4.503   4.547   1.641  0.3423 -0.3029  0.1338
29888W        W45697   9.294   5.521   3.934  0.2621 -0.0206 -0.0407
29889W        W45698   5.604   8.491  13.833  0.2620  0.0379 -0.1451
29890W        W45699  13.627   4.611  13.696  0.1121  0.0262 -0.0463
29891W        W45700  14.927  16.572   3.250 -0.3287  0.0721 -0.3172
29892W        W45701  16.387  10.677  13.464 -0.3476  0.1847 -0.1429
29893W        W45702   7.710   0.490  12.009  0.1184 -0.1951 -0.2507
29894W        W45703  10.341  14.816   3.041  0.1656  0.2545  0.0267
29895W        W45704   2.651   8.182   1.134 -0.0236  0.0705  0.0799
29896W        W45705   7.008  17.734   1.246  0.2038  0.1665  0.2446
29897W        W45706  18.372   7.111  14.566  0.0187 -0.2271  0.2606
29898W        W45707   8.606   9.008   2.875  0.2516 -0.1241 -0.2825
29899W        W45708   9.949  11.791   4.662  0.0508  0.0910  0.1210
29900W        W45709   5.456   8.290  12.293 -0.1729 -0.0317 -0.0994
29901W        W45710  16.910  14.526   0.436  0.0123  0.1367  0.2579
29902W        W45711  11.632   4.150   4.026 -0.0934 -0.0916  0.2449
29903W        W45712  16.288   6.734   1.363 -0.1177 -0.0869 -0.3862
29904W        W45713  11.888   2.556   0.075 -0.2942 -0.1186  0.0486
29905W        W45714   6.595   8.201   2.950 -0.0207  0.2051 -0.3012
29906W        W45715  17.999   1.129   1.309 -0.2490 -0.1673  0.3985
29907W        W45716   6.177  17.076  14.197  0.2484 -0.2057  0.0509
29908W        W45717  13.164  10.623   2.682  0.1592 -0.1106 -0.2344
29909W        W45718   3.831  15.093   1.004 -0.4771 -0.0652  0.0633
29910W        W45719   1.473  14.026   1.525  0.0375  0.0832  0.2147
29911W        W45720   2.899   0.272   2.312 -0.0100 -0.1862  0.1340
29912W        W45721  14.960   7.236  11.332  0.2871  0.1867 -0.2130
29913W        W45722  18.397   0.042   2.723  0.1450 -0.0935  0.0095
29914W        W45723   9.339  18.823   0.772  0.0019  0.0101 -0.0240
29915W        W45724  16.627  10.620   4.296 -0.0176  0.1423 -0.1370
29916W        W45725  17.645  10.729   3.449  0.0468 -0.0160  0.2315
29917W        W45726  14.764   2.124  13.762  0.1491 -0.1827 -0.2956
29918W        W45727  17.024  11.963  15.283 -0.1583 -0.1903 -0.0810
29919W        W45728   5.774   2.857  11.166 -0.0855  0.1148 -0.2160
29920W        W45729   6.246  18.218   3.199 -0.0084 -0.0348  0.3605
29921W        W45730   8.394   6.398   4.068 -0.1383  0.0479  0.1066
29922W        W45731  18.011   0.100  13.720 -0.1381 -0.0739 -0.2789
29923W        W45732   2.464  10.026  12.801 -0.0472 -0.1105  0.1219
29924W        W45733  14.494  18.389  13.363 -0.3145 -0.0774 -0.0125
29925W        W45734  14.391  10.061   2.875  0.0119 -0.2309 -0.2920
29926W        W45735   6.472  11.609  13.491 -0.2729 -0.1817  0.1378
29927W        W45736   0.875  11.183  11.830  0.1540 -0.1268  0.2201
29928W        W45737  15.789  16.152   4.387  0.3388  0.2239 -0.0067
29929W        W45738  14.679   4.766   0.938  0.2158  0.0954 -0.1951
29930W        W45739  17.891  17.897   0.804 -0.2679  0.0787  0.1481
29931W        W45740   3.023  13.087   1.353 -0.0734 -0.1178 -0.0883
29932W        W45741   4.288  12.669   4.661  0.0594  0.0888  0.0439
29933W        W45742   6.335   0.976  11.302 -0.3193  0.0803 -0.1116
29934W        W45743  14.376   1.512  12.575  0.1867 -0.1351 -0.2726
29935W        W45744   9.834   2.784  13.718 -0.2694 -0.2802  0.1243
29936W        W45745   6.524   6.781   0.170 -0.0396 -0.1569 -0.2267
29937W        W45746   7.239  11.153  10.010 -0.1541 -0.3933 -0.3764
29938W        W45747  13.391   6.974   3.587  0.0019  0.2289  0.2166
29939W        W45748   4.149  16.303  11.020  0.2796  0.1959  0.3608
29940W        W45749  12.856  13.679  10.932  0.0302  0.1136  0.1443
29941W        W45750  16.059   5.686  10.928 -0.0234  0.2318 -0.2639
29942W        W45751  15.573   6.748   5.207 -0.1312  0.1255 -0.1997
29943W        W45752  13.581  17.688   1.224  0.1403  0.0333  0.0791
29944W        W45753   3.449  11.988  14.049 -0.1989  0.1833  0.1712
29945W        W45754   6.582   5.998   0.595 -0.2082  0.1454  0.2171
29946W        W45755   4.113   4.805   4.451 -0.2811  0.0737 -0.0214
29947W        W45756  10.705  17.558   4.051  0.3488  0.2237  0.3217
29948W        W45757  16.064  10.331   1.533 -0.1126  0.0939 -0.1619
29949W        W45758   9.847   3.886  13.228  0.0579 -0.0294  0.1053
29950W        W45759  11.539  13.979  10.670  0.0004 -0.2041 -0.2328
29951W        W45760   8.953  10.079  13.529 -0.2188  0.0097  0.3047
29952W        W45761   1.922   5.428   0.081  0.2400 -0.0032  0.0502
29953W        W45762   4.878   7.202   0.860 -0.0411 -0.0873  0.1119
29954W        W45763   1.464  11.024  11.886 -0.2245  0.0572 -0.0940
29955W        W45764   7.873  14.084   3.417  0.1822 -0.1472 -0.0558
29956W        W45765   3.933   2.010   5.029 -0.1270 -0.0080 -0.1421
29957W        W45766  10.128  13.632  10.023  0.0811  0.1838  0.0760
29958W        W45767   8.087   4.804   3.214  0.5306 -0.0703  0.1146
29959W        W45768   1.459   3.913  12.735  0.0116 -0.3532  0.1155
29960W        W45769  18.666  13.543  10.987  0.0601  0.2627 -0.2156
29961W        W45770  15.200   3.627   1.138 -0.0445  0.4546  0.0348
29962W        W45771   8.374   7.927  12.848 -0.1228 -0.0937 -0.4454
29963W        W45772   5.613   3.782   2.685  0.0851 -0.0765  0.0137
29964W        W45773   6.860  12.013   4.187  0.2625 -0.1651 -0.4411
29965W        W45774   5.029  16.530   3.695  0.2430 -0.0824 -0.1799
29966W        W45775   8.152  16.677  12.332 -0.2238  0.0083  0.0746
29967W        W45776  17.138  12.906   4.839 -0.2244 -0.0644 -0.0265
29968W        W45777  11.728  16.384  10.286  0.1801  0.0128 -0.0713
29969W        W45778   3.078   1.191   0.042 -0.1231 -0.0242  0.0734
29970W        W45779   8.204  10.946  12.271 -0.1520  0.0700  0.2921
29971W        W45780  13.632   7.093  13.393 -0.0667 -0.0163 -0.5007
29972W        W45781  18.821  15.894  11.968 -0.0983  0.0444 -0.2637
29973W        W45782   6.939  11.601  12.363  0.0740 -0.0640 -0.2181
29974W        W45783  12.114  17.225  15.134  0.0580 -0.1234  0.2082
29975W        W45784  10.515  16.254  10.955 -0.0473  0.0882 -0.0792
29976W        W45785  13.476  12.767  11.364 -0.0625 -0.0564 -0.2250
29977W        W45786  10.221   8.421  11.459  0.1119 -0.1211 -0.0556
29978W        W45787  11.592  13.792  12.993  0.2921  0.1350  0.0392
29979W        W45788   0.699  11.578  12.803 -0.0553 -0.0564  0.2360
29980W        W45789   4.055   7.481   2.007  0.2082  0.0594 -0.0048
29981W        W45790   0.295   0.595  13.719  0.1861  0.2491 -0.0744
29982W        W45791   0.449  18.866   0.503  0.1290 -0.0498 -0.2480
29983W        W45792   2.643  14.914   1.579  0.3005 -0.1726 -0.2609
29984W        W45793  17.085  14.492  13.572 -0.0732  0.1571 -0.2683
29985W        W45794  13.111   3.045  11.840 -0.3216  0.1326 -0.0393
29986W        W45795  17.179   4.771   0.305  0.0582  0.0696 -0.1968
29987W        W45796   4.055  13.312   2.330  0.1061 -0.0063 -0.0443
29988W        W45797  15.411   5.397  15.182  0.1250  0.1558  0.1091
29989W        W45798   1.970  13.066   1.338 -0.0166 -0.0540 -0.0455
29990W        W45799  11.022  10.242   3.633  0.2770  0.0637 -0.1320
29991W        W45800   6.421   0.453  11.362  0.1711  0.0290 -0.2404
29992W        W45801  17.997   7.494   9.638  0.1524  0.0015 -0.1295
29993W        W45802  11.859   0.665   3.342 -0.0747  0.1145 -0.1452
29994W        W45803  14.943   6.534   0.219  0.1025 -0.1738 -0.0632
29995W        W45804   2.006   6.930   0.980 -0.1875  0.2371 -0.2678
29996W        W45805   0.513  10.546  11.807  0.1840 -0.1738 -0.1931
29997W        W45806  16.455   9.295   2.854 -0.2416  0.0987 -0.2789
29998W        W45807   9.215  17.516   5.300 -0.0146  0.2395 -0.2203
29999W        W45808   9.816  12.123  12.108 -0.0479 -0.0390  0.2024
30000W        W45809   8.387  14.976  14.535 -0.0002 -0.0818 -0.0685
30001W        W45810  14.746  10.838   2.066  0.2899 -0.2125  0.0140
30002W        W45811  15.228   7.095  15.033  0.1068 -0.0558  0.0778
30003W        W45812  14.956  10.357  11.305 -0.2519  0.1307 -0.1065
30004W        W45813   2.309  18.005  10.309 -0.0071  0.1753  0.1383
30005W        W45814  15.346   8.937   3.674 -0.1852 -0.1058  0.0361
30006W        W45815  11.854  18.052   1.175  0.0791  0.0582 -0.0381
30007W        W45816  13.174   3.087   1.548  0.1125  0.1197 -0.3268
30008W        W45817  11.340  18.773  12.519  0.2942  0.0647  0.0249
30009W        W45818  12.426  10.830  14.108 -0.0191  0.3615 -0.0387
30010W        W45819  11.265  16.063  13.114 -0.0648 -0.2619 -0.1947
30011W        W45820  12.450   8.743   0.387 -0.1301  0.0959  0.0609
30012W        W45821  16.494   5.907  12.173 -0.0458 -0.3154  0.2265
30013W        W45822   4.145  16.429   2.335 -0.0594 -0.1789  0.1457
30014W        W45823  15.794   8.708   1.593 -0.0082  0.1097  0.3566
30015W        W45824  16.204  16.068   0.666 -0.1161  0.0375  0.2254
30016W        W45825   0.972  11.277  14.272 -0.0556 -0.1138  0.1029
30017W        W45826  14.082  12.047   3.687  0.2170 -0.0973 -0.0821
30018W        W45827   8.488   7.840   4.948 -0.3840 -0.2726 -0.1448
30019W        W45828  16.740   1.633  10.785  0.0738 -0.1271  0.0444
30020W        W45829   1.410  16.626   5.700  0.1182 -0.0271 -0.3404
30021W        W45830  17.241  10.348   2.699  0.0838  0.0746  0.0758
30022W        W45831   8.359  10.384   3.549  0.1009  0.0290  0.0448
30023W        W45832  14.602   9.422  10.081  0.3224 -0.2644 -0.2585
30024W        W45833  12.408  15.112   3.756 -0.1789 -0.1829 -0.0588
30025W        W45834   1.899  13.673  11.416  0.3276  0.0162  0.0988
30026W        W45835   4.261  16.988  14.836 -0.3399  0.1961  0.1651
30027W        W45836  14.356   2.379   4.364 -0.0210  0.0211 -0.1674
30028W        W45837   0.489  14.669  14.166  0.0875 -0.0242  0.0349
30029W        W45838   1.526  14.033   6.046  0.0710 -0.1443 -0.3545
30030W        W45839   0.789  12.484  11.239 -0.0369 -0.2976 -0.2279
30031W        W45840   8.718  11.503   3.541  0.2541 -0.0431  0.0820
30032W        W45841   7.538  16.054  14.772  0.0368  0.1961  0.3807
30033W        W45842   1.389   1.997  13.551 -0.0833  0.0774 -0.2810
30034W        W45843  13.539  12.646   5.136  0.0411 -0.1290  0.3198
30035W        W45844   5.107   4.032   2.082  0.0036 -0.2656  0.1498
30036W        W45845   0.592  13.241  12.090  0.0572 -0.0792  0.1832
30037W        W45846  10.104  15.521   0.585  0.1022  0.1940  0.1959
30038W        W45847   0.378   3.425   3.412  0.1212 -0.0648 -0.0955
30039W        W45848  10.557   5.318   2.471 -0.1379 -0.2321 -0.2353
30040W        W45849   6.522  18.614   1.825 -0.1145 -0.0487 -0.4110
30041W        W45850   8.356  13.853  14.221 -0.0663  0.2937 -0.2103
30042W        W45851  14.281   2.820   4.567  0.4326  0.1874 -0.1614
30043W        W45852   8.500  16.222   5.282  0.1294  0.0223 -0.2206
30044W        W45853   4.885  14.479  11.023  0.3126  0.0516 -0.0331
30045W        W45854   5.964   6.969  12.399 -0.2465 -0.1417  0.0301
30046W        W45855   6.301  18.886   2.134 -0.0056  0.1968 -0.2332
30047W        W45856   0.073  14.930   4.630 -0.1766  0.1228 -0.1759
30048W        W45857   9.828  18.430  14.199  0.0879 -0.0750 -0.1582
30049W        W45858  15.067   9.325   3.997 -0.1992  0.1828 -0.0084
30050W        W45859   3.008  11.426  15.227 -0.2662 -0.0453  0.2865
30051W        W45860   8.517  10.977   1.014 -0.3123 -0.3551  0.1363
30052W        W45861  13.921   2.910  12.179  0.1918 -0.0580  0.0890
30053W        W45862  15.165   7.887   3.753  0.2900  0.0085  0.3025
30054W        W45863  18.784   1.392   3.713 -0.1665 -0.1709  0.1874
30055W        W45864  17.358  10.693   4.394 -0.3276 -0.0525  0.0111
30056W        W45865   1.284  18.241   3.915  0.2377  0.0219 -0.1922
30057W        W45866   8.981   5.092  12.125  0.0164  0.0294 -0.1063
30058W        W45867  15.944   3.196   5.284  0.1669 -0.3795 -0.0837
30059W        W45868   8.825  16.998  13.064  0.1361 -0.0530 -0.2891
30060W        W45869   5.181   7.531   2.493 -0.0412  0.1413 -0.2987
30061W        W45870   6.802  17.372   4.060 -0.0598 -0.3353 -0.1670
30062W        W45871   8.688  14.714   2.059 -0.1951  0.0918 -0.3050
30063W        W45872   9.187   9.868   9.618  0.0604  0.3269 -0.1903
30064W        W45873  15.940  18.148   2.420  0.1608 -0.0752 -0.4398
30065W        W45874  17.624   6.542  14.054  0.0099  0.3231  0.1110
30066W        W45875   6.795  13.845   1.284 -0.1874 -0.0819 -0.0277
30067W        W45876   5.536  17.782   9.326 -0.0381 -0.0023 -0.0295
30068W        W45877   6.779   2.961   3.833 -0.3309 -0.0668  0.1084
30069W        W45878  16.174   0.313  10.968  0.1310  0.0269  0.3302
30070W        W45879  11.140   7.491   2.953 -0.1555  0.0325 -0.1637
30071W        W45880  10.231  16.034   1.375 -0.0693  0.3915 -0.2102
30072W        W45881   8.264  12.798  10.333  0.0306 -0.3990  0.0942
30073W        W45882   3.709   1.754   1.231 -0.0864 -0.0762  0.0321
30074W        W45883   7.503  12.409   8.960 -0.0097  0.1809 -0.0269
30075W        W45884  13.508   9.372   3.460 -0.3318 -0.1235 -0.0987
30076W        W45885   5.153   4.164  12.550 -0.0349  0.2924  0.1848
30077W        W45886  12.490  13.785  13.351  0.1774  0.4173 -0.1089
30078W        W45887   2.107  14.673  13.436  0.3638 -0.2673 -0.0373
30079W        W45888   1.860  10.778   4.717 -0.0235  0.0299 -0.1160
30080W        W45889   8.856  12.408  11.272 -0.2147  0.2514 -0.0940
30081W        W45890   5.287   1.670   5.013  0.0082  0.1214 -0.1919
30082W        W45891  18.098   4.823   4.380 -0.1053 -0.1096  0.2923
30083W        W45892  16.082  16.494   0.961  0.0400 -0.0837  0.1929
30084W        W45893   4.583  16.808   3.040 -0.0918  0.1830 -0.1887
30085W        W45894   4.231   8.746  12.314  0.1228 -0.0450 -0.1557
30086W        W45895   4.524  13.531  10.575 -0.3521 -0.1996  0.0387
30087W        W45896  16.956  15.786  11.482 -0.0262  0.0323 -0.0476
30088W        W45897   0.978   3.570  10.507  0.2809 -0.1252 -0.0504
30089W        W45898   6.940   2.731   0.060 -0.0690 -0.3354  0.0012
30090W        W45899  15.084   5.820  15.104 -0.0668  0.2089  0.1614
30091W        W45900  11.988  16.802   1.207  0.0056 -0.2910 -0.0956
30092W        W45901  14.053   6.956  12.225 -0.0702 -0.0505 -0.1773
30093W        W45902   0.066  17.977  14.403 -0.0731  0.0755  0.1079
30094W        W45903  11.432  13.352  10.981  0.0391  0.0924  0.0427
30095W        W45904   0.630   5.660   2.582  0.0244  0.2995  0.0700
30096W        W45905   6.193   7.654   3.922  0.4110  0.1541  0.0833
30097W        W45906   9.955  13.221  10.731 -0.0544  0.0757  0.2328
30098W        W45907   3.576  14.805  13.360 -0.0153 -0.0574 -0.0847
30099W        W45908  10.188   2.307   1.969 -0.2818 -0.0442 -0.1104
30100W        W45909  18.681  14.809  12.924 -0.0235  0.0220 -0.2409
30101W        W45910  11.081  15.924  14.144 -0.5980  0.0798  0.0903
30102W        W45911   1.818  17.048  15.236 -0.0356 -0.1232 -0.1182
30103W        W45912  17.485  10.835  11.859 -0.4003 -0.1526 -0.1768
30104W        W45913   7.824   7.076  14.272  0.0858  0.0678 -0.3123
30105W        W45914  17.064   2.535  13.962  0.0192  0.0276 -0.2325
30106W        W45915   4.340  14.135  11.372  0.1773  0.0248  0.0828
30107W        W45916  17.777   1.670  11.767 -0.2855 -0.0803  0.1434
30108W        W45917  13.841  18.620   0.400  0.2868  0.1234 -0.0708
30109W        W45918  15.510  18.417   2.227 -0.2810 -0.1233  0.2220
30110W        W45919  13.156  10.741   0.532  0.2407 -0.0357  0.1658
30111W        W45920   7.235  12.810  10.113  0.1429 -0.0697 -0.0607
30112W        W45921  18.254   8.599  13.845  0.0964 -0.1872 -0.3275
30113W        W45922   4.523  13.123   1.568 -0.1362 -0.2494 -0.3610
30114W        W45923   4.357  11.880   0.652  0.0437  0.2125 -0.1260
30115W        W45924  16.476  15.281   0.093  0.2409 -0.0446 -0.1320
30116W        W45925  15.954   2.358  15.101  0.1129  0.1054 -0.0914
30117W        W45926  12.327   9.360  13.787 -0.1954  0.1311  0.0984
30118W        W45927   7.211  13.466  11.307 -0.1517 -0.0256  0.1383
30119W        W45928  11.144  18.803  10.603  0.1119  0.0445  0.0192
30120W        W45929   7.339   8.882   2.015  0.0468 -0.2073  0.2042
30121W        W45930  13.282   7.374   1.588 -0.0089  0.1891 -0.0946
30122W        W45931  10.247  15.717  12.189 -0.0658  0.1558 -0.0170
30123W        W45932   1.294  12.720  14.944  0.4403 -0.0248 -0.1972
30124W        W45933   7.000  18.652  14.793  0.2626  0.2863 -0.1384
30125W        W45934   6.609  16.549   0.162  0.1881  0.0477 -0.0845
30126W        W45935  14.587   3.568  15.111  0.0212  0.1419 -0.1304
30127W        W45936   9.754   9.173   4.210  0.3656 -0.1951  0.0079
30128W        W45937  12.945   2.979   5.841 -0.1364  0.1720  0.0500
30129W        W45938  17.033  11.592  14.071 -0.0923 -0.0003 -0.0841
30130W        W45939  17.425   9.388  11.044  0.0131 -0.2791 -0.0038
30131W        W45940   3.197  11.303   0.394 -0.0237  0.2954  0.0862
30132W        W45941  15.627  11.742   0.174  0.0103 -0.2419  0.0089
30133W        W45942   6.141   0.526  14.818 -0.3581 -0.0500 -0.0526
30134W        W45943  13.685  14.505   3.904 -0.0408  0.0464 -0.0067
30135W        W45944   8.074  12.252   5.105 -0.0188  0.0045  0.2431
30136W        W45945  15.483  13.946  13.150  0.1176 -0.2504 -0.0370
30137W        W45946   4.279   4.389  12.605  0.0727  0.1914 -0.0012
30138W        W45947   7.777   8.177  11.904 -0.0655 -0.1076 -0.0655
30139W        W45948  16.428   8.668   0.775  0.0469  0.2112 -0.0485
30140W        W45949  16.761  14.576  11.819  0.0055 -0.1398 -0.2713
30141W        W45950  10.549  11.736   3.337 -0.0537  0.0768  0.1366
30142W        W45951  16.932   2.701  12.695 -0.0087  0.1014  0.3095
30143W        W45952  14.151  18.911  10.727  0.0415  0.1225 -0.1120
30144W        W45953   5.021   9.139   9.570  0.2789 -0.0135  0.0753
30145W        W45954  14.895  18.211   2.869 -0.1326 -0.1480  0.2563
30146W        W45955  11.098  17.386   0.892 -0.0188  0.1299  0.2896
30147W        W45956  17.566  14.260   4.727  0.2859 -0.0588  0.0059
30148W        W45957  11.616   5.241  11.571 -0.2052 -0.0442 -0.0001
30149W        W45958  13.037  12.703   9.332  0.0006 -0.1616  0.6442
30150W        W45959  14.857  16.760   4.200 -0.0841  0.0052  0.1900
30151W        W45960  12.012  14.841  10.041 -0.1161  0.1415  0.1214
30152W        W45961  12.960  10.268  13.019  0.2118  0.1158 -0.4212
30153W        W45962  14.205   6.352   3.756 -0.0162 -0.0076 -0.0109
30154W        W45963   4.710   5.054   0.330 -0.1404 -0.1039 -0.2823
30155W        W45964  17.305   4.446  13.118 -0.1028 -0.0686  0.0123
30156W        W45965  11.701  14.074   0.889 -0.0987 -0.1258 -0.0709
30157W        W45966   0.196   7.395   1.350  0.0878 -0.1557  0.4369
30158W        W45967  12.791   3.535   0.821  0.1660 -0.0618 -0.1173
30159W        W45968  11.975   4.773   2.112 -0.0592  0.0778 -0.2497
30160W        W45969   4.632   0.889  15.189 -0.0586  0.0788  0.0940
30161W        W45970  17.222  15.798  11.951 -0.3046 -0.1778  0.2324
30162W        W45971  17.436   8.300   1.942 -0.2621  0.0018  0.2848
30163W        W45972   4.652  10.598   1.833  0.0400  0.5394 -0.1031
30164W        W45973  10.284  17.323  12.120 -0.3055  0.5651 -0.2090
30165W        W45974  11.207  12.634  12.219 -0.1055 -0.0536  0.3146
30166W        W45975  13.834   6.294   1.212 -0.1383  0.0442 -0.2010
30167W        W45976  13.645   0.651   2.460  0.0326  0.3444  0.1988
30168W        W45977  10.807  11.794   9.881  0.1612 -0.2870 -0.0593
30169W        W45978   9.193  16.960  11.123 -0.1445  0.3368  0.3629
30170W        W45979   8.294   1.403   2.300  0.2140 -0.2856 -0.3790
30171W        W45980  12.752   6.725   4.282  0.0389 -0.4326  0.2242
30172W        W45981   8.825   9.027   4.700  0.3962  0.0912  0.1443
30173W        W45982  18.827   4.365   2.761 -0.0979 -0.1139 -0.0800
30174W        W45983  12.082   9.999  11.771 -0.0974 -0.2451  0.0219
30175W        W45984   8.004  14.264   9.450 -0.0011  0.2899 -0.0224
30176W        W45985   9.444   8.738   2.281  0.1731  0.0257  0.0215
30177W        W45986  14.021  14.195  12.192 -0.0375  0.1485  0.2031
30178W        W45987   7.041   3.117   1.658 -0.2152  0.0980 -0.0787
30179W        W45988   2.562  16.114  13.791 -0.1150  0.2156 -0.0553
30180W        W45989   3.973   2.540  12.993 -0.0739  0.2156  0.0919
30181W        W45990  16.323  16.142   1.202  0.1366  0.0035 -0.2054
30182W        W45991   8.236   6.490   3.342 -0.1472 -0.0421  0.0355
30183W        W45992   6.003   9.935   4.690 -0.2929 -0.2308  0.2059
30184W        W45993   7.119   3.542   1.339 -0.1458  0.1386  0.2570
30185W        W45994  16.061  12.249   4.215 -0.0662  0.0248 -0.0738
30186W        W45995   3.297   6.183   0.648 -0.1639  0.0130 -0.0224
30187W        W45996   6.644  16.234   2.558  0.2284 -0.0609 -0.2309
30188W        W45997   2.897   9.119  14.112  0.2293 -0.1338  0.3540
30189W        W45998   0.874   1.994  12.208  0.1404 -0.0250  0.0660
30190W        W45999  17.650   5.713  14.138 -0.1683 -0.0786 -0.3367
30191W        W46000   4.685   0.477   1.817  0.2223  0.0786 -0.2133
30192W        W46001   4.056   2.962   0.931  0.2875 -0.0732 -0.0458
30193W        W46002   5.272  11.757   0.374  0.4346  0.1988 -0.1207
30194W        W46003   6.946  10.821  11.548  0.3288  0.4964 -0.1446
30195W        W46004   5.249   3.309  13.728  0.0678  0.3499 -0.5907
30196W        W46005  11.969   9.898  13.021  0.1481 -0.2785  0.0335
30197W        W46006   5.259   1.358  10.521  0.3382 -0.1225  0.3168
30198W        W46007   3.402   5.668  12.936 -0.2025  0.3273 -0.1380
30199W        W46008  11.929   9.081  10.115 -0.1769 -0.0194 -0.0337
30200W        W46009   4.158   6.049   3.545 -0.0386 -0.1430  0.0018
30201W        W46010  10.647  17.440   5.605  0.0446  0.1479  0.2952
30202W        W46011   2.213   4.091  13.319  0.0401 -0.0969  0.1116
30203W        W46012   0.121   8.569  14.903  0.0307 -0.3933 -0.1326
30204W        W46013  11.795  12.911   1.241 -0.0804 -0.0587 -0.0911
30205W        W46014   0.241  10.459   4.311 -0.0081 -0.0003 -0.1362
30206W        W46015   1.074  17.456   1.922 -0.0069 -0.1274 -0.0111
30207W        W46016   0.858  18.003  11.449 -0.0227  0.1144  0.1411
30208W        W46017   8.835  13.607   3.616  0.6247  0.2226  0.0230
30209W        W46018   1.569   3.607   4.421  0.2280 -0.0476  0.0691
30210W        W46019   3.985   1.069  11.146 -0.1421  0.2088 -0.0663
30211W        W46020  14.742   7.224  14.936 -0.1319  0.1065 -0.0174
30212W        W46021  17.614  15.563  10.837  0.1862 -0.1614 -0.2435
30213W        W46022   8.498   5.530   4.678 -0.0293 -0.2204 -0.0237
30214W        W46023   3.854   4.103   3.595  0.0413  0.2986  0.0705
30215W        W46024  10.396  15.552  13.102  0.3529  0.3263 -0.0905
30216W        W46025   4.816  13.655  10.008 -0.2699  0.0009 -0.1004
30217W        W46026  16.144  11.733   2.981  0.1542  0.1802 -0.1385
30218W        W46027   1.738   5.356   0.915 -0.3332  0.0491  0.2301
30219W        W46028  15.731   2.568   4.619  0.2534  0.0975  0.2662
30220W        W46029  16.533   8.688  12.960 -0.6353  0.1426 -0.1433
30221W        W46030   3.346   0.219   9.450 -0.2627  0.1408 -0.2645
30222W        W46031  15.420   3.005   0.021 -0.2206  0.0109 -0.1928
30223W        W46032  16.787   5.306   1.196  0.1407 -0.1408 -0.1270
30224W        W46033   0.194  15.627  12.774 -0.2725  0.0282 -0.1948
30225W        W46034   1.616   4.896   0.006 -0.1295  0.3252 -0.2751
30226W        W46035  10.641  14.828  12.175  0.1754 -0.1870 -0.0033
30227W        W46036  12.237   1.217   2.450 -0.1770 -0.1475  0.0020
30228W        W46037  11.513   7.041   2.993  0.2203 -0.3873  0.3412
30229W        W46038   4.501  15.412   1.792  0.0011 -0.0125  0.2997
30230W        W46039   8.355  18.359   3.996 -0.1172 -0.1598  0.4880
30231W        W46040  12.516   4.202   2.115 -0.0999 -0.0804  0.1104
30232W        W46041   8.093  16.837  11.715 -0.3324  0.2576 -0.0120
30233W        W46042   6.655   3.425   2.847  0.3499  0.1412 -0.3049
30234W        W46043   1.116  11.172  11.330  0.1847 -0.0701  0.2088
30235W        W46044   9.523  16.773   1.856 -0.2836  0.1317  0.1697
30236W        W46045  10.835   6.091   0.711 -0.0013 -0.1187  0.1400
30237W        W46046   2.885   3.193  14.120  0.4926 -0.1349 -0.1779
30238W        W46047  12.059   3.868  13.433  0.0072 -0.0870 -0.1938
30239W        W46048  15.077   5.780  10.700  0.2476 -0.2471  0.0679
30240W        W46049   4.994   8.876  11.103 -0.0980 -0.1189 -0.1277
30241W        W46050   2.199  17.699  10.747  0.1333 -0.2194 -0.0666
30242W        W46051  12.153  17.821   3.839 -0.2108 -0.2999 -0.0982
30243W        W46052   7.614   2.217   2.349 -0.0708 -0.1953  0.0629
30244W        W46053   3.880   5.463  10.610  0.3507  0.1297  0.0079
30245W        W46054  15.459   9.285   4.565 -0.0312  0.3789 -0.0470
30246W        W46055   7.775   7.794  14.579 -0.0361  0.0036 -0.0318
30247W        W46056  10.594   7.770  13.953 -0.1183  0.0015  0.3483
30248W        W46057   1.627   6.929  10.906 -0.1440  0.2202 -0.0452
30249W        W46058   7.148  10.188   3.830  0.2316 -0.1956  0.0098
30250W        W46059   1.922   1.170  10.528 -0.0083  0.0364 -0.0283
30251W        W46060  13.423   3.063  13.016  0.0502 -0.0653  0.3090
30252W        W46061  14.446   7.763  12.609 -0.0753 -0.2697 -0.2226
30253W        W46062  12.407   3.456  11.420 -0.2010 -0.1539 -0.4103
30254W        W46063  16.883   4.502   0.618  0.1009 -0.0061  0.1762
30255W        W46064   6.400   2.404   1.065 -0.2021 -0.3605  0.0743
30256W        W46065  10.896   5.402  13.421 -0.0889 -0.0235  0.1461
30257W        W46066   4.713   7.438  14.926  0.0283  0.1084  0.1126
30258W        W46067   3.157  17.990  10.686 -0.0012 -0.2087 -0.1224
30259W        W46068  10.221  14.963  11.899  0.3862 -0.1868 -0.2635
30260W        W46069   0.234  15.784  12.317 -0.2941  0.0753  0.1397
30261W        W46070  13.426   8.500   2.806  0.3225  0.0735  0.2042
30262W        W46071   5.438   3.128   3.916  0.4801  0.1645  0.0223
30263W        W46072  10.453  13.862  14.581  0.4943  0.0998 -0.0557
30264W        W46073   5.529   6.914  13.936 -0.1082 -0.1604 -0.0981
30265W        W46074  18.805   2.631   2.439 -0.0690  0.3881  0.1295
30266W        W46075   9.227  13.621  10.729 -0.0609 -0.0038 -0.1953
30267W        W46076   6.847  18.701  12.854  0.4093 -0.1489  0.2390
30268W        W46077  12.017  18.392  12.799  0.0389 -0.0292  0.2126
30269W        W46078  16.805  14.057   0.192  0.0690  0.0166 -0.2032
30270W        W46079   0.085   0.376  10.652 -0.2659 -0.0177  0.2532
30271W        W46080   3.122  14.824  11.079  0.0578  0.0088 -0.1626
30272W        W46081  17.633   5.991  14.662  0.3324  0.0617  0.2204
30273W        W46082  11.958   4.073  13.869 -0.3862  0.0853 -0.2297
30274W        W46083  16.545   2.104  11.497  0.3307 -0.1286  0.0354
30275W        W46084   3.354  17.242   9.635 -0.0620  0.0440  0.0584
30276W        W46085  17.346   8.212  12.714 -0.1563 -0.3330 -0.0637
30277W        W46086  14.024   8.070  13.351 -0.0586  0.1747  0.3094
30278W        W46087  17.834  12.199  15.134  0.2284 -0.1976 -0.3720
30279W        W46088  10.036   5.528  12.343 -0.1006 -0.3650  0.1188
30280W        W46089  11.974  16.793   2.923 -0.1775 -0.2123  0.3327
30281W        W46090   1.926   8.611  11.414 -0.0598  0.1195  0.0600
30282W        W46091  14.634  18.200   9.709 -0.3876  0.2030  0.0052
30283W        W46092  10.317   4.021  13.473 -0.2011 -0.3805  0.2154
30284W        W46093   5.156   8.256  11.737 -0.0010  0.0836  0.1766
30285W        W46094   4.024  18.526   2.284 -0.1984  0.0034 -0.1691
30286W        W46095  10.996   2.677   0.981 -0.0256  0.1214 -0.2530
30287W        W46096  15.712   3.706   4.582 -0.1130 -0.2028  0.1233
30288W        W46097   1.028   3.628  11.263 -0.0295  0.1330 -0.0602
30289W        W46098  18.868   4.384   0.671  0.2709  0.0304  0.3538
30290W        W46099  13.280   5.880  12.407 -0.3339 -0.1186 -0.0364
30291W        W46100  18.801   6.973  12.927  0.2113  0.0110  0.1585
30292W        W46101  11.043   0.211  14.382  0.0783  0.1340 -0.1035
30293W        W46102  12.131   9.943  13.886 -0.0537  0.1465 -0.2825
30294W        W46103  13.909   9.183  13.982  0.0646  0.2574  0.2026
30295W        W46104   3.428  14.560  10.798  0.4631 -0.4344  0.5082
30296W        W46105   3.978  17.626  13.681  0.1136  0.0418  0.1293
30297W        W46106   9.064  18.333  10.935 -0.2746  0.1303  0.1817
30298W        W46107  10.201  16.158  13.667  0.1504 -0.1276  0.1024
30299W        W46108   7.347   8.393  12.917 -0.0782  0.2657  0.1226
30300W        W46109   6.956  13.017   1.490  0.2155 -0.0727 -0.1016
30301W        W46110  12.210   6.372  11.632 -0.0433  0.2401  0.1714
30302W        W46111  15.146  10.834   0.296 -0.0685 -0.0892  0.0262
30303W        W46112  16.170  13.049   2.540 -0.1407  0.1352  0.2894
30304W        W46113   2.310   2.221  12.612 -0.2851  0.0688 -0.2155
30305W        W46114  15.962   5.993  12.202 -0.3557 -0.1189  0.0368
30306W        W46115   5.159  12.021  10.583  0.0159  0.2114 -0.0862
30307W        W46116   1.421   8.358   0.679 -0.2077  0.1915 -0.0397
30308W        W46117   2.954  12.927   2.795  0.2006  0.1032 -0.1977
30309W        W46118   2.207   3.966  12.143  0.1834 -0.0732 -0.2863
30310W        W46119   0.886   9.966  12.493 -0.2425  0.2096 -0.2506
30311W        W46120   3.635  11.053   4.616 -0.2884  0.0559 -0.3256
30312W        W46121  18.459  17.814   0.878  0.0620  0.0183  0.3815
30313W        W46122   2.406   2.192  13.106 -0.0926  0.0798 -0.0780
30314W        W46123  13.867  13.194   0.822 -0.2500 -0.0998 -0.3404
30315W        W46124  13.634   8.063   0.679 -0.1396 -0.1257 -0.0551
30316W        W46125   5.075   3.186   0.113 -0.2619 -0.1822 -0.2592
30317W        W46126  13.823   4.930   4.002  0.1968 -0.0041  0.1595
30318W        W46127   8.214  14.881  10.520 -0.0892 -0.0738  0.0819
30319W        W46128   1.210  11.864  11.411  0.1406 -0.1295  0.0994
30320W        W46129   6.112   9.748   1.160 -0.1043 -0.3141  0.0043
30321W        W46130   3.077   6.064  12.753 -0.0375 -0.2198 -0.0829
30322W        W46131   2.559   4.757  12.595 -0.2047 -0.1696  0.1168
30323W        W46132   6.202   2.364  12.849  0.2932 -0.1377  0.1066
30324W        W46133  12.794   5.125  11.938  0.0102  0.0781  0.1384
30325W        W46134   1.064   2.688  12.551  0.2626 -0.5209 -0.0228
30326W        W46135   9.309   2.595   2.590  0.3498 -0.0686  0.0418
30327W        W46136   1.325  15.187   0.304  0.0400 -0.2237 -0.4249
30328W        W46137   5.685   1.215  10.773  0.1496  0.0915  0.0222
30329W        W46138   7.319   0.926   3.477 -0.0995 -0.1348 -0.1440
30330W        W46139  12.805   5.956   0.424  0.1858 -0.1252  0.1386
30331W        W46140  12.493   6.404   4.917 -0.4428  0.1450  0.4375
30332W        W46141   5.394  18.721  12.314  0.0058  0.0322  0.1400
30333W        W46142   3.837  12.587   2.601  0.0773  0.1210  0.1721
30334W        W46143  18.469  17.161  10.595  0.3337 -0.3394 -0.1214
30335W        W46144  12.046  17.733  15.015 -0.1478  0.0861 -0.2275
30336W        W46145   4.950  12.464   4.185  0.1877 -0.2067 -0.0017
30337W        W46146  12.621   9.833  13.285  0.0940 -0.1505  0.0000
30338W        W46147   2.193   4.257   4.557 -0.0671  0.0760  0.1089
30339W        W46148  10.490   9.187  14.431  0.0824 -0.3122 -0.0931
30340W        W46149   7.765  17.357   3.132 -0.0740 -0.2439 -0.3719
30341W        W46150   6.624   7.702  12.566 -0.1807 -0.1035  0.2118
30342W        W46151  10.177   5.775  13.314  0.1262  0.5009  0.0761
30343W        W46152   9.436  13.089   4.842  0.0634  0.1863  0.0364
30344W        W46153  15.972  15.106   1.927 -0.1354 -0.2820  0.1461
30345W        W46154  18.731   6.603   4.002  0.0103  0.6179 -0.0955
30346W        W46155   6.433   2.327  11.092 -0.4619 -0.1972 -0.2931
30347W        W46156   6.177  18.726   3.263 -0.0764  0.3379  0.2085
30348W        W46157   4.878   2.707  11.471  0.2143 -0.0252 -0.1718
30349W        W46158   8.443  16.179   0.020  0.0587  0.2116 -0.0857
30350W        W46159   3.945   7.044   0.073  0.0225 -0.0102  0.1197
30351W        W46160   3.748  10.074  12.643 -0.3542  0.0382 -0.3177
30352W        W46161   2.943   3.794   5.121  0.4207  0.2022  0.4441
30353W        W46162   7.709   5.654   0.269 -0.0884  0.2888  0.0218
30354W        W46163  12.423  18.829  13.742  0.0664 -0.0848  0.1108
30355W        W46164  14.107  12.900   3.249  0.2979  0.0555 -0.1298
30356W        W46165  18.522   3.540   0.760  0.3092  0.1179 -0.0312
30357W        W46166   0.404  10.117   2.963  0.1182 -0.0866 -0.0225
30358W        W46167  14.924  12.479  13.880  0.0999  0.1448 -0.1785
30359W        W46168  15.517   8.829   0.563  0.1299  0.1872 -0.1200
30360W        W46169   4.038  16.614   0.923  0.2050 -0.0929 -0.0128
30361W        W46170   3.618   7.643  14.047  0.4493 -0.4316  0.0066
30362W        W46171  14.559  15.967   5.298 -0.1584  0.1187 -0.1149
30363W        W46172   4.438   6.029  15.263 -0.1297 -0.1224 -0.1960
30364W        W46173   7.550   5.191   4.081  0.2491 -0.1102  0.1010
30365W        W46174  11.420   0.055   4.313 -0.0680 -0.1883 -0.0978
30366W        W46175   9.517  11.494   1.232 -0.0672 -0.1078 -0.0467
30367W        W46176   9.000  13.245  11.585 -0.3339  0.0290  0.3968
30368W        W46177   9.432  18.089  13.426  0.0480  0.0177  0.2236
30369W        W46178  10.540  16.978   5.653 -0.4098 -0.2193  0.1002
30370W        W46179   8.189  11.457  11.918  0.1970  0.0616 -0.1601
30371W        W46180   3.151  13.559  13.799  0.0326  0.3118  0.1261
30372W        W46181   6.937  13.695  10.354 -0.2694 -0.3734 -0.0710
30373W        W46182  16.042  16.473   4.652  0.2149 -0.0482  0.0289
30374W        W46183  14.191  11.129   3.590 -0.0681  0.1947 -0.2208
30375W        W46184   0.984  12.112  10.413 -0.0493 -0.1193 -0.3493
30376W        W46185  15.063   1.646  11.365  0.1130 -0.1255  0.1873
30377W        W46186   4.666  16.019  12.359  0.1742 -0.1470  0.3564
30378W        W46187  14.813   7.504  14.500  0.1222 -0.1450 -0.0601
30379W        W46188   6.696   1.248  13.156  0.4465  0.3026  0.0149
30380W        W46189  13.561  14.651   4.614  0.0287 -0.4071  0.1914
30381W        W46190  13.193  10.345  14.081 -0.1647  0.2767 -0.0431
30382W        W46191  11.460   5.298  12.095 -0.1503 -0.0970  0.0134
30383W        W46192   4.600  15.975  11.316  0.2017 -0.1036 -0.1965
30384W        W46193   9.058   7.041  13.566 -0.0854 -0.0577 -0.3368
30385W        W46194  17.643  12.832  12.957  0.0949  0.0720  0.0447
30386W        W46195  10.662   3.545  11.311 -0.2114  0.0598  0.2858
30387W        W46196  16.340   9.149  12.053  0.3028 -0.2370  0.0177
30388W        W46197   7.553   7.104  11.624  0.1553  0.2206  0.2134
30389W        W46198  10.573   3.267  13.802 -0.4150  0.0939 -0.3700
30390W        W46199   6.924  18.346   4.633  0.0572 -0.0352 -0.0226
30391W        W46200   9.512  11.873   1.606 -0.1857  0.1983 -0.0158
30392W        W46201   0.774   8.309   1.233 -0.2154  0.0811  0.3176
30393W        W46202  18.169  18.966   4.158 -0.0628  0.0472  0.3858
30394W        W46203  16.089   0.709   3.847 -0.0363 -0.2144 -0.0438
30395W        W46204  18.972  11.950   3.696  0.0102 -0.0382 -0.1469
30396W        W46205   5.165  11.580  10.297 -0.0039  0.0208 -0.1799
30397W        W46206   1.689  15.917  11.350 -0.0981  0.1735  0.0556
30398W        W46207   8.293   3.814  13.175  0.1165  0.3544  0.0222
30399W        W46208  10.601  13.385   3.912  0.2166 -0.0743  0.2790
30400W        W46209   1.782  18.766   5.156  0.3329 -0.2983 -0.2222
30401W        W46210   3.775   3.434   2.646 -0.0258  0.1990 -0.1380
30402W        W46211   0.974   3.221  12.634  0.0305  0.3005  0.1539
30403W        W46212   6.971   7.010  12.506  0.2182  0.1308 -0.0927
30404W        W46213  13.182  18.580   3.711  0.0448 -0.2585  0.1226
30405W        W46214  18.087   9.873  11.023 -0.3248 -0.0661  0.0373
30406W        W46215   2.798   5.453   0.286  0.1715  0.3446  0.0341
30407W        W46216   0.135   0.257  12.520  0.0027 -0.0769 -0.3268
30408W        W46217  13.034   8.032   5.382  0.0764 -0.1211 -0.0067
30409W        W46218   0.083   3.919  13.704 -0.3952 -0.0715 -0.1867
30410W        W46219   6.350  16.581   2.636  0.2558 -0.1433  0.3022
30411W        W46220  10.923   9.975   1.359  0.1339  0.0915 -0.2675
30412W        W46221  11.845   1.710   4.391 -0.1809  0.0600  0.0319
30413W        W46222  15.021  17.354   5.035  0.0901  0.3242 -0.0773
30414W        W46223  18.888  18.307   0.354  0.1121 -0.1026  0.1916
30415W        W46224   5.909   5.264  13.064 -0.1846 -0.3709  0.0570
30416W        W46225   0.254   3.167   1.139 -0.1300 -0.0728  0.2109
30417W        W46226   8.985  17.796  13.437  0.3363 -0.0266 -0.0854
30418W        W46227   9.457  16.717   0.279 -0.3345  0.1242  0.1513
30419W        W46228  10.927  14.650  14.860 -0.0796 -0.0639 -0.0084
30420W        W46229   7.784   4.753   1.253 -0.2490  0.1915  0.2067
30421W        W46230   9.760   7.786  14.091 -0.0465  0.0653  0.1182
30422W        W46231   5.207  18.557  14.548  0.0664  0.1206  0.2680
30423W        W46232  13.686  17.681   4.855  0.2200  0.1240  0.4513
30424W        W46233   3.141   6.635   4.824  0.0054 -0.0849  0.1230
30425W        W46234   0.504   1.136  14.475 -0.0236  0.1119 -0.0318
30426W        W46235   6.471   9.319   4.679 -0.1390  0.1783  0.1006
30427W        W46236  16.588  17.883   1.998  0.1642 -0.2768 -0.2944
30428W        W46237   7.862   6.954  10.184  0.0435  0.2582 -0.1056
30429W        W46238   7.558   7.775  12.115 -0.0810 -0.0804 -0.2465
30430W        W46239  13.227  18.263  14.621  0.1667  0.2364 -0.0125
30431W        W46240   3.951   3.293   0.572 -0.0047  0.1086  0.2011
30432W        W46241  13.958   0.471   0.160  0.0502  0.4255 -0.2258
30433W        W46242  13.150  12.188   0.058 -0.0052  0.0410 -0.3317
30434W        W46243  18.355   0.354  15.284 -0.3859 -0.1757 -0.1582
30435W        W46244  16.519  15.729   3.964 -0.0758 -0.1590  0.1969
30436W        W46245  13.817   3.404  11.718 -0.1650 -0.1255 -0.4148
30437W        W46246   0.371   8.236   0.634 -0.3280 -0.1998  0.2932
30438W        W46247   5.599   2.894   1.771 -0.4562 -0.0797 -0.1551
30439W        W46248  18.395   9.749  10.627  0.2245 -0.0376 -0.1762
30440W        W46249  15.857   9.879   2.492  0.3761 -0.0765  0.0835
30441W        W46250   6.907  14.277  12.058 -0.0822 -0.1728 -0.2655
30442W        W46251   7.867  12.106  14.522 -0.1627  0.5100  0.1399
30443W        W46252   3.229   9.587  11.281 -0.0210  0.0965  0.0142
30444W        W46253  14.320   7.199   1.480 -0.0289  0.0152 -0.0638
30445W        W46254   3.424   3.973  14.066 -0.0427 -0.4178 -0.0836
30446W        W46255  17.255   5.110   4.204  0.2235 -0.0912  0.3451
30447W        W46256   9.951   6.699   2.101  0.2351 -0.2189  0.2104
30448W        W46257  14.093   5.329  12.725 -0.1609 -0.0681  0.0154
30449W        W46258   1.000   5.938   0.884  0.1670 -0.0217 -0.1595
30450W        W46259  10.714   2.231  11.626  0.2324 -0.5753 -0.2129
30451W        W46260  12.655   3.381   1.366 -0.1054  0.0443 -0.0197
30452W        W46261  12.384  13.623  14.579 -0.3000 -0.2482 -0.0891
30453W        W46262   1.778   8.162   0.359  0.1770  0.0074  0.1548
30454W        W46263  14.851  14.199   5.174 -0.1896 -0.0389  0.1397
30455W        W46264   9.455   1.876  11.295 -0.0262 -0.0367 -0.0612
30456W        W46265  18.667   8.999   5.037  0.2354 -0.2654  0.1129
30457W        W46266   8.353   2.781   0.096  0.4481 -0.2389 -0.0916
30458W        W46267  16.713  18.095   0.182  0.1471  0.0428 -0.1716
30459W        W46268   9.868   8.450  12.538  0.0863 -0.1745  0.2314
30460W        W46269  17.326  14.920  11.647 -0.0992 -0.0117  0.0311
30461W        W46270   5.727   1.684   5.187 -0.0101 -0.0699  0.4263
30462W        W46271   4.344  15.606   9.760 -0.2441  0.3046 -0.1806
30463W        W46272   9.968  12.920  14.558  0.0297 -0.4029  0.2010
30464W        W46273   7.543  16.533   2.111  0.0450  0.1973 -0.0015
30465W        W46274  14.411  11.093   3.018 -0.0049 -0.0170  0.2059
30466W        W46275   1.798  14.460   4.232 -0.1766 -0.1122 -0.2353
30467W        W46276  19.012   2.980   1.630  0.0190  0.3483  0.0163
30468W        W46277   1.212   3.646   2.943  0.1398  0.3167  0.1719
30469W        W46278   1.357   3.766  14.448  0.4302 -0.1345  0.1513
30470W        W46279  16.426  16.537   3.012 -0.0048 -0.0658 -0.1393
30471W        W46280   7.972  11.790  11.533 -0.0031 -0.2116  0.0832
30472W        W46281  14.779   9.955   2.477  0.0498  0.3245 -0.0450
30473W        W46282  16.288  17.783   2.756  0.0507 -0.1255  0.0855
30474W        W46283   6.845  14.817   5.166 -0.0433  0.0812 -0.0035
30475W        W46284   2.712   8.844   3.623 -0.0428 -0.0390  0.2798
30476W        W46285   4.571  18.444  13.291 -0.1256  0.1137  0.1028
30477W        W46286   0.247  13.484  12.298 -0.1649  0.2957 -0.1201
30478W        W46287  17.576   0.392   1.297 -0.0144 -0.3511  0.1409
30479W        W46288   5.066   9.471  10.935  0.0755  0.3744 -0.2140
30480W        W46289  10.190   4.044   0.190 -0.0646  0.0783 -0.2946
30481W        W46290   4.395  14.840  12.424  0.1448  0.0147 -0.1494
30482W        W46291  11.734  18.771   2.334  0.1795 -0.4224  0.0780
30483W        W46292  12.286   5.019   1.215  0.0926 -0.5299 -0.2424
30484W        W46293   7.439  13.743  10.690  0.0935  0.0663 -0.0322
30485W        W46294   1.075  10.886   0.425  0.2795 -0.1652 -0.2736
30486W        W46295  17.877  16.803  13.003  0.1675 -0.0150  0.3204
30487W        W46296   0.661   2.055   0.097  0.1116  0.0083  0.1513
30488W        W46297  14.775   8.155   3.497  0.1021  0.3998  0.0003
30489W        W46298  12.923   4.018   5.147 -0.4589  0.2287  0.2568
30490W        W46299  15.287  15.427   3.856 -0.1225 -0.0158  0.1853
30491W        W46300   5.922  17.465  14.568 -0.3537  0.1313 -0.3804
30492W        W46301   0.608  16.094   1.739  0.0923  0.2443  0.0080
30493W        W46302  10.011  18.003   0.215  0.1732 -0.0663 -0.1326
30494W        W46303   1.515   6.982  11.807 -0.1742 -0.0374  0.0830
30495W        W46304   8.329   0.902   0.112 -0.2111 -0.2376  0.0262
30496W        W46305   0.732   1.135  13.514 -0.1196  0.0817 -0.0171
30497W        W46306   4.365  11.125  13.659  0.6049  0.0438  0.0079
30498W        W46307   8.876   3.986  13.346 -0.1299  0.0685 -0.3362
30499W        W46308  14.772  12.475   2.026  0.0249  0.0851 -0.2078
30500W        W46309   0.677  14.133   1.637  0.1349  0.0342  0.2154
30501W        W46310   8.692   9.462  10.003  0.1206  0.0884 -0.0754
30502W        W46311   0.773   1.966   3.432  0.2330  0.2357 -0.1880
30503W        W46312  17.312   3.235   0.720  0.0501  0.3164  0.0687
30504W        W46313  14.467  16.929  12.308 -0.2955 -0.1274  0.4596
30505W        W46314   1.791   3.423  13.670 -0.1430  0.0071 -0.0548
30506W        W46315   2.057   8.573   0.757 -0.1230  0.1476  0.0727
30507W        W46316   0.876   6.472  10.330 -0.0627  0.0293  0.2451
30508W        W46317   0.216   1.140  12.821  0.0575 -0.0593  0.2326
30509W        W46318   0.876  17.556   2.522  0.0785 -0.4986  0.0466
30510W        W46319   8.722   5.757   2.186  0.1467  0.0566 -0.0725
30511W        W46320  15.315  11.247   5.013 -0.0934  0.1286 -0.1117
30512W        W46321  18.073  17.984   5.474  0.0351  0.1091  0.1783
30513W        W46322  10.314  13.846  13.974  0.2560  0.0109 -0.1286
30514W        W46323   4.212  12.131  12.422 -0.2662 -0.2056  0.0726
30515W        W46324  16.802   0.032  10.004  0.0024  0.0947 -0.1613
30516W        W46325   2.289   5.462  10.781  0.1003  0.1826 -0.2230
30517W        W46326   9.532   9.440   4.549 -0.2386 -0.4876  0.2468
30518W        W46327  17.248   0.977  11.578 -0.1538  0.3836 -0.0576
30519W        W46328   0.547  11.084  14.384 -0.0117 -0.0543  0.2705
30520W        W46329   6.953  12.217  13.126 -0.1591 -0.1821  0.0393
30521W        W46330  11.146  17.697   4.993  0.1132  0.2561  0.5231
30522W        W46331  12.954  16.424  12.139  0.1937  0.1091  0.3939
30523W        W46332  11.476   9.546   3.094  0.0475  0.0818  0.2390
30524W        W46333  14.630  17.432  12.306  0.1216 -0.0949 -0.1811
30525W        W46334   7.250  14.914   3.809  0.2306  0.0146  0.0195
30526W        W46335  15.053   6.106  13.349 -0.2390  0.3078  0.2125
30527W        W46336  12.695   5.240  11.470  0.0299  0.1652 -0.0707
30528W        W46337   0.078  13.545   0.995  0.0187  0.1084  0.0864
30529W        W46338  18.785  10.522  11.254 -0.4677  0.1343  0.0269
30530W        W46339  16.252   3.080   3.657 -0.1439 -0.3099 -0.2010
30531W        W46340   5.168  11.935  11.961  0.2909  0.0560  0.0517
30532W        W46341   2.632  15.351   3.367 -0.2315  0.0433 -0.1761
30533W        W46342   8.897  14.180  14.024  0.1067  0.2873  0.2075
30534W        W46343  16.548  13.687   1.135 -0.1874 -0.1550 -0.1493
30535W        W46344  16.709  18.114  11.355  0.0427 -0.0652 -0.1172
30536W        W46345  13.246   2.113   4.643  0.1408  0.3094 -0.2482
30537W        W46346   8.027  12.704   3.546 -0.0263  0.1628 -0.0230
30538W        W46347  10.422  17.738  12.295 -0.2773 -0.1039  0.3636
30539W        W46348  10.779  13.375   5.706  0.1407  0.0857  0.0430
30540W        W46349  11.755   3.200   1.428 -0.0684  0.0983 -0.3083
30541W        W46350   8.505  16.016   1.880 -0.1392 -0.0569 -0.1069
30542W        W46351   3.524  13.965   3.925  0.4704  0.0678  0.1388
30543W        W46352   1.572  10.781  10.440  0.1941  0.0076  0.1269
30544W        W46353  10.713   6.564   2.041  0.2424  0.3386  0.0511
30545W        W46354  16.662  16.394   5.237  0.3851  0.0838 -0.2692
30546W        W46355   9.581   7.747  10.613  0.0733 -0.0913 -0.2823
30547W        W46356   4.348   3.999  10.524  0.0723 -0.1348  0.3330
30548W        W46357  14.859   5.891   1.189  0.1446 -0.1600 -0.2937
30549W        W46358   7.542   8.661  10.943  0.0396  0.0744 -0.0876
30550W        W46359   2.818   7.247   0.845  0.1901 -0.0333 -0.1455
30551W        W46360   8.124  12.422   2.269  0.4370  0.0009  0.0531
30552W        W46361   1.056   4.246  15.113 -0.0898  0.2501  0.0079
30553W        W46362   2.640  14.326   2.351  0.4322 -0.0578  0.2375
30554W        W46363  18.408   5.870  13.824 -0.0748 -0.2247 -0.2621
30555W        W46364   7.796  18.326   3.271 -0.1029 -0.0482 -0.2515
30556W        W46365   2.367  17.463   4.283  0.2567 -0.0042  0.0388
30557W        W46366  13.149   1.535   1.654 -0.0706 -0.2054  0.0718
30558W        W46367  15.703  10.610   1.716  0.0273 -0.1897 -0.2281
30559W        W46368  10.007  10.791   5.315  0.0435  0.0651 -0.1708
30560W        W46369  13.056   0.856   1.061 -0.0898 -0.0553 -0.2485
30561W        W46370   8.955  11.817  11.353 -0.3011 -0.0092  0.0577
30562W        W46371   2.934   4.054  15.068  0.1229 -0.0385 -0.0566
30563W        W46372   9.124  10.037   2.662  0.0144 -0.1454 -0.0281
30564W        W46373  10.263  15.000   2.568 -0.2228  0.0947  0.1578
30565W        W46374  18.987   9.404   5.193 -0.0075  0.0166  0.0814
30566W        W46375  10.899  15.988   4.779 -0.1379 -0.1443 -0.1623
30567W        W46376  11.979   1.732   1.996  0.0814  0.3694  0.1624
30568W        W46377   7.647  16.134   4.962 -0.0285 -0.0541  0.0925
30569W        W46378  14.465   7.523   4.689 -0.0401 -0.0783 -0.0811
30570W        W46379   4.135  10.009  13.102 -0.0946  0.0640 -0.0040
30571W        W46380   6.506  14.318  12.973 -0.1080  0.2413 -0.2852
30572W        W46381   7.643   8.495   4.592  0.0906 -0.1972 -0.1227
30573W        W46382  18.868   2.713   4.496 -0.0996  0.3264  0.1378
30574W        W46383  18.752  15.265  12.629  0.1730 -0.0619  0.2195
30575W        W46384   3.480   6.316  14.438  0.4285 -0.0797  0.0238
30576W        W46385  10.112  18.762  12.991 -0.1447 -0.0793  0.3935
30577W        W46386  14.772  11.555  14.208 -0.2617 -0.0798 -0.1209
30578W        W46387  13.614   5.820  14.817 -0.0420 -0.1586  0.1978
30579W        W46388  15.882  10.869   3.644  0.2893  0.1484 -0.1242
30580W        W46389   6.951  15.711   4.735 -0.0408  0.0444  0.0841
30581W        W46390  14.096   9.742   3.134 -0.1910  0.0044 -0.1744
30582W        W46391   8.945   3.105   0.304  0.1469 -0.1141 -0.1657
30583W        W46392  16.145  15.926   2.199 -0.0949  0.4539 -0.1203
30584W        W46393  14.832  12.590   4.827  0.0929 -0.0163 -0.0642
30585W        W46394   1.340  10.973  12.510  0.1897 -0.0203  0.5413
30586W        W46395  18.768   7.801   9.715  0.3778  0.4379 -0.0832
30587W        W46396   4.384   9.045   1.623 -0.0094 -0.3027 -0.0282
30588W        W46397  11.096  18.164   5.409  0.0137 -0.0933  0.1068
30589W        W46398  15.773  18.609   1.865 -0.0954 -0.3351 -0.0781
30590W        W46399   7.913   0.008   0.559 -0.1185 -0.0999  0.4186
30591W        W46400   4.361   5.765  12.634  0.1341  0.0809 -0.0207
30592W        W46401   1.788  17.985  14.674 -0.3292 -0.0483  0.0422
30593W        W46402   8.591   8.880  12.768 -0.2899  0.1336 -0.1020
30594W        W46403   7.273   5.470   2.605 -0.0765  0.1052  0.0610
30595W        W46404  12.406   0.171   1.430  0.1732 -0.0686  0.3464
30596W        W46405  15.668   7.812  12.747 -0.1751 -0.1102 -0.1760
30597W        W46406  17.278   7.727   1.841  0.1285 -0.1260 -0.1940
30598W        W46407   6.831  17.839  10.734  0.1433 -0.1833 -0.3881
30599W        W46408   6.495  13.979  14.494 -0.1408 -0.1342 -0.0579
30600W        W46409   0.175   1.864  15.095 -0.1003  0.2446 -0.1814
30601W        W46410   0.111  17.842   1.886 -0.0413  0.3219  0.0070
30602W        W46411  15.816   7.678  14.273  0.2182 -0.3902 -0.2421
30603W        W46412   6.183  16.740  10.906 -0.3449 -0.1998  0.1814
30604W        W46413   2.022   7.693   2.880  0.2808 -0.1434  0.2415
30605W        W46414   1.075   1.099   3.197 -0.0229 -0.2115  0.0228
30606W        W46415   4.482  10.837   4.601  0.0764 -0.0105 -0.2081
30607W        W46416   2.836   5.237   2.399 -0.0519 -0.1843  0.1818
30608W        W46417   5.246   5.204   4.962  0.0709  0.2484  0.2100
30609W        W46418   8.350  18.810  15.051 -0.2816  0.1083  0.0518
30610W        W46419  12.531  16.751   3.897  0.2198  0.1370 -0.4195
30611W        W46420   6.483  13.029   1.285  0.0861  0.0101  0.0464
30612W        W46421  11.079   6.060  13.726  0.0291  0.2817 -0.2200
30613W        W46422  11.213  14.684   3.107 -0.0790 -0.0057 -0.1387
30614W        W46423   4.486   3.543   1.394 -0.3607  0.0693 -0.0652
30615W        W46424  15.728  13.553  12.193 -0.3192  0.1340  0.0134
30616W        W46425   3.625  14.665  15.058 -0.1469 -0.1594  0.1323
30617W        W46426   4.575  12.501   3.803 -0.0792  0.0183 -0.2214
30618W        W46427  15.517   2.543   5.741 -0.1860  0.1693 -0.1975
30619W        W46428  10.636  13.647  14.950  0.1403  0.3554  0.1866
30620W        W46429  13.923  11.614   0.564 -0.2478  0.2559 -0.3931
30621W        W46430  14.016   0.321   3.815 -0.0612 -0.1954 -0.2623
30622W        W46431  12.781   9.785   0.434  0.1581  0.0938 -0.0150
30623W        W46432   1.978   7.265   3.156 -0.1512  0.2408  0.0530
30624W        W46433  17.023   9.424  11.385 -0.1848 -0.3469 -0.0649
30625W        W46434   4.753   5.987   0.481  0.0693  0.2571 -0.0226
30626W        W46435  15.709   5.905  11.184  0.3301 -0.1566 -0.2493
30627W        W46436   9.102   6.681   0.306  0.0553 -0.1021 -0.1401
30628W        W46437  16.953  13.726  13.768  0.2460 -0.2389  0.0708
30629W        W46438  15.272   9.050  12.383  0.2199  0.0160  0.3725
30630W        W46439   1.288   4.850   4.817  0.1674  0.1195  0.5486
30631W        W46440  12.004   4.450   3.933 -0.1223 -0.2185  0.2438
30632W        W46441   6.275   9.973   0.123 -0.2554  0.0059 -0.0924
30633W        W46442   1.037   7.676  15.192  0.1608 -0.0363  0.1134
30634W        W46443   8.628   0.626   1.657  0.0245 -0.0265 -0.0083
30635W        W46444   3.167  17.864  12.451 -0.0581 -0.1538 -0.3523
30636W        W46445  15.614  12.080   2.273 -0.1555 -0.3225  0.3635
30637W        W46446   0.314  12.648  11.115  0.0966 -0.2213 -0.2127
30638W        W46447  10.517   6.944   0.510 -0.0467  0.4137  0.2038
30639W        W46448   4.585  18.986   1.045 -0.0621 -0.0845 -0.0859
30640W        W46449  13.797  10.973  14.399 -0.2783 -0.2814  0.2903
30641W        W46450  10.600   7.394   0.118 -0.0858 -0.2475  0.0451
30642W        W46451  15.640  16.721  11.783 -0.1402 -0.2644 -0.0227
30643W        W46452   6.058  14.585  13.016 -0.2416  0.0695 -0.0477
30644W        W46453  14.789   4.323   4.540  0.1885 -0.0395 -0.0641
30645W        W46454  10.464   7.435  11.047 -0.0424 -0.0019  0.0670
30646W        W46455  13.028   2.626   1.622  0.0703  0.3016 -0.0145
30647W        W46456  17.411   3.674   1.736  0.1581  0.2415 -0.0337
30648W        W46457  14.291   8.236  11.682  0.0704 -0.1281  0.1301
30649W        W46458  11.871  10.899   0.573 -0.1456  0.1139  0.1373
30650W        W46459  16.509  14.371   1.725 -0.0476 -0.0787  0.0543
30651W        W46460  11.095  16.456   1.077 -0.2038  0.0453  0.0113
30652W        W46461   4.344  10.872   3.633  0.2157  0.0753 -0.2382
30653W        W46462  15.866  18.963  10.859  0.0512  0.0397 -0.0031
30654W        W46463   9.110   6.228   4.544  0.1320  0.1648  0.0650
30655W        W46464  13.943   2.273   2.566 -0.0788 -0.0545  0.1388
30656W        W46465  13.439  10.332   5.468  0.0342  0.0143  0.1900
30657W        W46466   2.715  18.168  13.364  0.0690  0.0824  0.0709
30658W        W46467  11.772   0.998   0.327 -0.1471  0.2902  0.0232
30659W        W46468  12.431   7.192  10.805  0.1926  0.1169  0.0100
30660W        W46469   7.200   1.904  12.766  0.0072 -0.1578 -0.1576
30661W        W46470  15.323  15.934  14.804 -0.0003  0.1537  0.2207
30662W        W46471  15.851   5.304   4.109 -0.0450  0.2726  0.1819
30663W        W46472   1.420  14.761   3.357  0.1511  0.1270 -0.0035
30664W        W46473   6.209  18.816  12.021 -0.1345 -0.0036 -0.0723
30665W        W46474   5.643   2.137   4.143 -0.0133 -0.1138 -0.2358
30666W        W46475   9.252   5.261   1.090  0.1234 -0.0500  0.1242
30667W        W46476  18.162  13.475   0.636  0.1314 -0.3451  0.1787
30668W        W46477  10.119  12.359  12.979  0.3332  0.1844  0.0408
30669W        W46478   1.845   0.969  13.276  0.1406  0.1663 -0.0509
30670W        W46479  15.877   1.169   5.989 -0.0031 -0.1754 -0.2093
30671W        W46480   2.530   4.670   4.551  0.1043  0.2192  0.1581
30672W        W46481  13.840  15.730  13.882  0.1803 -0.1727 -0.1406
30673W        W46482  18.414  11.820   5.037 -0.1788  0.2162 -0.0133
30674W        W46483  13.940  18.049   3.826  0.2005 -0.3086 -0.2147
30675W        W46484   1.655   8.914   3.271  0.0418  0.1379  0.1733
30676W        W46485   5.631   6.035  12.341  0.1781  0.1893 -0.1918
30677W        W46486  18.231  14.453  12.898  0.1408  0.1908 -0.0560
30678W        W46487   9.698   2.944   2.716  0.1210  0.0318  0.1033
30679W        W46488  17.409   5.829   1.539  0.2819 -0.1208 -0.1243
30680W        W46489  14.459  14.135  14.402 -0.6329 -0.0386 -0.1599
30681W        W46490  14.175  11.002   2.544 -0.2832  0.0179  0.0890
30682W        W46491   9.188  11.736  10.910 -0.0115 -0.0600  0.0600
30683W        W46492   4.763   6.580   4.635  0.0590  0.2657  0.0911
30684W        W46493   9.393   9.620   2.919 -0.0491 -0.0974 -0.2767
30685W        W46494   2.657  11.004   4.345  0.0861 -0.1915  0.0318
30686W        W46495  14.404  11.433   0.382  0.0471  0.2304 -0.2919
30687W        W46496  17.134  15.581  12.959  0.3812  0.1014  0.0447
30688W        W46497   8.650   2.747  11.994  0.1364  0.1010  0.1498
30689W        W46498  11.440   1.045  12.507 -0.0983 -0.2794  0.0394
30690W        W46499  13.706   3.463   4.240 -0.0240  0.2852  0.1304
30691W        W46500   7.384  18.408   2.592  0.0990 -0.1765 -0.2053
30692W        W46501   2.275   0.633  13.320  0.0531 -0.4080  0.5301
30693W        W46502  12.585  12.693  10.555 -0.1172  0.0739  0.1085
30694W        W46503  12.341   9.267   4.819 -0.1023  0.0817  0.3124
30695W        W46504   7.409   0.404  14.631 -0.2600  0.0907 -0.2407
30696W        W46505   9.778   8.529  14.784  0.1923  0.0161  0.2547
30697W        W46506  10.348  18.598  14.175  0.2147  0.3489 -0.0191
30698W        W46507  15.249  16.223   3.093  0.2928  0.1754 -0.0722
30699W        W46508   9.408   8.597  10.959 -0.1925 -0.0269 -0.0162
30700W        W46509  16.370  11.816   4.391 -0.2676 -0.1022  0.0772
30701W        W46510   2.555   3.982   1.442  0.0546  0.1456 -0.1528
30702W        W46511   4.879   7.366   3.331  0.1578 -0.0627 -0.3589
30703W        W46512   1.939   4.913  11.965  0.1124  0.1853  0.1283
30704W        W46513   6.543   3.081  10.064 -0.0279 -0.2006  0.1896
30705W        W46514   7.711   6.881   5.710  0.0737  0.4263 -0.0264
30706W        W46515  14.231   2.854  15.036 -0.0570  0.3351 -0.2514
30707W        W46516   5.862   0.296   1.332  0.1146  0.1398 -0.0711
30708W        W46517   0.234   9.875   3.673  0.1151  0.1750  0.1688
30709W        W46518   7.445   2.937  11.719  0.2296 -0.0578  0.0574
30710W        W46519  14.538  11.416  15.198  0.3188 -0.0808 -0.1106
30711W        W46520   4.778   0.454   2.577 -0.3451 -0.1840  0.4670
30712W        W46521   9.756   4.155   3.488  0.2756  0.0075 -0.1071
30713W        W46522   7.224   4.470   3.860 -0.1203  0.1818 -0.1153
30714W        W46523   2.960  10.681  11.206  0.0339 -0.0274  0.1100
30715W        W46524   6.217  13.073   4.836 -0.0773  0.1991  0.0374
30716W        W46525  10.779   9.789   9.978 -0.0974  0.0354  0.3918
30717W        W46526  11.064   8.120  11.365 -0.1932  0.3279 -0.1920
30718W        W46527  18.712  14.382  14.535  0.3780 -0.0905 -0.1560
30719W        W46528   3.810   7.641   3.099  0.0057  0.1553  0.0784
30720W        W46529   4.517   5.767  12.193 -0.1255  0.0363 -0.1011
30721W        W46530  12.818   0.961  13.030 -0.0345 -0.0892 -0.2246
30722W        W46531  17.668  18.031   1.268  0.3843 -0.1220 -0.0566
30723W        W46532  15.630   4.402   0.132  0.2046 -0.1427  0.0436
30724W        W46533  15.965  15.761   4.166 -0.3127 -0.0703 -0.0926
30725W        W46534   6.309   9.686   2.878  0.4196  0.2435 -0.1035
30726W        W46535  17.801   5.069   4.107  0.2302  0.1411  0.1454
30727W        W46536  18.723  15.342  11.267  0.1170  0.0506 -0.1275
30728W        W46537  10.741   5.978   5.519 -0.0434 -0.2839 -0.0141
30729W        W46538   8.860   0.485   0.794  0.2133  0.5235 -0.0116
30730W        W46539  16.365   2.762   2.274  0.1753  0.2204  0.1802
30731W        W46540  18.705  16.208   3.720 -0.1915 -0.0709 -0.0945
30732W        W46541  15.406   5.470  11.104 -0.1627  0.0291  0.3544
30733W        W46542   7.905  15.797  13.958  0.5528  0.3036 -0.0532
30734W        W46543  15.359   3.539  14.636 -0.0934  0.1751  0.1609
30735W        W46544   7.704   3.992  10.816 -0.0805  0.0065  0.1581
30736W        W46545  15.839   3.330  11.032 -0.2671  0.2447 -0.0980
30737W        W46546  15.039   4.270   4.022 -0.1016 -0.0360  0.0620
30738W        W46547  10.381   6.412  15.250 -0.0376 -0.0982 -0.3876
30739W        W46548  14.596  10.097  12.941  0.2275  0.0723  0.1962
30740W        W46549  15.809   4.041   0.783  0.0715 -0.0356  0.2506
30741W        W46550  15.926   0.615   2.791 -0.2939 -0.1274  0.0497
30742W        W46551   2.825   2.592  14.751 -0.0384  0.2222 -0.3032
30743W        W46552   2.476   4.853   2.840  0.1591  0.2051 -0.1495
30744W        W46553  14.450   7.155  11.428  0.1367  0.0448 -0.3399
30745W        W46554  12.492   6.154   2.310 -0.0635 -0.1555 -0.1029
30746W        W46555   3.243  17.910  11.986  0.1317 -0.0391 -0.2227
30747W        W46556  12.216  12.995   0.498  0.1229 -0.0449  0.2833
30748W        W46557   9.343  13.400  15.218  0.1027 -0.4364 -0.2095
30749W        W46558   7.612   0.184  12.409  0.4607 -0.1185  0.3485
30750W        W46559   9.212   3.678   1.883  0.1531  0.0918  0.2771
30751W        W46560   5.000   7.170   9.544  0.0979  0.2314  0.1130
30752W        W46561   1.646  13.379   1.122  0.2308 -0.3712  0.1182
30753W        W46562  18.041  13.849  12.143 -0.3130 -0.0072  0.5469
30754W        W46563  15.910   4.233  14.634 -0.1484 -0.0849 -0.1181
30755W        W46564  14.106  18.026  14.503 -0.0158  0.1639  0.2572
30756W        W46565   1.596   4.529   2.774 -0.0672 -0.0139  0.0381
30757W        W46566  15.579  12.004   5.581 -0.0955  0.1261 -0.1159
30758W        W46567  16.364   3.812  11.114  0.0262  0.0292  0.0291
30759W        W46568   7.698   9.490   4.279  0.3606 -0.1646 -0.0243
30760W        W46569   8.134   9.646   0.248  0.3431  0.2063 -0.3295
30761W        W46570   3.129   4.174   0.238  0.0005 -0.1108 -0.4107
30762W        W46571  10.960   3.578   0.134  0.0741 -0.0927  0.3800
30763W        W46572   8.316  18.988  10.074  0.1657 -0.4683 -0.0151
30764W        W46573   3.456   2.224  11.445  0.2670  0.0838  0.1632
30765W        W46574   0.135   4.877   4.996  0.0328 -0.0466 -0.2000
30766W        W46575   1.724   6.858  12.783 -0.0336  0.0156  0.0276
30767W        W46576   7.742   8.248   2.733 -0.1655 -0.0263 -0.1273
30768W        W46577   7.923  12.550  10.129 -0.0253  0.3459  0.3388
30769W        W46578  18.534   2.101   3.684 -0.4426  0.0179 -0.0342
30770W        W46579   0.980   9.780  14.526 -0.0819 -0.0834  0.3955
30771W        W46580   3.634   2.129  10.997  0.2531 -0.0693 -0.0076
30772W        W46581  12.470  19.019  13.180 -0.2212  0.1031 -0.0961
30773W        W46582  14.585  13.536   4.689 -0.0670  0.0946 -0.0397
30774W        W46583  18.007   5.662   5.210 -0.1462 -0.3375 -0.2735
30775W        W46584   8.956  11.379   0.454 -0.1540 -0.2162 -0.0081
30776W        W46585   8.432   1.116  14.922 -0.0722  0.1618 -0.0279
30777W        W46586   8.754   1.863   0.688 -0.1440  0.0412  0.1003
30778W        W46587   1.044  17.032   4.349  0.3539 -0.0644 -0.0195
30779W        W46588  15.864   1.045   1.939  0.4628  0.0119 -0.0368
30780W        W46589   4.475  17.921   9.952 -0.0042  0.0659 -0.1258
30781W        W46590   1.155   1.837  15.287 -0.1123 -0.4061 -0.2428
30782W        W46591   1.058  16.458   4.267  0.0604 -0.2742 -0.1246
30783W        W46592  12.876  15.739  15.011  0.0193  0.2926 -0.1609
30784W        W46593  18.833   0.989  11.059 -0.1270 -0.0493  0.2516
30785W        W46594  12.138   8.251   3.352  0.1454 -0.0447  0.0437
30786W        W46595  11.073   4.443  12.306 -0.3654 -0.0240  0.0219
30787W        W46596   7.940  11.096   9.288 -0.0981  0.2130  0.2002
30788W        W46597  17.720  14.107   1.177  0.2072  0.1223 -0.0083
30789W        W46598  11.041   5.108  14.289 -0.2510 -0.1102  0.1560
30790W        W46599   9.850   7.724   0.222  0.2687  0.1879  0.0498
30791W        W46600  14.542  15.834   4.375  0.0836  0.0403 -0.0766
30792W        W46601   7.512  17.528  11.321 -0.0495  0.0828 -0.0396
30793W        W46602   1.997   3.795   0.005 -0.0242 -0.2045 -0.0825
30794W        W46603  15.105  18.806   1.477  0.1421 -0.0324 -0.3117
30795W        W46604  16.713  13.561   2.646  0.1075 -0.0350  0.2084
30796W        W46605  11.639  10.863   4.266 -0.1165  0.4183  0.1452
30797W        W46606   0.985   6.292   1.729  0.3920  0.2068 -0.0588
30798W        W46607   7.332  18.796   4.682 -0.1461  0.0804  0.0872
30799W        W46608  14.710  17.049  14.658 -0.0862  0.1636  0.5356
30800W        W46609  10.447   4.764   0.740 -0.2665 -0.0570  0.0782
30801W        W46610   3.102  12.635   2.034  0.0998  0.1738 -0.0349
30802W        W46611   0.840  11.771   3.857 -0.0764  0.1228 -0.2741
30803W        W46612   9.646  13.547  13.451 -0.2451  0.2521 -0.1973
30804W        W46613   7.793   4.141   4.323 -0.2113  0.1140  0.2681
30805W        W46614   5.099   7.406  12.342  0.1262 -0.1577  0.1422
30806W        W46615  10.891   7.423   1.051  0.1640  0.1863 -0.2700
30807W        W46616   5.063  16.053   3.942  0.2243  0.2321  0.0944
30808W        W46617  16.279   8.115  12.105  0.0346 -0.1278  0.0866
30809W        W46618   5.582  12.029  14.314  0.1194  0.2715 -0.1657
30810W        W46619  17.157   3.010  14.908 -0.1606  0.0870 -0.3347
30811W        W46620   1.236  12.598  14.364 -0.1962 -0.0271 -0.1213
30812W        W46621   0.450  11.927   1.297 -0.0581 -0.1067  0.0641
30813W        W46622  12.337  10.418   3.849 -0.2543  0.2077 -0.0788
30814W        W46623   4.757   4.539  13.570 -0.2975  0.4109 -0.1257
30815W        W46624   9.033  17.028   4.019 -0.2853  0.0072 -0.1738
30816W        W46625   6.708   6.528   1.046  0.1594  0.1641 -0.5208
30817W        W46626  17.263  13.888   5.132  0.2622 -0.1580  0.1353
30818W        W46627   4.006  16.678  12.654 -0.0798  0.0846 -0.2209
30819W        W46628   5.909  15.809  15.274  0.1585 -0.3124 -0.1473
30820W        W46629   6.652  10.865   1.584  0.1398  0.1382  0.0499
30821W        W46630  15.930   4.789   0.220  0.1941 -0.1593 -0.0397
30822W        W46631  16.798   4.690  14.781 -0.0895 -0.2243 -0.0568
30823W        W46632  18.623   2.611  10.865 -0.5445  0.1763 -0.0456
30824W        W46633   9.952   8.058   5.068 -0.0008  0.0996 -0.1274
30825W        W46634   7.805  13.957   0.373 -0.0644  0.2401 -0.0442
30826W        W46635  15.094   5.054  13.287 -0.0892  0.2018 -0.0458
30827W        W46636   5.701  14.028   0.204 -0.1339  0.0531 -0.2669
30828W        W46637   5.202  10.918   3.498  0.1679  0.0824  0.2407
30829W        W46638   6.118  18.550  10.021 -0.0587  0.1029 -0.3337
30830W        W46639   6.626   3.562  10.287 -0.1233  0.2545  0.2599
30831W        W46640  13.598   1.740   4.719 -0.0985 -0.3044 -0.0331
30832W        W46641   9.500   9.661  11.788  0.2477  0.1929 -0.3536
30833W        W46642   8.475   4.539  11.626 -0.1587  0.0295 -0.1045
30834W        W46643   4.426   0.380  13.255  0.0197  0.1369 -0.4264
30835W        W46644   2.575   4.611  13.059 -0.0386  0.2633  0.2373
30836W        W46645   3.290   0.811   0.413 -0.4096 -0.0925  0.1576
30837W        W46646  14.441  15.318   0.175  0.0800 -0.4162 -0.0360
30838W        W46647  15.986  14.666   0.222  0.2780  0.1136  0.1092
30839W        W46648  15.575   3.137   2.997 -0.3515  0.2920  0.0464
30840W        W46649  15.058   9.448   2.031  0.1792  0.0086 -0.3077
30841W        W46650  12.379   8.427  11.945 -0.0338 -0.2207  0.0454
30842W        W46651   7.009  10.364   2.269  0.0717  0.1374  0.2248
30843W        W46652  18.770   4.470  13.064 -0.1181 -0.1186 -0.0280
30844W        W46653   5.607  15.524   4.397 -0.1173 -0.1036 -0.3746
30845W        W46654   2.582   7.651   2.757  0.3316  0.1255  0.0231
30846W        W46655   4.212  12.076   3.789 -0.2263  0.2134  0.2531
30847W        W46656  11.098  18.379   1.770  0.1598 -0.3321  0.3660
30848W        W46657  14.511   0.741  14.659 -0.3637 -0.2120  0.2007
30849W        W46658   5.374  15.596  14.551 -0.2949 -0.2397 -0.2398
30850W        W46659  18.910  17.719  13.533  0.1719  0.0632  0.0612
30851W        W46660   7.158   4.723   0.692 -0.3539  0.3196  0.1407
30852W        W46661  16.932   0.747  10.810  0.0019  0.0837 -0.2511
30853W        W46662   7.010  10.333  10.045  0.0365 -0.2119 -0.0714
30854W        W46663  17.149  16.519   1.900 -0.0194 -0.2369 -0.1226
30855W        W46664  18.331   4.767   5.588 -0.1470 -0.2308 -0.0823
30856W        W46665   5.822   2.983  13.545 -0.2908  0.0358 -0.2133
30857W        W46666   7.468  13.044   4.795  0.0782 -0.2820 -0.5337
30858W        W46667   2.663   6.808   4.702 -0.1704  0.2790 -0.0027
30859W        W46668   7.458  16.415   1.559  0.0307  0.1030 -0.0335
30860W        W46669  18.016   7.857  10.065 -0.1763 -0.0686 -0.0663
30861W        W46670   5.858  14.800  12.621 -0.1327  0.1121  0.1558
30862W        W46671   9.548   8.020   3.347 -0.2793 -0.0902 -0.4775
30863W        W46672   3.656  16.204   4.063 -0.1010 -0.0711  0.2388
30864W        W46673   9.726   1.796  12.055  0.0294  0.2879  0.2779
30865W        W46674  16.461  14.521  15.228 -0.2249 -0.4177  0.2881
30866W        W46675  14.147  16.497  12.646 -0.1273  0.1322  0.0645
30867W        W46676   5.870   2.317   0.843  0.0402  0.1533  0.0556
30868W        W46677   3.635   8.434  11.304  0.0307  0.0030 -0.1973
30869W        W46678   0.270   8.935  11.868  0.0157 -0.2132  0.3943
30870W        W46679  16.945   7.401   3.589  0.0157  0.0190 -0.0254
30871W        W46680  11.943  12.661   4.506  0.0833 -0.2104 -0.0210
30872W        W46681  13.773  14.246   5.213 -0.0563  0.4441  0.0652
30873W        W46682   5.666  10.345   4.496 -0.1963 -0.1419 -0.0141
30874W        W46683   9.148   0.652  11.737  0.1457  0.1300  0.1178
30875W        W46684   4.622  18.717   2.801  0.2415 -0.0476  0.2233
30876W        W46685   8.603   7.743   0.746  0.1450  0.1072 -0.0632
30877W        W46686   5.371  18.448   1.732 -0.1919  0.2480  0.1339
30878W        W46687  13.786  14.081  13.988 -0.0562 -0.1390 -0.0626
30879W        W46688   7.820   3.855   4.738  0.1495 -0.3962  0.1800
30880W        W46689  12.045  14.560   5.693  0.1641  0.2774 -0.1544
30881W        W46690   2.850   6.274   3.442  0.2611 -0.0019  0.0899
30882W        W46691  10.389  12.805  14.810 -0.1170 -0.2004 -0.2857
30883W        W46692   7.103  18.111   9.809  0.1858 -0.2256  0.1187
30884W        W46693   8.055   4.485   1.727  0.1263 -0.3423  0.1337
30885W        W46694   8.124  17.688   4.830 -0.4048  0.1289  0.2465
30886W        W46695   7.640   2.695   2.951 -0.0946  0.0320  0.1244
30887W        W46696  13.387  18.013  11.935  0.2543 -0.1879  0.0102
30888W        W46697  15.901  11.696   2.431  0.0210 -0.2386  0.2738
30889W        W46698   2.982   2.690   3.411  0.0565 -0.2215 -0.3322
30890W        W46699   1.203  18.668  15.186 -0.2204 -0.1672 -0.0748
30891W        W46700  14.234  12.868  13.767  0.0652  0.2544 -0.0996
30892W        W46701   5.110   9.612   3.920 -0.0467 -0.0766 -0.1138
30893W        W46702  11.427  15.416   4.644 -0.0824 -0.2530  0.0682
30894W        W46703   7.140  16.363   2.926 -0.3394 -0.0626 -0.1020
30895W        W46704   5.853   1.919  13.916 -0.0868  0.0525  0.1932
30896W        W46705   2.000  12.080  10.557 -0.3172  0.1772 -0.1321
30897W        W46706   3.996  11.140   2.836  0.1769 -0.0488 -0.1091
30898W        W46707   9.352  11.014   0.821  0.2336  0.2395 -0.1164
30899W        W46708   6.132  13.313   1.555  0.1114 -0.1334  0.2654
30900W        W46709  10.303  12.461   0.322 -0.0278 -0.0695  0.2823
30901W        W46710  18.670   2.027  14.566  0.0750 -0.1118  0.1978
30902W        W46711  13.831   1.374   2.079  0.0030  0.2571  0.0853
30903W        W46712  14.616   8.704   4.622  0.0714 -0.1412  0.2111
30904W        W46713   7.252  14.528   3.452 -0.1244  0.0866  0.1194
30905W        W46714   6.454  13.507   1.085 -0.0849 -0.2146 -0.1153
30906W        W46715  12.567   4.690  13.208  0.0461  0.0462 -0.0794
30907W        W46716   2.990  16.987   0.856  0.2800  0.1366 -0.0564
30908W        W46717  11.577  15.703   1.908  0.0466  0.0789  0.4432
30909W        W46718  18.346  12.637  10.910  0.1583 -0.2366  0.0044
30910W        W46719   5.268   7.580   4.208 -0.0593 -0.1347 -0.0921
30911W        W46720  10.236   5.040  11.357 -0.1911 -0.1768 -0.1165
30912W        W46721   3.873   2.277   9.461  0.4038 -0.0982  0.0915
30913W        W46722  13.992   1.024   4.220 -0.3398  0.1799 -0.2889
30914W        W46723   4.827  17.203  13.024 -0.2609  0.0004 -0.5393
30915W        W46724   9.987   4.982  14.437 -0.0138  0.0671  0.2358
30916W        W46725  13.745   9.216  12.026  0.2622 -0.3744  0.1962
30917W        W46726   3.400   8.969  14.832  0.0156 -0.1811  0.3677
30918W        W46727  14.571   3.967   3.932 -0.1963 -0.0920  0.0354
30919W        W46728   4.496  14.507  12.036 -0.0585  0.0700  0.2694
30920W        W46729  18.101   1.676   0.797 -0.0438 -0.2186 -0.1490
30921W        W46730  16.098   4.087   5.032  0.0676 -0.3209 -0.0081
30922W        W46731   3.387   5.130   4.341 -0.0471 -0.0284  0.1550
30923W        W46732   5.504  14.034   1.227  0.3636 -0.0535  0.1782
30924W        W46733  18.346  13.828   3.272 -0.1489  0.2493 -0.3101
30925W        W46734  12.467  10.636   2.563  0.2616 -0.2158  0.1212
30926W        W46735   0.043   1.850  11.806  0.2400  0.3461 -0.0367
30927W        W46736  16.787  11.713   1.291 -0.3358 -0.1164  0.0692
30928W        W46737  15.413  14.106   0.156 -0.0168 -0.1956  0.3822
30929W        W46738   5.384   4.358   5.134  0.0799 -0.1136  0.0990
30930W        W46739   5.317  12.822  15.190  0.2171 -0.2012  0.3028
30931W        W46740  14.622  13.346   5.121  0.2274  0.7714  0.1375
30932W        W46741  15.674   4.697   5.593  0.2159  0.0119  0.3200
30933W        W46742   4.125   1.609   0.115 -0.1723  0.1845 -0.0310
30934W        W46743  14.681  11.302   3.588 -0.1651 -0.0446  0.1131
30935W        W46744   5.419  15.926  11.312 -0.1730 -0.2633  0.0997
30936W        W46745  13.745   1.845   1.006  0.3342  0.4001 -0.1155
30937W        W46746   8.271   0.904   1.465 -0.1243  0.0316 -0.0356
30938W        W46747  11.510   1.536  11.681  0.3276 -0.0466  0.1607
30939W        W46748   0.198   5.567  11.122  0.1314  0.2757 -0.1523
30940W        W46749   5.857   5.137  15.174 -0.0269  0.2884  0.2769
30941W        W46750  16.596   9.325  13.075 -0.0189 -0.0546  0.1109
30942W        W46751   2.263  18.924  14.574  0.0001 -0.1398 -0.3135
30943W        W46752  13.150   4.939   1.315 -0.0358  0.0674 -0.0542
30944W        W46753   7.557  17.091  14.089 -0.1088 -0.1188 -0.1331
30945W        W46754  11.060   4.269  12.900  0.1026  0.2958 -0.1100
30946W        W46755  13.593  12.998   0.424 -0.1341 -0.0569  0.0264
30947W        W46756   4.454  17.640   4.138  0.4340  0.0969 -0.1683
30948W        W46757   0.386   2.755  11.484  0.1714  0.3610 -0.1043
30949W        W46758  18.073  16.477   5.477  0.2598 -0.0860 -0.1313
30950W        W46759   8.417   9.692  10.883 -0.0916 -0.0967 -0.1263
30951W        W46760   9.854   7.602  11.568 -0.0627 -0.4191  0.0372
30952W        W46761  11.886  11.480  12.456  0.0069 -0.1241  0.4128
30953W        W46762  17.893   7.856  14.403  0.1650 -0.0551  0.0066
30954W        W46763   8.737   4.652  14.107  0.0080  0.1869  0.2171
30955W        W46764  18.595  19.007  15.029  0.4000  0.2961  0.2256
30956W        W46765  15.848   1.032   0.959 -0.2167 -0.1536  0.1017
30957W        W46766   8.301   1.717  12.330  0.0556  0.3204  0.1608
30958W        W46767   8.542   5.500   2.841 -0.0560  0.3197 -0.0876
30959W        W46768   4.900   0.035   9.749 -0.4644 -0.1352  0.1770
30960W        W46769   6.097  18.432   3.687 -0.2453 -0.0288 -0.1386
30961W        W46770   5.857  12.707   4.714 -0.0363 -0.0834  0.0978
30962W        W46771   3.247   8.833  10.553  0.1526 -0.0332  0.2991
30963W        W46772  13.384  15.910  15.056 -0.2055  0.0062  0.2772
30964W        W46773   2.711  16.706   0.257 -0.0063 -0.2948 -0.0097
30965W        W46774  12.944   2.192  15.198  0.0193 -0.0736 -0.0058
30966W        W46775   0.098   6.671   4.306  0.1969  0.1672  0.1382
30967W        W46776   7.946  18.853  10.449 -0.2184 -0.0905  0.0164
30968W        W46777   1.542  17.801   3.864 -0.0946  0.0500 -0.1508
30969W        W46778  14.233   9.697  13.374 -0.1929 -0.2018 -0.5990
30970W        W46779   9.131   0.551   1.706  0.0675 -0.1051  0.0811
30971W        W46780   5.810   5.589   0.057  0.2077  0.2695  0.1982
30972W        W46781  15.180   5.479  11.821 -0.1778 -0.0202 -0.1035
30973W        W46782   7.477   2.698   0.399  0.2035 -0.0527  0.2750
30974W        W46783  10.780   0.421   0.759 -0.3062 -0.0960 -0.1703
30975W        W46784   6.144  17.875   2.497  0.1241  0.0397  0.0236
30976W        W46785   9.342  13.139   0.993 -0.3815 -0.0218 -0.2606
30977W        W46786   1.913  17.770  12.976  0.3524  0.2438 -0.3416
30978W        W46787  15.287  18.183  12.603 -0.2636 -0.2538  0.1919
30979W        W46788   6.474  11.039   0.711 -0.0440 -0.2292 -0.0091
30980W        W46789  14.169   5.248   3.708 -0.0398  0.1200 -0.0677
30981W        W46790   7.360  10.039  10.228  0.0249  0.0941  0.0018
30982W        W46791   2.355   7.613   3.244 -0.0242  0.2283  0.2206
30983W        W46792   4.309   4.154   3.680  0.0441 -0.1486 -0.0914
30984W        W46793  12.408  17.894  11.678 -0.1175 -0.0950  0.1231
30985W        W46794   5.745  11.686  13.066 -0.0063  0.1678 -0.0148
30986W        W46795  11.042  16.198   2.329 -0.1253 -0.1411 -0.3223
30987W        W46796   5.935  17.864   1.239 -0.2324  0.2248 -0.1012
30988W        W46797  13.036   0.562   5.090  0.0837  0.5135  0.0878
30989W        W46798  16.041  10.150   5.050  0.0525  0.0754 -0.0884
30990W        W46799   5.932  11.328   3.634  0.0450 -0.2310  0.0276
30991W        W46800   7.180  18.604   1.150 -0.0884  0.0557  0.2698
30992W        W46801  10.223  12.701   4.737  0.0609  0.0853  0.2943
30993W        W46802   8.975  10.544   3.797  0.0877 -0.2301  0.1894
30994W        W46803  18.620  17.752  14.356 -0.1117 -0.0344 -0.0084
30995W        W46804  10.742  14.182  13.266  0.2482 -0.0774  0.0362
30996W        W46805  18.682   1.101   2.584 -0.1640 -0.0454  0.1081
30997W        W46806  11.580   9.942  12.737  0.1021  0.0844 -0.2289
30998W        W46807   0.710  15.127   4.662 -0.1308 -0.0567  0.2023
30999W        W46808   5.512   7.552   0.471 -0.1314  0.1728 -0.0300
31000W        W46809  14.727  16.424  12.331 -0.0531 -0.1276  0.2106
31001W        W46810  16.453  10.623   1.678  0.2607  0.0240  0.2178
31002W        W46811   9.385  10.716  12.367 -0.2382 -0.0389 -0.1711
31003W        W46812  12.458  11.469  14.723  0.4658 -0.4391 -0.0024
31004W        W46813   3.728  18.184   2.974 -0.7302  0.1060  0.1664
31005W        W46814   2.534   8.009  12.120  0.0969  0.1836 -0.1526
31006W        W46815   1.193   4.384  13.647 -0.2326 -0.0298 -0.0935
31007W        W46816   2.225   2.500  11.412  0.1024  0.0987  0.0234
31008W        W46817  12.652  15.972   4.596 -0.2704  0.1258  0.0678
31009W        W46818   4.157   9.568   5.427 -0.1152  0.0562 -0.1784
31010W        W46819   6.127  17.588  12.742  0.0242  0.2561  0.1149
31011W        W46820  15.205  10.416   4.584 -0.1293 -0.3353  0.1262
31012W        W46821  11.992   3.420   5.805 -0.0663  0.1505 -0.2227
31013W        W46822   6.074  12.411   2.694  0.4167  0.0892 -0.0815
31014W        W46823  10.573   8.075  12.812 -0.0401  0.2454  0.1547
31015W        W46824   6.941  11.828   9.426  0.0181  0.3286 -0.0427
31016W        W46825   5.707  15.185  10.859 -0.0659  0.2137 -0.2093
31017W        W46826   6.963  13.315   4.762 -0.2543 -0.0317 -0.3844
31018W        W46827  11.560  18.092  11.361 -0.1532  0.3326  0.2000
31019W        W46828   1.246   1.821   4.309  0.1472 -0.2783  0.2964
31020W        W46829   0.847   0.677  10.241 -0.0688 -0.0643 -0.1793
31021W        W46830  17.247  17.667  11.355  0.1025 -0.0101  0.2352
31022W        W46831   7.890  14.287  12.587  0.0123 -0.2356 -0.0744
31023W        W46832  16.005   3.263   1.075 -0.4904  0.1173 -0.0993
31024W        W46833   1.084   0.204   4.370  0.2401 -0.2794 -0.0423
31025W        W46834   4.719   1.775  13.461  0.1792  0.0082  0.1327
31026W        W46835  14.590   7.145   1.945  0.2363  0.2976 -0.1127
31027W        W46836  15.237   3.742   0.519 -0.1815  0.0241 -0.0190
31028W        W46837   3.019   6.789  12.367  0.1877 -0.1784  0.1863
31029W        W46838   6.921  16.156  12.126  0.1478 -0.2489  0.3666
31030W        W46839  17.618  17.340   4.297 -0.2368  0.1387 -0.0649
31031W        W46840   2.598  17.407  10.445 -0.0474  0.0513 -0.0451
31032W        W46841   3.603  11.823  14.548 -0.2573 -0.0855  0.0166
31033W        W46842  17.321  11.385  13.579  0.1809  0.2259 -0.0028
31034W        W46843   4.150   0.852  14.266  0.0057  0.2793  0.3463
31035W        W46844  14.783   9.083  13.721 -0.0732 -0.1736 -0.2935
31036W        W46845  10.168  10.841  11.917 -0.0183  0.3275  0.0241
31037W        W46846   2.084  11.171   3.615 -0.1387  0.1236 -0.1282
31038W        W46847   6.825   5.016   1.129 -0.0519  0.1475 -0.1561
31039W        W46848  16.816   1.595   3.347  0.1802  0.2458  0.1261
31040W        W46849   4.591  18.316  13.777  0.0750  0.0784  0.3824
31041W        W46850   2.033  17.016  12.498 -0.0846  0.1045  0.0661
31042W        W46851  15.420   0.784  12.471  0.0570  0.2733  0.1081
31043W        W46852   1.403   4.307  12.367  0.4420 -0.0218 -0.0978
31044W        W46853  18.900   8.052   3.454  0.3904 -0.0097  0.1853
31045W        W46854   6.185  16.432  13.505 -0.3240  0.0108 -0.1435
31046W        W46855   6.706   4.442   2.036  0.0634  0.2096  0.2609
31047W        W46856  18.192  10.747  14.682 -0.1284  0.1588 -0.2711
31048W        W46857   2.221  18.991   1.128 -0.4069 -0.0605  0.0116
31049W        W46858  12.278  11.673  11.288  0.1901 -0.2631  0.0377
31050W        W46859  18.732  11.000  10.527 -0.1844 -0.0913 -0.2425
31051W        W46860   7.435   6.326   4.112 -0.1233 -0.0274 -0.3859
31052W        W46861  12.388  11.576   1.005 -0.2330 -0.2122  0.2106
31053W        W46862  16.432   0.472  14.490 -0.0175  0.1245  0.0524
31054W        W46863  17.999  17.998  13.090 -0.1161  0.3062  0.3378
31055W        W46864  15.154  17.298  10.825 -0.0055 -0.2036 -0.0352
31056W        W46865  18.389  18.475   0.427  0.2510  0.2509 -0.0169
31057W        W46866  18.653  16.139  13.879 -0.2505 -0.0524  0.0664
31058W        W46867  18.562  13.676  14.591  0.1537  0.0178  0.0564
31059W        W46868  15.778  11.219   1.248  0.0867  0.0964 -0.4927
31060W        W46869  10.050  17.159   2.931 -0.2304  0.1415  0.1854
31061W        W46870   0.719  10.386  11.336  0.3458  0.0373  0.1336
31062W        W46871  12.388   1.495  11.664 -0.0517  0.1739 -0.1007
31063W        W46872   9.568  11.271   2.225  0.1178 -0.2165  0.0658
31064W        W46873   5.961   0.408  10.496  0.1862 -0.0744 -0.1547
31065W        W46874   9.361   6.798   4.790 -0.1271  0.2738 -0.3071
31066W        W46875   2.314   5.034   2.119  0.0926  0.4012  0.0632
31067W        W46876  10.037  16.655   2.984  0.2696  0.0634  0.2022
31068W        W46877  15.630  12.264   4.679  0.2537  0.3019  0.2577
31069W        W46878  11.202   5.010   4.018 -0.2365 -0.3268  0.0553
31070W        W46879   8.041  13.458   2.263  0.1909  0.3905  0.0691
31071W        W46880  14.015   6.649  10.888 -0.2807  0.2844  0.0558
31072W        W46881  15.771   1.937  14.603  0.1535 -0.0882 -0.1142
31073W        W46882   6.457   9.246  13.158 -0.0679 -0.0144  0.2785
31074W        W46883   6.048   4.403  12.394  0.3070  0.1008  0.2691
31075W        W46884   6.439   3.797  13.933  0.3235  0.1493 -0.0738
31076W        W46885   6.931  11.465  13.389  0.2142  0.4205  0.4056
31077W        W46886  13.384   1.349   2.963 -0.1022  0.0284  0.0233
31078W        W46887   1.472  18.899  10.810 -0.0668  0.2672 -0.1408
31079W        W46888   5.165  11.485   1.037  0.5055 -0.0215 -0.1459
31080W        W46889  12.072   6.673   1.768 -0.1617  0.2865 -0.1047
31081W        W46890  15.783  16.018   0.911 -0.0277  0.1245  0.0629
31082W        W46891   9.261   8.014  13.506 -0.0201  0.0001 -0.2065
31083W        W46892   2.634   9.430   4.596  0.0003 -0.2073  0.0844
31084W        W46893   9.028  18.496   9.456  0.4441 -0.0219 -0.1675
31085W        W46894   1.339   7.669   1.389  0.1719 -0.3540  0.0431
31086W        W46895  18.951  12.045   3.095 -0.1644 -0.0936  0.0164
31087W        W46896  16.483   8.873  13.460  0.0454 -0.1190 -0.0195
31088W        W46897   9.701   9.874   2.619  0.1538 -0.1034  0.0817
31089W        W46898   9.540   4.021   1.785 -0.1628 -0.0595 -0.1752
31090W        W46899   7.212   5.771  15.182  0.1252  0.1635 -0.0815
31091W        W46900   5.751  10.660  11.409 -0.0139 -0.1030  0.2224
31092W        W46901   4.296  13.586  11.180  0.1654 -0.3830  0.3401
31093W        W46902  17.496   5.787   3.376 -0.1328 -0.0616 -0.1265
31094W        W46903  17.370  14.172   3.541  0.0157 -0.0285 -0.0868
31095W        W46904  11.830  19.011  11.108 -0.0619  0.0818 -0.2034
31096W        W46905   4.438   0.779   0.394 -0.0659 -0.0688 -0.0797
31097W        W46906   3.401  11.427   1.307  0.1093 -0.1655  0.2835
31098W        W46907  11.713   3.017   4.507  0.0019  0.1658 -0.1230
31099W        W46908   5.111  17.096   2.083  0.1240  0.1999  0.0665
31100W        W46909  17.764  14.198  12.332  0.2089 -0.0783  0.1152
31101W        W46910   2.620  12.501  11.502  0.2679 -0.1867  0.1002
31102W        W46911  12.486  17.483   3.989 -0.1039 -0.1617  0.1387
31103W        W46912   3.491   7.638   1.152 -0.0354 -0.1261  0.3995
31104W        W46913   2.406  14.500   0.694  0.1766  0.1941 -0.1937
31105W        W46914  11.055  18.908   4.784  0.0480  0.0891  0.1082
31106W        W46915  15.995   7.884  11.804 -0.0890 -0.3115  0.1946
31107W        W46916   9.783  15.755  10.787  0.0961 -0.0161 -0.0405
31108W        W46917   2.641   6.288  11.731  0.2321  0.0107  0.0815
31109W        W46918  11.808  13.893   5.127  0.0146 -0.0176  0.1604
31110W        W46919   3.924  10.426  13.239  0.0184 -0.0555 -0.2358
31111W        W46920   6.750   6.966   1.977  0.2682  0.1215  0.0628
31112W        W46921   3.125  18.405   2.191 -0.2125  0.0534 -0.2029
31113W        W46922  10.890  12.278  13.231 -0.0790 -0.0575 -0.0743
31114W        W46923   9.711  17.976  12.353  0.0411  0.0448 -0.1486
31115W        W46924  18.246   1.597  15.170  0.0490 -0.3986 -0.1658
31116W        W46925  18.526  18.607   3.041  0.2120  0.0308 -0.0682
31117W        W46926  15.427   2.829   5.003 -0.1827  0.0019 -0.3022
31118W        W46927   8.058  17.112  12.673  0.2488  0.0349  0.0334
31119W        W46928  15.737  12.586   3.192 -0.1027 -0.3587  0.2719
31120W        W46929  16.328   6.911   4.856 -0.1645 -0.4613  0.1776
31121W        W46930   7.502  17.578  13.961  0.2088 -0.1197 -0.2069
31122W        W46931  15.430  18.066   5.408  0.0422 -0.1180  0.0512
31123W        W46932  17.418  15.497  13.533 -0.0228  0.3217 -0.1542
31124W        W46933  13.174  16.374   0.471 -0.0879 -0.1228  0.2227
31125W        W46934   1.998   4.644   4.761 -0.1994  0.2386 -0.2145
31126W        W46935  15.282   4.368   3.047  0.0063  0.3685 -0.0246
31127W        W46936  11.007   8.078   2.842 -0.3011 -0.0093 -0.2249
31128W        W46937   3.013  13.733  10.222 -0.0285  0.0717  0.3675
31129W        W46938  15.191  19.008   6.324 -0.0758  0.2819 -0.4404
31130W        W46939   6.628   7.641  13.071 -0.4038 -0.0721  0.1564
31131W        W46940  14.162  16.493   0.742 -0.5835 -0.2395 -0.1965
31132W        W46941  14.593  18.861  15.261  0.3263 -0.1172  0.1977
31133W        W46942   1.655  17.238  12.310  0.2385  0.0609 -0.2351
31134W        W46943  12.404  12.452  10.990 -0.6368  0.1754  0.2755
31135W        W46944   3.646   4.716   3.409  0.0282 -0.1365  0.1491
31136W        W46945  10.959   4.406   4.640  0.0575 -0.0418 -0.0704
31137W        W46946  16.624   6.181  13.703 -0.2041 -0.1397 -0.0256
31138W        W46947   2.190  15.822   0.395 -0.1678 -0.3738  0.0828
31139W        W46948   0.250   6.562  15.214 -0.1700 -0.1386 -0.1152
31140W        W46949   6.008   4.539  15.149  0.0584  0.2049 -0.3633
31141W        W46950  14.783  13.727  12.173  0.3765 -0.3108  0.0234
31142W        W46951   2.367   7.653  12.760 -0.1225 -0.1220  0.0909
31143W        W46952   0.946   3.500  14.326 -0.1194 -0.0631  0.0907
31144W        W46953  11.296   5.653  11.712  0.3587  0.1282 -0.0732
31145W        W46954   6.656  18.804   9.916  0.0394 -0.2111 -0.1156
31146W        W46955  17.109  11.584  13.105  0.2139 -0.0841  0.0164
31147W        W46956   4.169  18.058   5.449  0.3976 -0.1489 -0.0226
31148W        W46957   9.639  12.534   3.632  0.2881  0.1069  0.0468
31149W        W46958   0.869  15.396   3.859  0.0840  0.0920  0.0091
31150W        W46959   6.900   4.783   2.887 -0.0150 -0.0214 -0.0620
31151W        W46960  11.317  14.579   1.505  0.2549 -0.0299 -0.2633
31152W        W46961  11.700   3.226  12.806  0.4217 -0.3311 -0.0189
31153W        W46962   4.733   9.460  11.307  0.1938  0.3342  0.0148
31154W        W46963  16.472  18.233   0.583  0.2495  0.3989 -0.3253
31155W        W46964   5.459   8.654  10.924  0.3708 -0.0823 -0.2422
31156W        W46965   9.240   5.788  12.182  0.0529 -0.3238 -0.3711
31157W        W46966   1.719   3.595   3.159 -0.0105 -0.4329 -0.2773
31158W        W46967   0.165  13.252   1.470 -0.0860 -0.1359  0.0385
31159W        W46968  17.421   3.657  11.759 -0.4523  0.2922 -0.2733
31160W        W46969   1.017   8.898  12.921  0.1881  0.0428  0.1358
31161W        W46970   3.495   0.370   4.653  0.5694 -0.0508 -0.1215
31162W        W46971  16.446   7.326  12.495 -0.4538 -0.2305  0.3431
31163W        W46972   3.920  12.822   0.276 -0.0849  0.6723 -0.0093
31164W        W46973   5.293  16.896   4.051  0.1223  0.1849  0.0225
31165W        W46974  17.868   2.280   3.358  0.1203  0.0765  0.0411
31166W        W46975  14.484  16.585   4.448 -0.1646 -0.0594 -0.1252
31167W        W46976   3.816   7.973   2.773  0.2329 -0.0244 -0.0673
31168W        W46977   8.581   1.703   1.630  0.4029  0.0340 -0.3594
31169W        W46978   2.703   3.271   0.296 -0.0602 -0.1671  0.0183
31170W        W46979   7.628   1.972   0.924  0.0514  0.1335 -0.1649
31171W        W46980   3.965   1.632   0.795  0.0957 -0.0376 -0.1934
31172W        W46981  16.107   5.116  12.541  0.1481  0.2306  0.0922
31173W        W46982  14.181   4.130  11.298 -0.3720 -0.1630  0.1685
31174W        W46983   8.346  16.565   1.585 -0.1962  0.0414 -0.3773
31175W        W46984  17.525  14.777  12.949  0.0931 -0.1751  0.1408
31176W        W46985  13.905  10.051   2.789 -0.0898 -0.2166  0.0250
31177W        W46986   4.797  18.563   1.857 -0.0519 -0.0691  0.1957
31178W        W46987  12.473  17.924   0.445 -0.0779 -0.0497 -0.0556
31179W        W46988   6.987   7.435   1.821 -0.2286 -0.3281  0.0933
31180W        W46989   1.700  12.538  13.084 -0.0797 -0.2149 -0.0554
31181W        W46990  15.031  16.864   3.706 -0.0569  0.0255 -0.3104
31182W        W46991  15.839   9.700   0.185  0.0611 -0.1413 -0.0785
31183W        W46992  18.412  15.115   0.162 -0.3715  0.0470 -0.3019
31184W        W46993  15.034  15.573   3.468 -0.2217 -0.1052 -0.3918
31185W        W46994  11.433   0.554  13.062 -0.0023  0.0831  0.1342
31186W        W46995   9.634   2.826   0.890  0.0695 -0.0786 -0.2133
31187W        W46996  16.036   5.422  14.705 -0.5765 -0.0229 -0.0726
31188W        W46997   5.491   3.309  11.887  0.2892 -0.5120  0.1952
31189W        W46998  18.710   0.624   2.687  0.0204  0.0181  0.0823
31190W        W46999   6.798  10.855   3.218 -0.0206  0.0195 -0.1817
31191W        W47000   9.607  18.681  12.605 -0.1522 -0.3123 -0.4448
31192W        W47001   8.492   8.135  11.355 -0.1134  0.0743 -0.0993
31193W        W47002  16.403   3.358   0.704  0.5294 -0.1437 -0.0682
31194W        W47003  13.349  18.764  10.484 -0.0992  0.2553 -0.0429
31195W        W47004   6.051  15.306   0.497  0.0365 -0.2817 -0.1962
31196W        W47005  16.528  18.933   4.061  0.2002 -0.3277 -0.0487
31197W        W47006   3.296  13.950   3.407 -0.0432  0.0215  0.0105
31198W        W47007   7.110  12.698  12.251  0.0339  0.2101 -0.3466
31199W        W47008   7.430   0.404  10.252  0.0813  0.1235 -0.1219
31200W        W47009  11.683  12.799   2.902  0.0858  0.2829  0.0214
31201W        W47010  12.529  14.131   4.364  0.0676 -0.3667 -0.1154
31202W        W47011   4.808   8.789  12.493  0.2756 -0.4370  0.2335
31203W        W47012  15.054   8.639   5.933 -0.2021  0.0055  0.2426
31204W        W47013  13.460  18.827  13.506 -0.1695 -0.1796 -0.2561
31205W        W47014   8.035   5.288  11.210  0.0566  0.3908  0.1014
31206W        W47015   6.643   7.238   1.590  0.1183 -0.3241  0.0483
31207W        W47016   0.556   8.618   2.595 -0.3467 -0.0540 -0.2925
31208W        W47017  16.356   7.214   1.109 -0.2931 -0.0125 -0.1166
31209W        W47018  12.849  17.142  10.444 -0.0575 -0.2450  0.2174
31210W        W47019   7.525  16.188  10.775 -0.0552  0.1335 -0.2439
31211W        W47020   5.509   6.050  15.150  0.2259 -0.0316  0.2089
31212W        W47021   2.279   2.803  12.668 -0.0113  0.1408  0.0361
31213W        W47022   9.943   8.884  15.158 -0.2198  0.0533 -0.0471
31214W        W47023  10.953   0.373  13.127 -0.0965 -0.0324  0.4774
31215W        W47024  10.120   7.298   0.365 -0.2696  0.0684  0.2483
31216W        W47025   2.754   8.978  11.811  0.1432  0.0854  0.3216
31217W        W47026   4.325   7.802  15.122 -0.0488 -0.0898 -0.0004
31218W        W47027  17.444   5.362   3.115  0.2448 -0.0611 -0.0468
31219W        W47028   6.473  11.951  12.516 -0.1817 -0.3758 -0.2312
31220W        W47029  17.187   2.385  11.918 -0.1565 -0.2251 -0.0163
31221W        W47030  13.297  14.815   5.960  0.0782  0.1312 -0.0438
31222W        W47031  14.519  13.540  10.753  0.1158  0.1160 -0.1821
31223W        W47032   1.496   8.508   5.044 -0.1421 -0.0288 -0.1260
31224W        W47033  15.446  18.232  14.633  0.1289  0.0421 -0.2140
31225W        W47034   7.031   0.533   2.178 -0.1257  0.2194 -0.1425
31226W        W47035   6.049  12.110   1.350 -0.1816 -0.2640 -0.1264
31227W        W47036  12.366   2.021   5.119  0.0994 -0.3100  0.1321
31228W        W47037   4.560  16.821   1.197  0.1656  0.2279 -0.1721
31229W        W47038   7.770   2.083  15.119 -0.2053 -0.1158 -0.2479
31230W        W47039   7.608   8.031   2.305 -0.0387 -0.1058  0.2014
31231W        W47040   2.001  15.530   4.578 -0.0607 -0.0303 -0.0043
31232W        W47041   1.992  14.554   0.419 -0.1378  0.2809  0.4566
31233W        W47042  15.299  11.088   0.995 -0.0528  0.1335  0.1611
31234W        W47043  16.376   3.142   4.834 -0.0269  0.1023  0.1446
31235W        W47044  14.233   8.418   3.364  0.0296  0.1678 -0.0593
31236W        W47045   6.451  13.395   3.957  0.0596  0.1105 -0.0024
31237W        W47046  16.581  10.171   1.511  0.1485  0.4427  0.1742
31238W        W47047  13.568   2.729  10.957  0.1361  0.0281 -0.4784
31239W        W47048  12.926   8.183  14.894 -0.0044 -0.2992  0.1299
31240W        W47049   8.465  17.242  11.708 -0.1678  0.0046  0.2097
31241W        W47050  12.603  11.238  13.124 -0.1978  0.2410  0.0387
31242W        W47051  18.584  17.970   3.671 -0.0719 -0.0840  0.3549
31243W        W47052   9.499  13.972   0.580  0.3027  0.1670 -0.1101
31244W        W47053   3.728   0.019  11.052  0.0571 -0.0882 -0.0228
31245W        W47054   7.237  18.356  11.866 -0.0551 -0.0870  0.2570
31246W        W47055   6.804   8.892   4.980  0.0469  0.1805 -0.0621
31247W        W47056   2.347  18.716  13.641 -0.1876  0.2027 -0.1012
31248W        W47057  10.034  16.765   4.404  0.0233  0.2089 -0.0471
31249W        W47058  10.875   6.431  10.477 -0.1103 -0.4126  0.0603
31250W        W47059  13.911  15.089  12.121 -0.1241 -0.0549 -0.1590
31251W        W47060   3.585   6.851   2.587  0.0724  0.1347  0.1998
31252W        W47061  14.516  13.464   1.021  0.3785  0.1136 -0.0629
31253W        W47062   0.841   5.944  12.869 -0.2808  0.1092  0.1362
31254W        W47063   5.006   7.989   4.066 -0.1828  0.3222  0.2274
31255W        W47064   3.283   6.045   3.536 -0.0186  0.2631  0.1158
31256W        W47065   2.240   0.902  11.488  0.3588  0.2110  0.1368
31257W        W47066  13.563   4.023   0.163 -0.1179 -0.3121 -0.0842
31258W        W47067  14.291  16.860   2.320 -0.1884 -0.2105  0.1654
31259W        W47068   3.646  10.400  15.073 -0.2243  0.1195 -0.0284
31260W        W47069   8.863   7.128   0.965 -0.1465  0.3533 -0.2147
31261W        W47070   7.280   5.644  13.360 -0.1001  0.1793  0.0067
31262W        W47071   4.607  17.120  11.939 -0.2018 -0.2696  0.0914
31263W        W47072   2.635  14.771  13.307  0.1204 -0.2579  0.1044
31264W        W47073  13.825  14.996  13.763  0.0978 -0.1311 -0.1418
31265W        W47074  17.142  15.843   2.760 -0.1713  0.0443  0.3508
31266W        W47075   4.836  10.936  11.737 -0.0049 -0.0246 -0.0221
31267W        W47076  11.168   3.833   3.252  0.1969 -0.0486 -0.0369
31268W        W47077   9.332  13.785  11.994 -0.0096  0.0062 -0.0555
31269W        W47078   7.296   7.008  10.907  0.0649 -0.4453  0.3120
31270W        W47079   2.249   0.477  13.977 -0.0299  0.0539 -0.3705
31271W        W47080   5.407  15.364   2.951 -0.1081 -0.0736  0.0001
31272W        W47081  10.337  10.496   2.485  0.0125  0.1516 -0.2709
31273W        W47082   7.230   4.230   3.405  0.0715 -0.1066 -0.0882
31274W        W47083  16.183  16.932  14.174 -0.0833  0.3502 -0.0482
31275W        W47084  17.900   9.266  14.465  0.2704 -0.1784  0.1439
31276W        W47085   3.451  16.002   1.021 -0.4917 -0.0793  0.0149
31277W        W47086  12.634  10.093   4.088  0.1668 -0.1222  0.1505
31278W        W47087   4.332  12.289   4.298  0.4663  0.1593  0.3952
31279W        W47088   6.517   0.867  13.954  0.1181  0.3030 -0.0399
31280W        W47089  13.081   1.430  11.003  0.2759  0.2844  0.1287
31281W        W47090   2.667   8.307   4.082  0.0025  0.3774  0.1085
31282W        W47091  14.826  18.712   1.928  0.0642  0.0896  0.1344
31283W        W47092  19.007   0.382  12.053 -0.1164 -0.0817  0.1841
31284W        W47093  12.081  13.898   9.886  0.1940  0.2028 -0.2837
31285W        W47094  10.915   8.530  13.833  0.1076  0.2340 -0.2070
31286W        W47095   6.905  13.404  12.637 -0.1840 -0.0861 -0.0532
31287W        W47096   3.863  10.737  10.167 -0.0220  0.1673 -0.1174
31288W        W47097  10.419  14.379  14.852 -0.0047 -0.0229  0.3432
31289W        W47098   4.070   8.148  12.899 -0.5079  0.3899  0.1121
31290W        W47099  17.309  18.910  12.325  0.2709 -0.3381 -0.3080
31291W        W47100  13.648  16.384  12.597  0.2358 -0.2240  0.1751
31292W        W47101   4.086  16.366   0.397 -0.0507 -0.3086 -0.0482
31293W        W47102   0.761   2.016   2.917  0.1647 -0.3238 -0.2017
31294W        W47103   4.560   7.912   4.755 -0.0125 -0.1180 -0.1499
31295W        W47104  16.944   6.411   3.614  0.1024  0.0398 -0.1195
31296W        W47105   0.331   6.505  11.663 -0.1496 -0.3421  0.1596
31297W        W47106  13.409   6.543  14.295  0.1806 -0.0618  0.0948
31298W        W47107  13.209  11.899  13.602 -0.0840  0.0175  0.3096
31299W        W47108   3.711   5.515   0.349 -0.1511 -0.0105 -0.1333
31300W        W47109  11.814   7.862   2.443 -0.1032 -0.1117 -0.0079
31301W        W47110   4.466   6.719   2.464 -0.2875  0.0609 -0.1663
31302W        W47111  18.160  17.522  14.597  0.2321  0.2944  0.2212
31303W        W47112   7.053   7.821   4.911 -0.0565 -0.0153  0.0480
31304W        W47113   3.501  11.439  15.212 -0.1716  0.2082  0.0824
31305W        W47114   0.885  10.905   3.803 -0.2958  0.1967  0.2249
31306W        W47115   3.864   3.564  14.732  0.3079 -0.0652 -0.2043
31307W        W47116   8.443  14.000   3.501  0.3432 -0.2105  0.3496
31308W        W47117   9.991   5.198   1.861  0.0986  0.0040  0.5063
31309W        W47118  15.828   0.559  11.290  0.1061 -0.0993 -0.0559
31310W        W47119  18.361  13.857   0.382 -0.0584 -0.1683 -0.0905
31311W        W47120   9.738   3.659   1.976  0.0346 -0.0536  0.2056
31312W        W47121   5.102  15.219  12.294  0.0064 -0.0221  0.5426
31313W        W47122   4.897   3.527   5.435  0.2980  0.1394  0.0845
31314W        W47123   2.137  13.917   5.842  0.0746 -0.1261  0.3021
31315W        W47124  13.636   3.503   0.369  0.0276 -0.2551  0.0457
31316W        W47125  17.007   5.987  11.912 -0.3244  0.0465 -0.1742
31317W        W47126   7.772  15.449  12.947  0.1921 -0.0871  0.3278
31318W        W47127   0.455   7.837  11.146  0.1134 -0.0998  0.1318
31319W        W47128  18.364  18.524  14.810 -0.4349  0.0579  0.1354
31320W        W47129  13.866  11.935  10.445 -0.0188  0.1909  0.1241
31321W        W47130   0.163   9.611   1.641 -0.1772  0.3108  0.2903
31322W        W47131   1.558  16.991   3.194  0.2698 -0.2944 -0.3136
31323W        W47132   8.373   0.492   4.219 -0.2327  0.1316 -0.1155
31324W        W47133  14.662   2.772   2.921 -0.2355 -0.1258  0.2003
31325W        W47134   6.421  15.078   3.314  0.1167 -0.1586 -0.1808
31326W        W47135   7.748   2.665  15.175 -0.1700  0.0222  0.1451
31327W        W47136  17.540  16.621   3.134 -0.1155 -0.0021 -0.0183
31328W        W47137   4.830   4.013   3.726  0.0125 -0.0207  0.2625
31329W        W47138  14.538   2.650   0.323 -0.2631 -0.0160 -0.2385
31330W        W47139   2.384  13.359  11.490  0.0037 -0.1553 -0.0444
31331W        W47140   5.365  18.347   1.246 -0.0658  0.2971 -0.0290
31332W        W47141  17.283   0.497  11.517 -0.0871  0.1851  0.1246
31333W        W47142  12.419   8.690   2.814 -0.1272 -0.0984 -0.1341
31334W        W47143  15.394   5.828  11.574 -0.0296  0.0733 -0.0920
31335W        W47144   3.604   3.526   0.281 -0.4047 -0.0802 -0.1554
31336W        W47145  10.134  10.652  11.176 -0.0669 -0.3222 -0.0657
31337W        W47146  14.954   0.901   3.888 -0.2399  0.1244 -0.0103
31338W        W47147  11.596   0.759   2.924  0.0832  0.0579  0.2804
31339W        W47148  17.117   0.964   0.501  0.0008 -0.0709  0.0943
31340W        W47149  16.682  11.340   3.300  0.1781 -0.0438 -0.1391
31341W        W47150   8.296   9.468   9.565 -0.1098 -0.2350 -0.1121
31342W        W47151  16.352   0.205  14.877 -0.0002  0.1338 -0.1903
31343W        W47152  14.565   2.399   5.331  0.0522 -0.2311  0.0956
31344W        W47153  12.884  17.283   0.168  0.0646  0.0611 -0.0217
31345W        W47154  14.543  18.608   3.534  0.1665 -0.2709  0.2603
31346W        W47155  10.881   0.532   3.053  0.1525  0.0486 -0.0157
31347W        W47156  13.126  11.054  12.308  0.0827  0.1643 -0.1781
31348W        W47157   0.422  11.145  13.050  0.4450  0.2312 -0.2213
31349W        W47158   7.769   6.287  12.542  0.1747  0.5660 -0.2313
31350W        W47159   6.552  12.661  12.314 -0.3589 -0.0997  0.1009
31351W        W47160  17.579  12.755   0.609  0.2024  0.2213  0.2673
31352W        W47161   2.817  18.504   2.793 -0.6290  0.1728 -0.0667
31353W        W47162   8.021   1.820  10.910  0.0579 -0.1827  0.0896
31354W        W47163   0.255   2.992   3.829 -0.1324 -0.1630  0.0952
31355W        W47164  15.196  18.648   2.792  0.0521 -0.1957  0.0588
31356W        W47165   8.236   0.760   3.851  0.2717  0.2882  0.1197
31357W        W47166  13.919   0.833   4.699  0.0863 -0.2023 -0.2301
31358W        W47167   3.700  15.381  14.450  0.3004 -0.0922 -0.1964
31359W        W47168   3.245  16.079   4.339 -0.2350 -0.0216 -0.2195
31360W        W47169  17.366  17.251   6.089  0.1637 -0.0628 -0.2753
31361W        W47170   5.744  18.131   0.847  0.3647 -0.1460  0.0518
31362W        W47171  14.217   0.752   5.556 -0.0703 -0.0499  0.0072
31363W        W47172  16.219  13.932   4.720  0.0726 -0.0238  0.4306
31364W        W47173  17.314   7.466  13.804 -0.4890 -0.1003  0.4237
31365W        W47174  12.927   6.450   1.113  0.3115  0.2569  0.1201
31366W        W47175   4.673   7.251  11.997 -0.0917  0.1880  0.1705
31367W        W47176   0.133   0.977   2.001 -0.0575 -0.1872  0.1012
31368W        W47177  16.989   9.147   0.290  0.0366  0.1652 -0.0700
31369W        W47178   2.264  17.092   2.850  0.1053  0.1286 -0.0924
31370W        W47179  12.271   1.906   1.476  0.0802  0.0071 -0.2502
31371W        W47180   0.590   7.988   5.086  0.0535  0.1537 -0.1404
31372W        W47181   1.224   8.446   0.188  0.0872 -0.1444  0.0857
31373W        W47182   0.175  10.201   0.315  0.0408 -0.3724  0.0027
31374W        W47183   2.731  13.702   4.944 -0.0915  0.1466  0.0529
31375W        W47184  16.411   9.524   1.025 -0.5481 -0.0126  0.1075
31376W        W47185  13.046  13.807  11.480  0.1414 -0.2214 -0.1680
31377W        W47186  15.989   7.521   0.281  0.0400 -0.0600 -0.0736
31378W        W47187   1.586  14.588  13.519  0.3313 -0.2525  0.1950
31379W        W47188  10.337   5.296   0.636 -0.0113 -0.0320 -0.1326
31380W        W47189  18.846   8.254  14.654  0.0881 -0.0642  0.1444
31381W        W47190   7.988   2.870   4.730 -0.1831  0.1694 -0.1447
31382W        W47191  12.657   7.768  14.821  0.3184  0.0945  0.0979
31383W        W47192   7.879  16.393  10.512 -0.0087 -0.3506 -0.0126
31384W        W47193  11.616  18.380  12.345  0.1489 -0.2012 -0.0657
31385W        W47194   8.725  12.233   3.888 -0.0972 -0.0175  0.0850
31386W        W47195   3.888   6.743   1.295 -0.0614  0.0186 -0.0794
31387W        W47196   0.783  17.529  11.491 -0.2600  0.0733  0.0828
31388W        W47197   3.383   3.780  14.786 -0.1935  0.1114 -0.0242
31389W        W47198  14.580  13.406   4.233 -0.3223 -0.4337  0.4516
31390W        W47199   0.912  10.391   0.086  0.1016 -0.0126  0.1216
31391W        W47200  18.204  14.334  10.774 -0.0655 -0.0864  0.0010
31392W        W47201   7.311  15.100  13.584  0.0748  0.0573  0.1592
31393W        W47202  18.715   5.547  15.216 -0.0831  0.1392 -0.4034
31394W        W47203  10.209  14.622   3.594  0.2485  0.1379  0.4565
31395W        W47204  17.256   1.823  14.133  0.0621  0.2432 -0.0332
31396W        W47205   8.380  18.688  10.525  0.1232 -0.2371 -0.1828
31397W        W47206   4.922   2.298   2.618 -0.2246 -0.5327 -0.2693
31398W        W47207   3.251   6.532   3.424  0.0476 -0.1163 -0.3954
31399W        W47208  13.600  14.656  11.601  0.0532 -0.0063  0.0831
31400W        W47209  12.493  10.405   4.491 -0.0372  0.1903 -0.0082
31401W        W47210  18.179  14.059  12.604 -0.1449  0.0108  0.2944
31402W        W47211  10.758  18.617   1.362  0.0003 -0.2028 -0.3527
31403W        W47212   4.875   2.829   1.846 -0.0707  0.0507  0.2969
31404W        W47213  16.117   7.237   2.018 -0.1945 -0.4849 -0.1196
31405W        W47214   2.305   2.161   2.249 -0.2982  0.1508 -0.0069
31406W        W47215   1.219   6.159   3.887  0.2343  0.1580 -0.4375
31407W        W47216  15.246  18.935  12.614  0.1196  0.2854 -0.1562
31408W        W47217   7.333   2.345   0.117  0.1642 -0.1263  0.0833
31409W        W47218  14.611  16.561  14.768  0.3161 -0.2515 -0.2316
31410W        W47219  12.060  16.671   3.947  0.2168  0.5436 -0.4613
31411W        W47220  17.007  13.517   4.153 -0.1439 -0.1166  0.0216
31412W        W47221   3.671   3.121  14.559  0.1508  0.3291 -0.0381
31413W        W47222   3.600  18.134   4.005 -0.2181 -0.0647  0.2265
31414W        W47223   8.596   9.411   1.411 -0.0458 -0.0512 -0.1584
31415W        W47224   5.016  18.104   3.929  0.0910 -0.1904 -0.4020
31416W        W47225  18.158  12.906  14.079 -0.0444 -0.3021  0.2682
31417W        W47226   8.827   8.272   4.130  0.0259 -0.0033 -0.1658
31418W        W47227   5.358   7.073   2.425 -0.1960 -0.1419 -0.2702
31419W        W47228  12.860   2.008  14.217  0.2506  0.0339  0.0463
31420W        W47229  10.282   2.906  10.306 -0.0090 -0.0332  0.0091
31421W        W47230  11.333  18.139  13.015 -0.0695 -0.1665  0.0611
31422W        W47231  15.307  15.636   0.463 -0.1943  0.2823  0.4429
31423W        W47232   1.703  12.080  12.480 -0.1996  0.0873 -0.0296
31424W        W47233  15.126   2.428   1.676  0.2631 -0.1396 -0.0122
31425W        W47234   0.614   0.391  10.614  0.0970 -0.0728 -0.1370
31426W        W47235   7.856   7.669   2.040 -0.0163 -0.0719 -0.2486
31427W        W47236  13.363   9.382  14.694  0.1403  0.0148 -0.1239
31428W        W47237   7.960   4.994   1.743  0.0578  0.3173 -0.4021
31429W        W47238  10.159  12.624  12.101  0.1635  0.1989  0.1192
31430W        W47239   0.894   0.359  14.740  0.1961  0.1644  0.0642
31431W        W47240  15.244   7.066  10.828  0.0975  0.1286  0.0926
31432W        W47241   5.942   2.737   0.318  0.1834  0.0587  0.1158
31433W        W47242  12.551  13.682   4.536  0.0593 -0.1714 -0.2955
31434W        W47243  12.665   7.411  14.402 -0.0708 -0.0532 -0.1260
31435W        W47244  13.597  10.625  12.304  0.2264  0.0946  0.0482
31436W        W47245   6.420  11.223   9.538  0.0307  0.2941  0.1452
31437W        W47246  12.524   8.280  13.212  0.0942 -0.0151  0.3487
31438W        W47247   6.826   7.008  14.536 -0.0171  0.0545 -0.0620
31439W        W47248   1.694   8.392   1.082 -0.2776  0.0246  0.0319
31440W        W47249   2.925   9.321   5.463  0.0787  0.0505  0.0079
31441W        W47250   9.556   4.027   1.286  0.0512 -0.1117 -0.0809
31442W        W47251   0.843  15.979  14.027  0.2113  0.0140  0.0220
31443W        W47252   1.257  17.626  12.231 -0.0403  0.4157  0.2002
31444W        W47253  12.077   4.330   0.425  0.1731 -0.4390 -0.0817
31445W        W47254  18.990   7.408   1.857  0.2631 -0.2309 -0.1560
31446W        W47255   7.435   4.685  13.195 -0.0444  0.1200 -0.1158
31447W        W47256   8.592  18.484  13.183 -0.1461  0.1431 -0.2828
31448W        W47257  12.486  14.376  14.192  0.1866 -0.0961 -0.0104
31449W        W47258  15.825   2.825  14.912  0.0804 -0.0285 -0.1729
31450W        W47259   9.063  16.892   2.134 -0.0260  0.1347  0.0687
31451W        W47260  16.255   4.769  12.969  0.1351  0.2179 -0.0759
31452W        W47261   1.439   6.115   3.030 -0.0084  0.0961  0.2024
31453W        W47262  13.161   3.085   4.597 -0.3044 -0.2799 -0.3599
31454W        W47263   8.907  18.098   3.541  0.1748  0.0656 -0.0260
31455W        W47264   9.393  13.276  13.822 -0.0830 -0.2343  0.0483
31456W        W47265  11.424  18.875  13.502 -0.1290  0.2031  0.0913
31457W        W47266  10.885   8.903   0.896 -0.1338 -0.0008  0.0449
31458W        W47267   9.353  13.578  12.822 -0.0752 -0.1637  0.0414
31459W        W47268   3.776  11.408  14.779  0.1572 -0.3067 -0.0846
31460W        W47269   3.825   7.986  10.627  0.2049 -0.0296 -0.0775
31461W        W47270   6.999   9.593  11.303  0.0006  0.1589  0.5739
31462W        W47271   9.857   9.008  13.646  0.0409 -0.0609 -0.1328
31463W        W47272   7.858  11.339  12.291  0.3866  0.1756  0.2410
31464W        W47273   9.423   7.930   3.807 -0.0222  0.0564  0.1197
31465W        W47274   4.195  14.512  12.783 -0.1518  0.0421  0.1889
31466W        W47275  10.927  14.138  12.346  0.3117  0.1017  0.0463
31467W        W47276  14.891  18.205   3.463  0.0130  0.2354  0.3892
31468W        W47277  11.831   0.136   2.071 -0.0306 -0.0059 -0.2743
31469W        W47278   4.580   9.112   3.798 -0.1853  0.0414 -0.3878
31470W        W47279   3.194  14.283   2.313  0.0473 -0.0895 -0.1590
31471W        W47280  18.067   5.399  11.649  0.3242 -0.1155 -0.0043
31472W        W47281   9.930   5.301  11.135 -0.0496 -0.1732  0.4439
31473W        W47282  11.231  12.593  13.577  0.2972  0.2260 -0.3304
31474W        W47283   4.137  18.863   0.877 -0.0408  0.1065 -0.2004
31475W        W47284   4.612  15.850  10.688  0.1795 -0.1075 -0.1789
31476W        W47285   2.276  13.724   5.144  0.0902 -0.0792 -0.2878
31477W        W47286  17.351  12.355   0.983 -0.3673 -0.0204  0.2141
31478W        W47287   8.974  15.666   4.166 -0.0287  0.0421  0.0982
31479W        W47288   4.735   1.169  10.521  0.1690 -0.1866 -0.0873
31480W        W47289   9.641  18.012   0.664 -0.2330  0.1263 -0.1209
31481W        W47290  18.002   9.357  11.439 -0.0226  0.1723 -0.0251
31482W        W47291   8.543  16.282   2.904 -0.1809 -0.0642  0.0632
31483W        W47292   1.954   6.491  12.222 -0.2899  0.1326 -0.2515
31484W        W47293   4.679  17.647   0.078  0.0683  0.1243 -0.0284
31485W        W47294   9.524   0.018  14.340 -0.2038  0.1493 -0.0351
31486W        W47295  17.392   8.130   3.284  0.0801  0.0649  0.1830
31487W        W47296   8.970   5.632   0.751 -0.0961 -0.1840 -0.1907
31488W        W47297  12.964   1.903   3.088 -0.0766  0.1325  0.2503
31489W        W47298  10.034  12.749   9.387 -0.0268  0.0846 -0.0229
31490W        W47299   4.771   7.963   3.076  0.2894 -0.1790 -0.2036
31491W        W47300  18.354   9.403  13.013 -0.0120  0.2510 -0.1939
31492W        W47301   9.098  13.519   2.287 -0.0720 -0.1193 -0.3329
31493W        W47302  13.803   3.215   2.349  0.1547  0.1505 -0.0709
31494W        W47303  15.380   4.300   0.612  0.2626  0.2009  0.1507
31495W        W47304  11.320   4.779  10.257 -0.2471 -0.0331 -0.1029
31496W        W47305  13.034  13.140   1.365 -0.2329 -0.1942 -0.3977
31497W        W47306   4.010   9.418  10.897  0.3013  0.0081  0.1592
31498W        W47307   3.137   8.685   2.804 -0.2926 -0.1111 -0.1098
31499W        W47308  12.441   7.494   4.586  0.1291  0.2780 -0.0513
31500W        W47309   0.749  10.881   0.034  0.1299 -0.2159 -0.0395
31501W        W47310  17.546   9.483   2.800  0.1826  0.0364  0.0003
31502W        W47311   5.560  13.332  10.420 -0.0556  0.4423 -0.0217
31503W        W47312   6.717  16.427  11.732 -0.0142 -0.0531 -0.0578
31504W        W47313  12.802   4.868   2.616  0.1513 -0.4353  0.0309
31505W        W47314  15.789   7.218  11.821  0.1358  0.1038 -0.0926
31506W        W47315   8.898   2.222   4.560  0.0751 -0.0918  0.1124
31507W        W47316  12.734   7.655   6.082  0.0250 -0.1293 -0.0935
31508W        W47317   8.279   0.673  14.753 -0.0454  0.2683  0.1752
31509W        W47318   6.972   5.810  10.536 -0.0696  0.2379 -0.1285
31510W        W47319   7.998  12.591   0.626  0.0502  0.1187 -0.0385
31511W        W47320   4.243  15.028   2.033  0.0233 -0.2507  0.3159
31512W        W47321   0.372   8.254  13.070 -0.0513 -0.0647 -0.4894
31513W        W47322   6.026   7.328  13.491 -0.2477  0.0342 -0.2678
31514W        W47323   9.000   8.798   4.013 -0.0794 -0.0248 -0.0850
31515W        W47324   5.529   2.643  10.799  0.3156  0.4914  0.0798
31516W        W47325  18.429  12.601   4.628  0.2005 -0.1105  0.1793
31517W        W47326   1.330  15.395   4.457 -0.0724  0.1324 -0.1560
31518W        W47327   3.620  14.319   0.161 -0.0389  0.1325  0.2479
31519W        W47328  18.353   9.112  13.523 -0.0683  0.1983 -0.0337
31520W        W47329   0.550   4.076   2.181 -0.2229  0.4624 -0.0875
31521W        W47330   5.601  18.317  13.776 -0.1261  0.2027  0.1741
31522W        W47331  11.183   7.479  14.548 -0.1395 -0.1519  0.2595
31523W        W47332  16.025   6.854  14.077  0.2943  0.2081 -0.1548
31524W        W47333   6.637   1.088  14.607  0.0842  0.1536  0.1098
31525W        W47334   2.186   7.483   0.780  0.0186 -0.0662  0.5711
31526W        W47335   1.238   6.212  10.637  0.1660 -0.0770 -0.0526
31527W        W47336  12.365   8.866   3.398 -0.2367  0.2168 -0.1412
31528W        W47337  14.185   4.623   0.621 -0.1481 -0.1562  0.2082
31529W        W47338  18.113   9.358   0.207  0.2711  0.2019 -0.1724
31530W        W47339   7.043   7.090   3.999 -0.2526  0.0142 -0.1550
31531W        W47340   0.518   2.991  10.519 -0.2524  0.0702  0.0249
31532W        W47341   4.687  18.906   4.383  0.1222 -0.2399  0.0313
31533W        W47342  11.219  14.001   0.720 -0.2552 -0.1569 -0.2141
31534W        W47343   1.697  18.342   0.968  0.0037 -0.3065 -0.1733
31535W        W47344   6.036   3.754   3.017  0.1136  0.0817  0.0609
31536W        W47345  10.696   5.145   1.000 -0.0930 -0.0258 -0.1889
31537W        W47346  18.942   7.123   1.116  0.2979  0.0356 -0.1039
31538W        W47347  13.837  12.650  13.530 -0.0049 -0.0447 -0.1147
31539W        W47348  12.706   0.385   2.243 -0.1033  0.0021  0.0413
31540W        W47349   5.211   6.233   2.416 -0.1539 -0.0754 -0.1455
31541W        W47350  10.428  15.687   3.413 -0.0039 -0.2375 -0.0459
31542W        W47351   3.372  14.149  14.975 -0.1828  0.0746  0.0034
31543W        W47352  11.689   8.556   4.469 -0.0596  0.1081 -0.0572
31544W        W47353   3.992  12.148   1.756  0.2069  0.0072 -0.1212
31545W        W47354  11.773  11.070  10.230  0.1233 -0.1921  0.3461
31546W        W47355   7.157  15.988  14.009 -0.3190  0.1729  0.2141
31547W        W47356  15.030   3.357  11.940 -0.1407 -0.1151 -0.1128
31548W        W47357  18.015  18.242  13.528 -0.2201 -0.1333  0.0738
31549W        W47358  18.005   5.903  11.668  0.1088 -0.1044 -0.0278
31550W        W47359   8.942  16.120   5.045 -0.3369  0.1501  0.3049
31551W        W47360   1.136   3.336   1.774  0.0310  0.0619 -0.2289
31552W        W47361   2.946  13.644   0.752 -0.0218  0.0239  0.0317
31553W        W47362   4.607  13.547  14.090  0.1452 -0.4206  0.2062
31554W        W47363   3.153  10.176   0.636  0.0870  0.4078  0.2713
31555W        W47364   5.822  12.233   1.876 -0.1908 -0.0383  0.2246
31556W        W47365  13.549   6.851  12.023 -0.1236  0.2444 -0.2066
31557W        W47366  18.267   9.747   1.104  0.1339 -0.0109  0.4023
31558W        W47367  18.053  17.409   2.051 -0.1815 -0.3042  0.1483
31559W        W47368   3.104  15.052   1.343 -0.2380 -0.2776  0.0321
31560W        W47369  16.893  15.169  12.340  0.2402 -0.3417 -0.1922
31561W        W47370  12.752  10.538  11.495  0.1630  0.0280 -0.1073
31562W        W47371  11.473   8.413  11.585 -0.0341 -0.1389  0.3232
31563W        W47372   0.848   2.220  12.698 -0.1436 -0.2721  0.3541
31564W        W47373  11.373   1.271   0.772  0.0222 -0.0022  0.0281
31565W        W47374  10.783  18.921  12.889  0.0205 -0.2632  0.2290
31566W        W47375   7.263   0.567  12.275 -0.3690  0.0490  0.3262
31567W        W47376  17.136  15.768   1.479 -0.1683 -0.0355 -0.2688
31568W        W47377   2.396  15.023  10.417 -0.0219 -0.2327  0.0141
31569W        W47378   9.031  12.282   3.436 -0.1532  0.1224  0.1739
31570W        W47379  11.750  14.305   5.343  0.2180 -0.2654  0.1793
31571W        W47380  11.763  16.278   4.227  0.2129  0.1940  0.1186
31572W        W47381   3.648  10.258  11.248  0.0306 -0.0255  0.1988
31573W        W47382   0.260  10.013   1.198  0.2290 -0.1663  0.1852
31574W        W47383   7.926   5.408  15.157 -0.0154  0.0569 -0.1285
31575W        W47384  10.771  11.465  13.143  0.0241  0.1884  0.0773
31576W        W47385  10.279   6.103   5.223 -0.0177 -0.0426 -0.2047
31577W        W47386   8.015   0.039   2.112  0.2819 -0.1216  0.3255
31578W        W47387   1.562  17.234  11.254  0.1363  0.3105  0.1394
31579W        W47388   1.581   0.868   3.187 -0.0411 -0.0498 -0.0393
31580W        W47389   5.219  12.472  11.239 -0.0005 -0.0302 -0.0218
31581W        W47390   6.892  16.094   1.383 -0.1150  0.0651 -0.1073
31582W        W47391  17.639   7.364  15.269  0.1963  0.1546  0.1913
31583W        W47392   2.249  15.098  13.154  0.1121 -0.3242  0.1421
31584W        W47393  16.914   3.154   5.288 -0.3837  0.0833 -0.2244
31585W        W47394   4.575   9.256   9.342 -0.0571  0.0712  0.0888
31586W        W47395   2.454   5.317  15.226 -0.4143  0.0147  0.1590
31587W        W47396   5.996   0.763   1.292 -0.2176 -0.1380 -0.0769
31588W        W47397   1.853  11.781  10.153  0.0253 -0.1645 -0.2315
31589W        W47398   7.311  13.844   2.802  0.1417 -0.3540  0.0311
31590W        W47399  13.404   2.029  10.295  0.2283  0.2121 -0.0168
31591W        W47400  11.562  13.679   4.726  0.0444 -0.0796 -0.1522
31592W        W47401  10.386   6.651   5.028  0.4877 -0.0991 -0.0832
31593W        W47402   1.470  11.320  14.525  0.0431  0.0416 -0.1463
31594W        W47403  14.761  15.661   1.139  0.2158 -0.0040 -0.0170
31595W        W47404   5.140  13.560   3.259  0.2120 -0.0150 -0.0203
31596W        W47405  12.573  15.827  13.246 -0.1629 -0.0454 -0.1967
31597W        W47406   4.296   6.766   0.851  0.0248 -0.0270  0.2800
31598W        W47407   8.785   5.920  13.220  0.3314 -0.0851 -0.1918
31599W        W47408  18.843  12.012  11.784  0.0578 -0.3496 -0.2720
31600W        W47409   5.547   6.287  14.046 -0.1839 -0.2186 -0.0561
31601W        W47410  18.686  10.131  11.583  0.2257 -0.0726  0.4153
31602W        W47411   3.631  10.945   0.242 -0.1201 -0.0554  0.0137
31603W        W47412   2.522  12.125  12.767 -0.0927  0.3382  0.0994
31604W        W47413  15.844   2.924   6.308 -0.3375  0.2340 -0.2702
31605W        W47414  16.493  16.700   0.824 -0.0818  0.3619  0.1775
31606W        W47415   6.592  13.691  12.332 -0.0285 -0.2914  0.2019
31607W        W47416   0.872  17.365  11.942  0.1989 -0.0539  0.3059
31608W        W47417  14.440   5.288   1.865  0.0881  0.1390 -0.0809
31609W        W47418   8.882   7.227   4.085 -0.0205  0.1417  0.1768
31610W        W47419  12.171   6.312  14.643 -0.2369 -0.1187 -0.1912
31611W        W47420  17.246  12.488   2.578  0.0128  0.2567 -0.1508
31612W        W47421   5.852   6.636   1.751 -0.3783 -0.0720 -0.0993
31613W        W47422   8.878  11.073   9.769  0.3997  0.0649  0.1280
31614W        W47423   1.396  18.073  12.092  0.2063 -0.1066 -0.0948
31615W        W47424  16.638   9.569  14.434 -0.0282 -0.1309 -0.0825
31616W        W47425  18.652  16.597   2.054  0.0174  0.3757 -0.1916
31617W        W47426   5.062   3.671   4.132 -0.3878 -0.0279  0.0301
31618W        W47427   1.764  12.112   4.220 -0.1890 -0.0152  0.0223
31619W        W47428   6.386  18.900  10.872 -0.0261 -0.1826  0.1396
31620W        W47429  17.137  15.621   3.642  0.0291 -0.1753  0.2524
31621W        W47430   8.661   4.396   4.519  0.3435 -0.1943 -0.0449
31622W        W47431   5.055  14.570   0.773  0.0964 -0.4229 -0.1076
31623W        W47432   4.631   5.224  14.177 -0.3132  0.0519 -0.0774
31624W        W47433   4.609   3.797  11.052 -0.0229  0.2312  0.1646
31625W        W47434   6.445   9.377   1.345  0.1571  0.1688 -0.1135
31626W        W47435  17.545   2.700  14.990  0.1675  0.0654 -0.2870
31627W        W47436  13.092   1.243  14.822  0.0356 -0.1421 -0.0843
31628W        W47437  17.525   3.339   2.956 -0.0419 -0.2190  0.0311
31629W        W47438  10.141   5.034   3.349 -0.1553 -0.2379 -0.0710
31630W        W47439   3.264   4.703   1.756 -0.0019  0.0712 -0.0888
31631W        W47440   5.838   6.019   4.748  0.1803  0.1007 -0.2962
31632W        W47441  16.164   6.816  14.623  0.1183 -0.1379 -0.0740
31633W        W47442   4.657  19.019  10.849 -0.1031 -0.2793 -0.2956
31634W        W47443  16.802  11.636  14.580 -0.2212  0.0971  0.2275
31635W        W47444  17.369  12.845  11.150 -0.1408  0.3765 -0.1688
31636W        W47445  12.581   5.182  13.449  0.0592 -0.2487 -0.1809
31637W        W47446   3.715   0.947  14.492 -0.1523  0.0849  0.0678
31638W        W47447   0.756   2.530   0.122 -0.2249 -0.1326  0.0460
31639W        W47448   2.186   3.583  11.223  0.1202  0.1936 -0.4068
31640W        W47449   0.740  16.999  11.655  0.0948  0.1939  0.1845
31641W        W47450  14.259   6.136  13.214  0.4182 -0.1884 -0.0093
31642W        W47451   0.911   6.714   1.935 -0.2441 -0.0002  0.2243
31643W        W47452   5.123  14.149  11.685  0.0072  0.1132 -0.0462
31644W        W47453  13.328  15.676   4.524 -0.1280  0.0160  0.0563
31645W        W47454   6.818   8.134   0.106  0.0766  0.1223 -0.2860
31646W        W47455   1.007  10.574   0.806 -0.1648  0.1205 -0.0135
31647W        W47456  11.860  12.166   3.664  0.2636 -0.1000  0.2295
31648W        W47457   1.965  16.672   3.257  0.1839 -0.1084  0.1402
31649W        W47458   0.320   2.645   4.642  0.1261  0.1328 -0.0598
31650W        W47459   6.877   7.798   2.142 -0.2859  0.1608  0.0401
31651W        W47460  16.597  10.049   5.329  0.0964  0.0939 -0.1280
31652W        W47461   9.374   7.528  14.351 -0.3034 -0.2138 -0.1985
31653W        W47462   9.716  16.380  11.617 -0.0511  0.1343 -0.3307
31654W        W47463   5.158   1.807   1.973  0.1647 -0.0466  0.0479
31655W        W47464   8.742  17.287   0.039 -0.2768  0.1472 -0.0472
31656W        W47465  12.291  16.877   0.749 -0.1271  0.2360 -0.2164
31657W        W47466   7.425   5.302  10.702  0.0863  0.2506  0.0944
31658W        W47467  12.220   0.434   3.075 -0.2316  0.1037 -0.3918
31659W        W47468  16.292  10.761   1.189  0.0525  0.0091  0.3025
31660W        W47469  14.966   4.047   0.870  0.2779 -0.2238 -0.1019
31661W        W47470  16.833   1.889   1.070 -0.3251 -0.2316  0.0615
31662W        W47471   3.819   3.533  13.013  0.0179  0.0982  0.0361
31663W        W47472  12.517   1.921  13.233  0.0136 -0.0835 -0.0026
31664W        W47473   8.473  11.363  10.552  0.1469 -0.1568 -0.0052
31665W        W47474   5.124   4.823  14.926 -0.2206  0.0119  0.4989
31666W        W47475   5.219   6.868  10.186  0.1058 -0.0309 -0.1547
31667W        W47476  13.020   2.878   2.068  0.1883 -0.5755  0.1908
31668W        W47477   4.960   2.245   1.082 -0.1510 -0.1275  0.1257
31669W        W47478   8.430  15.877   4.741 -0.2030  0.2766 -0.3404
31670W        W47479   4.495  17.406  13.333 -0.0522 -0.3753 -0.0160
31671W        W47480   5.468  17.929  10.524 -0.2072  0.0312  0.1001
31672W        W47481  14.511  17.648  11.384 -0.1131 -0.3056 -0.0421
31673W        W47482   5.124   2.095   3.959  0.0441  0.2029 -0.1068
31674W        W47483   7.547   3.222   3.035  0.0215 -0.0371  0.0994
31675W        W47484   2.504   0.950   0.126 -0.3123 -0.2088  0.2497
31676W        W47485  11.289  16.683   2.121  0.2849  0.0157  0.0633
31677W        W47486   2.363  12.824   4.599 -0.2556 -0.0895  0.1140
31678W        W47487  11.246  17.071  12.159  0.5272 -0.0821  0.1983
31679W        W47488  11.401   0.653   4.335  0.3583 -0.2307 -0.1894
31680W        W47489  13.453  12.311  12.550  0.1530 -0.2701 -0.1273
31681W        W47490   9.760  14.387   1.717  0.1905 -0.4115  0.1878
31682W        W47491  10.804  13.432  12.030 -0.1860 -0.1293 -0.2902
31683W        W47492   5.238   5.008   3.524  0.0686 -0.1521 -0.0735
31684W        W47493   2.748   4.319  12.509  0.1267  0.1175  0.0318
31685W        W47494   3.675   9.804   3.290  0.0933  0.0590  0.3679
31686W        W47495   8.260   3.208   2.022  0.1089 -0.0202 -0.2330
31687W        W47496   0.947   6.237   5.159  0.0188  0.1486  0.1285
31688W        W47497   0.285  18.410  12.721  0.0043  0.4539  0.2174
31689W        W47498   4.294   6.817   3.852 -0.2112 -0.0623 -0.1217
31690W        W47499  18.803   9.995   3.567  0.1700 -0.3849 -0.0354
31691W        W47500   7.097   5.504   5.088 -0.1290 -0.1688  0.1044
31692W        W47501  15.243   3.304   0.697  0.3596 -0.3134  0.0878
31693W        W47502  15.728   9.126   4.145  0.2057 -0.0473 -0.1407
31694W        W47503   5.437  14.736  12.284 -0.0002 -0.0317 -0.1196
31695W        W47504   8.787   9.648  10.548 -0.1668  0.2468  0.0077
31696W        W47505   2.896   5.908  11.421 -0.1161 -0.2467  0.0286
31697W        W47506   4.319   2.167  11.823 -0.2036 -0.3388 -0.2078
31698W        W47507  11.893  12.931   4.950  0.0953 -0.2210  0.0832
31699W        W47508   8.827   0.640   3.979  0.2698  0.0395 -0.1174
31700W        W47509  17.023  14.999   3.476  0.0384  0.4018  0.1807
31701W        W47510  17.525  11.142   2.169 -0.0703 -0.1379  0.2015
31702W        W47511   2.357   2.637   0.172 -0.0958  0.2739 -0.2861
31703W        W47512  10.706   0.531   3.651  0.1638 -0.3032  0.1845
31704W        W47513   6.625  18.327  12.243 -0.0937 -0.1426  0.1571
31705W        W47514   6.683   2.372  10.011  0.0983  0.0158 -0.3266
31706W        W47515   7.966  13.757  10.389 -0.3209 -0.3388 -0.1422
31707W        W47516   4.470  13.873   1.634  0.0247 -0.2254 -0.3787
31708W        W47517  15.205   7.257   2.906  0.5986 -0.2454 -0.2159
31709W        W47518  12.130  16.320   2.793  0.1661 -0.2726  0.0605
31710W        W47519   1.553  17.666   1.809 -0.1109  0.0446 -0.0576
31711W        W47520   0.981  10.489   3.558  0.0888  0.0931  0.0416
31712W        W47521  14.884   1.812   3.953 -0.1772 -0.1895  0.3570
31713W        W47522   4.800   5.595   4.136  0.0026  0.2693 -0.2636
31714W        W47523   3.591   1.882  12.723 -0.1536  0.2754 -0.1136
31715W        W47524   0.625  10.843   4.228 -0.2544  0.0307  0.0132
31716W        W47525  18.911   1.827   3.052  0.1172  0.1377  0.1279
31717W        W47526  18.765  13.262   4.348 -0.0074 -0.1582 -0.0726
31718W        W47527  15.552   4.185  11.327 -0.1672  0.3514 -0.0381
31719W        W47528   2.184   9.923  10.278 -0.2293  0.1909  0.2223
31720W        W47529   6.191  12.933  13.248 -0.0170 -0.5011 -0.2798
31721W        W47530   2.770   1.322   2.858 -0.1997 -0.4188  0.0202
31722W        W47531  15.594  12.624   2.274 -0.3957  0.0420 -0.1930
31723W        W47532   3.212  18.273   3.799 -0.0163  0.1167  0.1649
31724W        W47533   8.593   6.134   1.908  0.1215  0.2223 -0.5311
31725W        W47534  12.745   3.236   3.779 -0.0657 -0.0286 -0.2463
31726W        W47535   0.498   1.560  14.683 -0.0450 -0.0013 -0.3312
31727W        W47536   3.938   0.778   2.961  0.3695  0.0143  0.3019
31728W        W47537  14.849   0.830  11.100  0.4536  0.0488  0.0150
31729W        W47538  17.870  13.302  11.251  0.1290  0.1783 -0.1821
31730W        W47539   6.957  17.611   2.786  0.1204  0.0119  0.1338
31731W        W47540  13.184   7.376  11.048  0.1552  0.0105 -0.0275
31732W        W47541   2.550   1.169   1.763 -0.0910  0.1639 -0.0221
31733W        W47542   7.191   1.398   1.937 -0.1693  0.0785  0.1494
31734W        W47543   9.502  13.995  14.580 -0.0071 -0.0437 -0.0476
31735W        W47544  13.003   0.724   3.596  0.0549  0.1409  0.2851
31736W        W47545  12.475   4.276  15.002  0.0554  0.2973 -0.1091
31737W        W47546  15.387  10.386   3.113  0.0207  0.0877  0.0346
31738W        W47547  14.270   3.146  12.518  0.2273  0.1307  0.0348
31739W        W47548   3.069  10.886  14.813 -0.1011 -0.1358  0.5455
31740W        W47549   1.332   7.101   5.032 -0.1269 -0.2927  0.0262
31741W        W47550   8.241   4.352   1.244  0.0227 -0.0030 -0.2431
31742W        W47551   1.140  10.327   1.678  0.1132  0.1559  0.3378
31743W        W47552   4.011  18.168  11.859 -0.2120 -0.0379  0.3385
31744W        W47553  17.827   4.981   1.299 -0.0411 -0.1169 -0.0763
31745W        W47554  15.427  16.395  14.591 -0.0710 -0.0572  0.1251
31746W        W47555  12.769   6.563  11.399  0.1031  0.0756  0.0222
31747W        W47556   7.376  14.009  12.953  0.2418  0.1129  0.0396
31748W        W47557  12.330   0.596  11.242  0.1185 -0.3018  0.1510
31749W        W47558  12.847   2.490  12.194  0.0073 -0.2867 -0.0229
31750W        W47559  18.513  14.765   2.353 -0.6068  0.0512  0.2421
31751W        W47560   0.698  16.869  13.323 -0.0062  0.1135  0.0706
31752W        W47561   2.156   9.982   2.678 -0.0010  0.1893  0.1560
31753W        W47562  17.588  13.069   5.698  0.0010  0.0824 -0.0286
31754W        W47563  15.644   5.019  14.612  0.1293 -0.0065 -0.1415
31755W        W47564   7.937   4.707   2.741 -0.1600  0.1150  0.3399
31756W        W47565   7.031  18.928   0.684 -0.0803  0.0528 -0.0660
31757W        W47566  16.478   1.075  11.387  0.0230 -0.1435 -0.0760
31758W        W47567   2.567  17.615  11.937  0.1757 -0.1325  0.1441
31759W        W47568  10.408  11.937   3.971 -0.0986 -0.5205 -0.0086
31760W        W47569  16.121  11.842   1.993 -0.2302 -0.0472 -0.1837
31761W        W47570  18.136  15.949  10.897  0.0016  0.0661  0.2381
31762W        W47571  15.155   1.133  12.020 -0.1471 -0.3337  0.3192
31763W        W47572   5.878  14.460  14.328  0.2291  0.0289 -0.0245
31764W        W47573  12.492   2.441  15.143  0.1349 -0.1009  0.1186
31765W        W47574  11.805  15.301  14.241 -0.1268 -0.0059  0.1634
31766W        W47575   7.023   4.403  13.372 -0.0866  0.0318  0.4497
31767W        W47576   0.904  15.493  13.957  0.4113  0.1696 -0.1724
31768W        W47577   9.542   4.915   2.731 -0.1199 -0.2149 -0.2312
31769W        W47578   6.874  15.894   2.848 -0.0602 -0.1338  0.0844
31770W        W47579   1.710  17.408  12.766 -0.1396 -0.0691  0.2371
31771W        W47580  17.918   1.661   0.356  0.1774  0.0897 -0.3698
31772W        W47581  16.015   2.005   2.533  0.1963 -0.1627  0.0019
31773W        W47582  11.215   9.519  14.098 -0.0228  0.1218 -0.1253
31774W        W47583   4.477   3.440   5.823  0.1598 -0.2177 -0.2449
31775W        W47584   5.903   1.004   4.021  0.0794  0.0002  0.0047
31776W        W47585  16.470  18.519  11.861 -0.0695  0.1395 -0.2548
31777W        W47586   3.708  17.824   0.263  0.1558 -0.1307 -0.0764
31778W        W47587  16.028   3.126  12.542 -0.1071  0.4137  0.0842
31779W        W47588  12.041  14.025   0.443  0.1189 -0.0837  0.0657
31780W        W47589  10.888  16.865   5.232 -0.0325  0.0447  0.1025
31781W        W47590  13.444   9.164  15.182  0.2747  0.4325 -0.1196
31782W        W47591   7.218   9.015   3.076 -0.2516  0.1184 -0.2404
31783W        W47592   9.768  10.841  13.664 -0.3632  0.3144 -0.0729
31784W        W47593   4.069   6.204   4.480  0.1727  0.0781  0.2249
31785W        W47594  13.885  14.015   4.020 -0.1008 -0.0631 -0.2051
31786W        W47595   8.044  10.175  14.617  0.4786 -0.0221 -0.0673
31787W        W47596  11.515   7.463   4.673 -0.0206 -0.1653  0.0498
31788W        W47597  17.981  15.386   2.351 -0.1125  0.0391  0.1177
31789W        W47598  15.770   2.945  13.477  0.2196 -0.2104 -0.0628
31790W        W47599  12.218  11.949   3.360 -0.0537 -0.1865 -0.1299
31791W        W47600  10.225  11.520   3.037 -0.0205  0.0540 -0.1754
31792W        W47601  12.566   8.231   0.482 -0.0064  0.2569 -0.1097
31793W        W47602   6.345   0.543  14.301 -0.2219 -0.3994 -0.0595
31794W        W47603   4.220   5.246  14.548 -0.1054 -0.2913 -0.0990
31795W        W47604  13.538  14.340  12.123  0.0537 -0.0822  0.0133
31796W        W47605   2.678  17.151   0.411 -0.1709  0.0469  0.1495
31797W        W47606  16.931   3.550   0.588  0.3772 -0.1550 -0.0815
31798W        W47607   1.728  11.961   1.971 -0.0917 -0.1513 -0.0868
31799W        W47608   2.461   3.031  13.096  0.2996  0.1086  0.5112
31800W        W47609   2.024   7.107   8.795 -0.0952  0.1358  0.0522
31801W        W47610   1.610  14.846   1.176  0.0460  0.3854 -0.2318
31802W        W47611  16.694  15.373   0.962  0.1037  0.0881 -0.1256
31803W        W47612   6.731  11.480  10.246 -0.0993  0.0835 -0.2008
31804W        W47613  13.518  10.308   0.173 -0.1596  0.1748 -0.1295
31805W        W47614  13.690   6.904   0.746  0.0698  0.1690  0.2793
31806W        W47615   1.998  10.760   0.501 -0.0137 -0.0134  0.2390
31807W        W47616  18.712  11.420   0.929  0.0054 -0.1526  0.4459
31808W        W47617   3.511   0.163  13.263 -0.0122  0.1263 -0.2889
31809W        W47618  17.926  11.734   4.781  0.1377 -0.1016 -0.3488
31810W        W47619  11.385   5.606  13.494  0.2339  0.0083 -0.0607
31811W        W47620  15.811   7.183  12.408  0.1008  0.0635 -0.0682
31812W        W47621   1.015  13.070   3.638  0.1138  0.0173 -0.0292
31813W        W47622   0.308   4.078   1.646 -0.0565 -0.1231  0.1384
31814W        W47623  15.061  17.679   5.410  0.3305 -0.1680 -0.1049
31815W        W47624  18.257   1.753  11.597 -0.0863  0.2333  0.2364
31816W        W47625  15.798   0.280  13.982  0.1456 -0.0507 -0.0726
31817W        W47626   4.845  11.338   2.233  0.4181 -0.1897 -0.0364
31818W        W47627  17.013  18.866   3.487 -0.0531  0.0258 -0.0402
31819W        W47628   7.888  14.470   0.142 -0.1591 -0.0525 -0.3208
31820W        W47629   7.261   8.228  12.196  0.0412 -0.1089 -0.0797
31821W        W47630  17.875   9.975   1.744 -0.0569  0.0599 -0.0884
31822W        W47631  14.325   5.763   1.894  0.1894 -0.0492 -0.2533
31823W        W47632   3.946   0.486  12.335  0.1487  0.2346 -0.0910
31824W        W47633   3.458   9.579  14.773 -0.1091 -0.0687  0.3375
31825W        W47634  17.936  10.371   1.041  0.1677  0.0286 -0.1526
31826W        W47635   3.340  18.778  10.917  0.1026  0.2612 -0.3066
31827W        W47636   6.333   3.120  13.758 -0.1057 -0.2340  0.0169
31828W        W47637  16.926  12.882   0.702  0.4068  0.1323 -0.0549
31829W        W47638   0.599   5.898  13.596 -0.0019 -0.0157 -0.1449
31830W        W47639  12.379   1.358   1.918 -0.0423 -0.1916 -0.1279
31831W        W47640  15.027  11.142   1.746  0.1819  0.1771 -0.2436
31832W        W47641   0.603   1.688   2.202  0.1739 -0.0428 -0.2124
31833W        W47642   7.889  13.201  13.866  0.3202 -0.1730  0.0150
31834W        W47643   2.295  13.076   5.658  0.0540 -0.3401  0.0627
31835W        W47644  19.029   0.240   2.366  0.2195  0.3302 -0.0208
31836W        W47645   6.879   0.803   1.772 -0.3068  0.2423  0.0967
31837W        W47646  12.620  10.144   5.036  0.1622 -0.2911 -0.1796
31838W        W47647  14.237   9.908  14.619  0.0725  0.1620 -0.1631
31839W        W47648  10.640  10.811   3.793  0.0430 -0.1824  0.1136
31840W        W47649   9.392   5.402  14.362 -0.1083 -0.4258 -0.0878
31841W        W47650  11.199   4.206  13.492  0.3563 -0.4233  0.1155
31842W        W47651  14.677   1.266   3.122 -0.2293 -0.0348  0.5189
31843W        W47652  15.810   4.702  12.615  0.4258  0.1264 -0.0315
31844W        W47653  17.884  11.398  13.701 -0.0874 -0.1280  0.0169
31845W        W47654   8.085   7.875  12.149 -0.3175  0.1741 -0.1726
31846W        W47655   8.314  10.328   1.103 -0.0966  0.3284 -0.0466
31847W        W47656  10.179   1.634  13.823  0.1365  0.3723  0.0207
31848W        W47657   3.916   0.017  14.819  0.0088 -0.0519  0.3406
31849W        W47658   5.185  14.064  14.717 -0.1274 -0.2033  0.2085
31850W        W47659   2.176  15.547  12.549 -0.0722  0.0291 -0.2069
31851W        W47660   0.431  14.249  13.066  0.2692  0.2024 -0.0564
31852W        W47661  17.844  17.875  14.827 -0.1207  0.0502 -0.2620
31853W        W47662   5.968  15.153   3.567  0.0081  0.2219  0.0548
31854W        W47663  17.063   7.171  14.856 -0.1446  0.0378  0.1342
31855W        W47664  18.417  14.462  13.990 -0.2468 -0.0109  0.0838
31856W        W47665  17.563  16.587  11.822 -0.1275 -0.0853  0.1676
31857W        W47666  11.913  10.084   1.266  0.0155  0.2093  0.1700
31858W        W47667  16.368   9.881   2.382  0.0115  0.0895  0.5067
31859W        W47668  18.558   6.293   0.955 -0.2253  0.1331  0.0636
31860W        W47669   2.464  14.674  12.350 -0.0537 -0.0698 -0.0202
31861W        W47670   9.416  17.543  10.908  0.0515  0.4171  0.0591
31862W        W47671  15.876  16.350   2.318 -0.3115  0.0277 -0.3160
31863W        W47672  14.836   7.418  12.694  0.0049 -0.2592  0.3212
31864W        W47673   7.118  11.373  10.957  0.0507 -0.0511 -0.1511
31865W        W47674   7.448  18.711   1.833 -0.1939 -0.1418  0.0231
31866W        W47675   0.508  16.494  12.395  0.0418  0.0295 -0.0271
31867W        W47676   4.383   6.937   0.320 -0.2435  0.1746 -0.3202
31868W        W47677  10.526  15.707   5.032  0.2078  0.0258  0.0640
31869W        W47678  18.977   9.316  15.244  0.1173  0.0789  0.3114
31870W        W47679   6.752   3.483   3.828  0.1562  0.3870  0.1481
31871W        W47680   4.875   0.113  10.390  0.1569 -0.1039  0.1274
31872W        W47681   9.631   8.655  10.151 -0.0475  0.5066  0.0530
31873W        W47682   1.680  10.611   3.096 -0.0087  0.1665 -0.1349
31874W        W47683   3.627  16.454   0.764 -0.0233  0.1551 -0.0382
31875W        W47684   6.216   1.049   0.462 -0.0447 -0.3741 -0.0654
31876W        W47685   8.352   8.339   5.202 -0.0277 -0.1332 -0.3287
31877W        W47686   9.143   8.344  14.786  0.0849  0.2771  0.1189
31878W        W47687   6.217  11.485  10.582  0.2057 -0.1576  0.0007
31879W        W47688   7.683  15.805  15.194  0.0570 -0.2053  0.1190
31880W        W47689   5.609   5.725   4.431  0.0641 -0.2591  0.0364
31881W        W47690  18.541   5.279   2.009  0.3264 -0.0364 -0.1277
31882W        W47691   7.382  12.907   2.180 -0.0820  0.1990 -0.0858
31883W        W47692  18.487  16.294   2.455  0.2918  0.3333  0.0894
31884W        W47693  15.043   4.947   1.308 -0.3318  0.2241  0.1350
31885W        W47694   1.614  17.470  13.307  0.2307  0.4778  0.1260
31886W        W47695   9.194   5.171   2.279  0.0272 -0.2186  0.0138
31887W        W47696  13.570   9.249   5.113  0.0053  0.1384 -0.0235
31888W        W47697  14.624   4.001  14.135  0.0848  0.0583  0.1337
31889W        W47698   8.314  12.583  14.554 -0.0896 -0.1563  0.0398
31890W        W47699  11.884  11.477   5.360  0.4738  0.0963  0.2476
31891W        W47700   8.116  18.910   3.080 -0.3022  0.1251  0.0851
31892W        W47701  16.327   8.051  14.860 -0.0587 -0.0696 -0.0597
31893W        W47702   9.096   8.193  12.976  0.0193 -0.1015  0.0006
31894W        W47703   7.944   5.897   4.692 -0.0040 -0.2468  0.0671
31895W        W47704   0.278  10.937   5.307 -0.1892 -0.0991  0.0158
31896W        W47705  13.651  16.051   4.597  0.2308 -0.2358 -0.2852
31897W        W47706   9.617  14.091   3.546  0.0653  0.1946 -0.1203
31898W        W47707  13.401   9.990  10.414  0.2629 -0.1661 -0.2071
31899W        W47708  13.305  10.249  11.006  0.0796  0.2697 -0.1870
31900W        W47709  10.885   7.291  14.884 -0.1516 -0.1525 -0.0650
31901W        W47710  15.779   9.674   1.505 -0.0919 -0.0043 -0.0226
31902W        W47711  18.219   4.079   1.786  0.1488 -0.0793 -0.1064
31903W        W47712  11.279   1.884   3.210 -0.0535  0.1699  0.0429
31904W        W47713   0.666   0.906  12.838  0.1555 -0.3720  0.1681
31905W        W47714  10.747   4.722   1.709  0.2658  0.1673  0.0433
31906W        W47715   2.207   2.599   2.062  0.2363 -0.0693  0.2374
31907W        W47716  18.561  16.363   5.229  0.1126 -0.2144 -0.1222
31908W        W47717  15.823   4.443   1.482  0.1004 -0.0625 -0.4127
31909W        W47718  10.303  13.727   0.016  0.3375  0.1180 -0.0678
31910W        W47719   5.516  17.616   4.775 -0.0244  0.0433 -0.0025
31911W        W47720  17.660  15.410  12.875 -0.2712 -0.1001  0.1118
31912W        W47721  10.249  10.288  14.261 -0.1924 -0.1558  0.0453
31913W        W47722  18.644  18.706  11.951  0.1502  0.0637  0.2800
31914W        W47723  14.382   6.970  10.199  0.2609 -0.1028 -0.3527
31915W        W47724  14.812  17.402   1.714  0.2005  0.3992 -0.1418
31916W        W47725   1.732  15.713   0.765  0.2379  0.0727 -0.2406
31917W        W47726   5.960  13.968   2.916 -0.2110 -0.3892  0.0840
31918W        W47727   6.401   6.013   2.232  0.2389  0.2941 -0.1496
31919W        W47728  18.390  12.684   0.145 -0.2163  0.0737  0.1166
31920W        W47729   4.920   4.961  12.579 -0.3200  0.1182 -0.3164
31921W        W47730   0.938   9.305   3.841  0.2971  0.1199 -0.2595
31922W        W47731  15.926  11.635  11.418  0.2259  0.1919 -0.2088
31923W        W47732  11.660  18.773  12.920 -0.2625  0.1663 -0.2538
31924W        W47733  18.935  17.097  11.293 -0.2740 -0.1852 -0.1538
31925W        W47734   4.842  12.691  11.559 -0.3061  0.0953 -0.0025
31926W        W47735  16.703   9.720   2.838  0.0496 -0.3796  0.1326
31927W        W47736   7.693  12.190   2.317 -0.1324 -0.0397  0.0767
31928W        W47737  10.800  13.349  11.489  0.0142  0.2444  0.2830
31929W        W47738   0.648  17.728   1.813 -0.0855  0.0922  0.0790
31930W        W47739  18.064  12.084  12.146 -0.2083  0.3149 -0.2907
31931W        W47740   1.010   2.712   5.247 -0.3886 -0.0214 -0.0775
31932W        W47741   1.847  11.218   4.087 -0.1952  0.1988 -0.1032
31933W        W47742  17.645  11.579   4.403  0.0724  0.1500 -0.0048
31934W        W47743  14.409   2.006  11.052 -0.1719 -0.1117  0.0130
31935W        W47744  10.456  13.625  10.991 -0.1122 -0.0746  0.2306
31936W        W47745  14.657  14.379  10.414 -0.2667  0.2908  0.2277
31937W        W47746  10.458   7.464  11.879 -0.0545 -0.4176 -0.0573
31938W        W47747  17.153  16.465   3.981  0.0794 -0.3573 -0.0108
31939W        W47748  14.601  18.443  14.985  0.2592 -0.0232 -0.2988
31940W        W47749   0.830  13.766  11.883  0.0265 -0.3745 -0.1631
31941W        W47750   3.459  16.099   4.971  0.1612  0.0479 -0.2554
31942W        W47751   2.888   1.801  13.882 -0.1965 -0.0330 -0.0500
31943W        W47752   8.626  14.772  13.290 -0.0785 -0.6123 -0.3441
31944W        W47753   8.146   1.583   1.860 -0.0395  0.0801  0.0186
31945W        W47754  17.258  15.906  13.999  0.4298  0.1876 -0.0251
31946W        W47755   9.041  13.573   4.060 -0.1883  0.2625  0.1265
31947W        W47756   2.932   8.641   1.930  0.0733 -0.1308 -0.1628
31948W        W47757  18.865  13.656   1.508 -0.0343 -0.4307  0.3549
31949W        W47758   4.093  16.890   1.430 -0.0402 -0.0504  0.1350
31950W        W47759   2.746  17.750  14.304  0.1197 -0.2342 -0.1025
31951W        W47760  18.338  17.188   4.480  0.2729 -0.1048 -0.0158
31952W        W47761   9.316  17.706  10.462  0.1507  0.1031  0.4104
31953W        W47762   3.530  18.278  12.082 -0.2614  0.0863  0.0141
31954W        W47763  17.581   1.730   1.481 -0.1440 -0.0491  0.5122
31955W        W47764   8.557   4.138  12.791  0.1781  0.0585 -0.3437
31956W        W47765  12.240   7.841   4.902 -0.0937 -0.1932 -0.1878
31957W        W47766   9.399   6.514   9.955 -0.0661 -0.0616  0.0775
31958W        W47767   6.474  14.260   1.326  0.0143 -0.2004 -0.0771
31959W        W47768  12.028  14.458  14.478 -0.0627 -0.3947 -0.2236
31960W        W47769  12.539   9.214  14.275 -0.1629  0.0514 -0.1560
31961W        W47770  15.364  15.914  11.865  0.1763 -0.1620 -0.1125
31962W        W47771  16.327  16.310   3.428  0.0576 -0.1338 -0.0843
31963W        W47772   6.478   0.921   2.602 -0.0521  0.0835  0.1324
31964W        W47773   9.390   4.754  11.906  0.0728  0.1943 -0.4100
31965W        W47774  10.050   9.690  10.444  0.2111 -0.0495  0.1675
31966W        W47775  17.182   4.138  10.671 -0.2969 -0.2097 -0.0040
31967W        W47776  12.992  17.067  11.735  0.0218  0.0663 -0.1560
31968W        W47777   2.217   4.121  11.064  0.0441  0.2954  0.1868
31969W        W47778  12.604  10.102   3.253 -0.0247  0.1324 -0.2665
31970W        W47779  17.690   7.658   3.196  0.0659  0.0040 -0.0465
31971W        W47780  17.700  19.036  14.624 -0.0926 -0.2516  0.0771
31972W        W47781  12.574   5.732  10.327 -0.0351 -0.0137  0.0934
31973W        W47782  18.435   1.765   2.814 -0.2277  0.3936  0.0449
31974W        W47783   9.869  16.513  12.372  0.0015 -0.0102 -0.5217
31975W        W47784  15.833  18.539  13.418 -0.2709 -0.1366 -0.1412
31976W        W47785   2.204   3.668   3.048 -0.0227 -0.3929  0.0187
31977W        W47786   0.212  10.854  10.728 -0.0756  0.0359  0.3065
31978W        W47787  11.469  14.179  11.133  0.1517  0.0029 -0.0807
31979W        W47788  16.322  10.866   3.977  0.0217 -0.0985 -0.0623
31980W        W47789   4.377   5.028   3.591 -0.1594 -0.5024  0.1264
31981W        W47790  14.951  15.918   0.705  0.3112 -0.1015  0.0451
31982W        W47791  13.593   7.896   0.237  0.2427 -0.0054  0.2374
31983W        W47792   0.692   1.538   9.653  0.0833  0.0574  0.0627
31984W        W47793  18.906  15.021  15.228  0.0622 -0.0555 -0.2583
31985W        W47794  14.439  13.206  14.981 -0.0370 -0.1055 -0.0084
31986W        W47795   8.056  14.070  13.555 -0.0580 -0.4110 -0.0938
31987W        W47796  11.422  10.997   4.891  0.1313  0.2360 -0.0246
31988W        W47797   9.713   3.385   4.246 -0.0045  0.0677  0.0867
31989W        W47798   0.785   1.943   5.188 -0.0321 -0.0237  0.3145
31990W        W47799  13.625   0.768   0.379  0.0143  0.4805 -0.3662
31991W        W47800  11.756   9.981   0.176  0.0619 -0.1146 -0.1326
31992W        W47801   4.332  16.329  15.051 -0.0138 -0.0366  0.2037
31993W        W47802  14.925  15.514  10.716  0.2423  0.1107  0.1858
31994W        W47803   5.327   3.648  11.022 -0.2160 -0.2475 -0.0068
31995W        W47804   4.204  12.877   0.738 -0.3823  0.0856  0.0976
31996W        W47805  18.923   7.436  14.067  0.2112 -0.1058 -0.0468
31997W        W47806  15.626   2.162   3.486 -0.0030 -0.0027 -0.2555
31998W        W47807   6.977   3.586  11.178  0.1173  0.0499  0.0143
31999W        W47808  15.856  17.415   5.006 -0.1399  0.0301  0.1162
32000W        W47809   6.585  12.338   4.419 -0.1879 -0.1450  0.1007
32001W        W47810   7.383   1.850   2.070 -0.0479  0.4946  0.2544
32002W        W47811   4.093   9.220   4.831 -0.2495  0.0400 -0.1488
32003W        W47812  11.840   0.297  12.082 -0.1099  0.1352 -0.0011
32004W        W47813   2.967   3.827  14.173  0.0743  0.0387  0.1794
32005W        W47814  11.195  18.073  14.554  0.0174  0.1378 -0.0650
32006W        W47815  15.028  18.136   5.695 -0.0082  0.1455  0.0993
32007W        W47816  13.632  18.749   2.736 -0.2244  0.2697 -0.0243
32008W        W47817   2.203  17.123  10.116 -0.0211  0.1609 -0.1333
32009W        W47818   0.771   0.552  11.650 -0.2149 -0.0918  0.0802
32010W        W47819   0.161   6.865  11.988  0.3845  0.1904 -0.0046
32011W        W47820  12.355  18.470   1.822  0.2016 -0.1031 -0.3354
32012W        W47821   7.201  14.493   1.319  0.1842  0.1794  0.0249
32013W        W47822  12.511   3.213  12.420  0.1754  0.0481  0.1472
32014W        W47823   2.305   7.011   3.913  0.3459 -0.0608  0.0203
32015W        W47824   3.915   5.779   1.801 -0.0297 -0.5707  0.1093
32016W        W47825   1.963   9.158  10.816 -0.2451 -0.2824 -0.1886
32017W        W47826   3.021   0.157  14.023 -0.2418  0.1720  0.0712
32018W        W47827   6.588  16.974  15.032  0.0818 -0.0074 -0.0201
32019W        W47828   1.044  10.173  10.947 -0.3774 -0.0789  0.1483
32020W        W47829  17.329   8.121  14.535  0.1665 -0.0295  0.0945
32021W        W47830   5.177  15.762  10.634 -0.2007  0.0594  0.1271
32022W        W47831  13.553   9.668   3.920  0.1347  0.0523  0.1512
32023W        W47832  16.162   6.772   5.307  0.3668  0.0674 -0.0819
32024W        W47833  10.834  14.655  13.154  0.0128  0.2137  0.2286
32025W        W47834  14.720  11.028   2.606 -0.1553 -0.2508 -0.2091
32026W        W47835   0.360   1.552  12.528 -0.2783  0.1568 -0.0241
32027W        W47836   0.531  17.888   2.795  0.0284  0.0006  0.0329
32028W        W47837   2.831  13.422   2.365 -0.2689  0.0456 -0.1340
32029W        W47838   1.765   5.325   2.353 -0.0858 -0.0171 -0.1177
32030W        W47839   5.065  15.139  13.160  0.2932 -0.2399 -0.0678
32031W        W47840   7.405  18.320  13.468 -0.1051 -0.0505  0.2214
32032W        W47841  12.682  11.435   0.341 -0.0870 -0.0008  0.2350
32033W        W47842  13.150   5.562   3.753  0.0261 -0.0820 -0.1367
32034W        W47843   3.392   3.664   5.369  0.0223 -0.0550 -0.0194
32035W        W47844  15.503  15.739   4.255  0.0062 -0.0899 -0.0190
32036W        W47845   0.488   4.742   2.200  0.1270 -0.0060 -0.2079
32037W        W47846   2.530   2.778   4.014 -0.0597 -0.0421 -0.1879
32038W        W47847  13.687   0.679  11.202 -0.0196 -0.0271  0.0325
32039W        W47848  14.399  18.567  11.619 -0.0495 -0.2328 -0.1329
32040W        W47849  11.525   1.235   2.929  0.0984 -0.0318  0.0599
32041W        W47850  17.266   4.713   3.897  0.2650 -0.0250 -0.2273
32042W        W47851  17.442  14.555   2.366 -0.1768 -0.1749  0.1352
32043W        W47852  15.808  18.095   0.374  0.0218  0.2734  0.0844
32044W        W47853  15.868  13.676   2.269 -0.2658 -0.1875 -0.0582
32045W        W47854  18.807   7.637  12.030 -0.1583  0.2183  0.1981
32046W        W47855  16.850  15.485   3.189 -0.1000 -0.0826 -0.0148
32047W        W47856   9.712   7.124  11.561 -0.0068  0.0885  0.0144
32048W        W47857   9.448   6.680  11.376  0.1173  0.2466  0.2102
32049W        W47858   5.715  11.014   2.712  0.1198 -0.0524  0.2071
32050W        W47859   7.690  17.918  13.614  0.3723 -0.3007  0.0430
32051W        W47860   0.738  10.120  14.154 -0.2918  0.0796  0.0921
32052W        W47861   1.613   6.760  10.031 -0.3078 -0.0498  0.2778
32053W        W47862   7.686  18.480   0.427  0.0024  0.0341 -0.1180
32054W        W47863  16.329   1.561  14.264 -0.1515 -0.2093  0.4049
32055W        W47864  10.087   2.452  13.242 -0.1959 -0.0633 -0.0049
32056W        W47865  16.645  10.986  14.293  0.0997  0.0172 -0.2466
32057W        W47866  10.753  13.429   0.122  0.0842  0.0712 -0.1609
32058W        W47867   2.506  17.863  15.199  0.1970 -0.0187  0.2385
32059W        W47868  12.082   1.567   3.412  0.1572 -0.0852  0.2627
32060W        W47869  12.341  17.021   0.293  0.1804 -0.0738  0.2606
32061W        W47870  11.619  16.682  12.039  0.0611 -0.1414  0.1546
32062W        W47871  14.612   1.324   4.971  0.4355 -0.3306 -0.0131
32063W        W47872   8.874   5.227   1.436  0.0147 -0.1580  0.2231
32064W        W47873   4.026  11.046  15.114 -0.0627 -0.2393 -0.0612
32065W        W47874   7.432  16.403   0.640  0.1171 -0.2535  0.0735
32066W        W47875   7.117  17.219  13.853  0.0548 -0.0779  0.1260
32067W        W47876   4.663   6.249   3.270  0.2420  0.0352  0.4718
32068W        W47877  13.744   7.566   0.708 -0.0478 -0.0037 -0.1721
32069W        W47878   2.565   4.985   0.418 -0.0444 -0.0846 -0.0116
32070W        W47879   4.363   2.815  14.728 -0.0260  0.0126  0.0679
32071W        W47880   8.873   3.215  12.032  0.2642  0.0918  0.1595
32072W        W47881   1.093   0.520   0.437  0.1367  0.2125  0.0093
32073W        W47882   3.008   3.613   3.685  0.2735  0.0805 -0.1213
32074W        W47883   1.038   8.303  14.031 -0.1691 -0.0135  0.1083
32075W        W47884  16.900  13.263   4.555  0.0556  0.1161  0.0692
32076W        W47885   6.609  12.696  14.394 -0.1478  0.1436  0.1128
32077W        W47886  15.314   0.088   3.677 -0.3937  0.1311 -0.0756
32078W        W47887   1.333   4.099  11.256  0.0834  0.0301  0.3985
32079W        W47888   4.319  18.682  12.858  0.0272 -0.1123 -0.0513
32080W        W47889   9.795   9.073   4.701 -0.2230 -0.0187 -0.3370
32081W        W47890   5.001   1.867   2.441  0.0394  0.0457  0.1261
32082W        W47891   1.878   3.697   5.171  0.0429  0.0716 -0.4347
32083W        W47892  15.224  15.392  14.786  0.4479  0.1525  0.1001
32084W        W47893  12.055   1.425  14.576  0.2683  0.1723 -0.1081
32085W        W47894   1.511  17.592  10.864 -0.1985  0.1370  0.1030
32086W        W47895  10.735  17.787   1.198  0.0119 -0.0588  0.0371
32087W        W47896   5.080   3.966  13.521 -0.1879 -0.1056 -0.0352
32088W        W47897  16.413  17.313   0.762 -0.0657 -0.3200  0.2402
32089W        W47898  10.881   6.738   3.676  0.1657 -0.0033  0.0334
32090W        W47899   2.685  18.527   4.907 -0.1124 -0.0023 -0.3667
32091W        W47900  18.517   7.408  13.176  0.1672 -0.0449  0.0788
32092W        W47901  15.542  12.563  13.589  0.0932 -0.3838 -0.1150
32093W        W47902  13.374   6.839  14.733 -0.1236  0.2165  0.2947
32094W        W47903   1.986  10.428  13.560  0.0095  0.1905 -0.0146
32095W        W47904   0.524  13.252  14.935 -0.2207 -0.0742  0.1847
32096W        W47905  19.029  16.917   5.002 -0.1328  0.2714 -0.0731
32097W        W47906  15.112  13.999  11.155 -0.2785 -0.1844  0.0986
32098W        W47907  16.005   6.438   0.735 -0.1114 -0.1325  0.2811
32099W        W47908   8.300  17.337  13.870 -0.0557  0.0746 -0.5126
32100W        W47909   4.483   6.102  14.753  0.0865 -0.2339 -0.1685
32101W        W47910  17.670   8.633   5.428  0.1356  0.1734 -0.1987
32102W        W47911   3.298   1.411  11.755 -0.1088 -0.1637  0.0303
32103W        W47912  17.349  18.544  12.683 -0.3836  0.3125  0.0384
32104W        W47913  14.448   4.611  12.040 -0.1329 -0.1106 -0.0317
32105W        W47914   1.961   0.112   1.975 -0.0002  0.1228  0.1210
32106W        W47915  14.195   5.486  12.255 -0.3934  0.2441  0.0079
32107W        W47916  10.830  18.432   4.504  0.1820  0.1848  0.0175
32108W        W47917  16.802   7.937  15.183 -0.3670 -0.2807  0.1001
32109W        W47918   1.152  10.633  11.108  0.0684  0.2165 -0.0214
32110W        W47919   6.558  12.409   2.554 -0.1654 -0.2471 -0.5147
32111W        W47920   2.509  14.838   0.316 -0.0968  0.0476 -0.1310
32112W        W47921  14.597  14.588   4.886 -0.1742 -0.1174  0.1995
32113W        W47922  10.785   7.947  13.273 -0.1764 -0.0107 -0.0723
32114W        W47923  14.168  16.019  12.964  0.1381  0.3309 -0.1138
32115W        W47924   4.207  12.099  12.959 -0.0446 -0.0726  0.3529
32116W        W47925  17.832  14.260  13.614  0.1760  0.1181  0.1065
32117W        W47926  13.482   4.874   3.126 -0.2069 -0.0799  0.0950
32118W        W47927   0.542  10.951  12.165  0.3032 -0.1290  0.0258
32119W        W47928   4.461  13.842   2.686  0.3045  0.0486  0.0690
32120W        W47929   3.657  16.041  14.631  0.0934  0.0963 -0.0492
32121W        W47930  15.188   6.132   4.010 -0.0917  0.1254 -0.0889
32122W        W47931   1.200  17.531   0.062  0.1464 -0.1731  0.1582
32123W        W47932   7.544  16.116  11.682 -0.0678  0.0716  0.0726
32124W        W47933  12.913  13.054  13.087  0.0042 -0.0721 -0.1286
32125W        W47934   9.923   8.228  15.207 -0.2964  0.2040  0.0449
32126W        W47935   6.610   4.195  12.182  0.1236 -0.0526 -0.1191
32127W        W47936   0.072   8.366  13.798  0.0384  0.0137  0.1880
32128W        W47937   8.199   8.462   0.028 -0.1819 -0.1987  0.3928
32129W        W47938   8.003   5.264   1.061  0.3068  0.1546  0.0918
32130W        W47939   7.695   2.447   0.760 -0.2962 -0.1274  0.3023
32131W        W47940  16.427   2.983  14.180  0.0234  0.1941  0.0888
32132W        W47941   9.885   4.114   0.926  0.0459 -0.0653 -0.2198
32133W        W47942  16.769  13.294  13.573  0.0396 -0.1149 -0.3525
32134W        W47943   8.653  16.780  14.436 -0.2639 -0.3077 -0.0428
32135W        W47944  13.024  16.174  11.668 -0.2044 -0.1492  0.1716
32136W        W47945   6.690   5.786  12.553 -0.0091 -0.2154 -0.3998
32137W        W47946  15.046   8.552   3.587  0.1985  0.2061  0.1075
32138W        W47947   3.696   6.934  12.978 -0.1221 -0.4195  0.1516
32139W        W47948   4.745  12.195   4.586 -0.2856  0.1228 -0.2363
32140W        W47949  15.968   3.651   0.032 -0.0303 -0.2159  0.2116
32141W        W47950   3.709  10.659  12.760 -0.1614  0.1160 -0.3657
32142W        W47951   7.988  17.236   5.441 -0.4181  0.2134 -0.0000
32143W        W47952  17.423   1.095  12.432  0.1157 -0.0566 -0.0264
32144W        W47953  16.302   4.603  12.435 -0.1619 -0.0833 -0.1130
32145W        W47954  14.532  17.062   3.943 -0.0301 -0.2949 -0.1863
32146W        W47955   2.591  13.772   1.170  0.2174 -0.1518  0.1862
32147W        W47956   0.996  15.235  11.176 -0.1596 -0.1674  0.0245
32148W        W47957  14.691  16.878   2.965  0.1372  0.2027 -0.0275
32149W        W47958  10.197   2.038   1.163  0.1261 -0.2391 -0.1123
32150W        W47959   0.371  18.414   0.198  0.1550 -0.0624 -0.0336
32151W        W47960  15.314  10.762  14.627 -0.3348  0.0446  0.1613
32152W        W47961  17.376   7.607   2.731  0.1615  0.1482 -0.6281
32153W        W47962   6.656  16.653   4.743  0.1483 -0.3918  0.2017
32154W        W47963   3.139  14.935   1.866  0.1045  0.1098 -0.1987
32155W        W47964   0.472   9.467   3.940 -0.2497  0.0826  0.0980
32156W        W47965  17.388   2.173  15.171 -0.2234  0.0177  0.0547
32157W        W47966  15.773  11.491  12.488 -0.2825  0.1547 -0.2713
32158W        W47967   1.229  12.054   4.182 -0.0322 -0.0584 -0.0734
32159W        W47968  15.575  16.112   5.374 -0.1037 -0.1167 -0.4058
32160W        W47969  11.638   0.433   5.227 -0.1202  0.1726 -0.3894
32161W        W47970   8.680  10.551   0.882  0.3114 -0.1465 -0.1380
32162W        W47971  14.204  15.214  12.530 -0.3222 -0.0816 -0.2424
32163W        W47972   1.288   2.823   1.875 -0.1222 -0.0961 -0.1031
32164W        W47973  17.658   2.660  11.913  0.0812  0.0740  0.2519
32165W        W47974   6.425   5.725  14.220 -0.2242 -0.1703  0.2073
32166W        W47975  12.589  17.756  12.121  0.0557  0.0746  0.0602
32167W        W47976   2.882   6.304  12.304  0.4797 -0.0369 -0.0769
32168W        W47977   4.773   2.634  14.627 -0.0290  0.3937  0.1413
32169W        W47978  14.063   0.328  11.356  0.2419 -0.2086  0.0108
32170W        W47979   8.526   9.493  13.088 -0.0149 -0.0338 -0.0687
32171W        W47980  11.997  12.255   2.273  0.0061 -0.1494 -0.0752
32172W        W47981   4.757   9.538   0.293  0.0029  0.0950  0.3089
32173W        W47982   1.831   4.451  12.089  0.0224 -0.1312 -0.1572
32174W        W47983   0.030  16.614  10.891 -0.2227 -0.4389 -0.0376
32175W        W47984   5.927   8.758   2.407 -0.3234  0.0136  0.0589
32176W        W47985  13.343  16.902   5.024 -0.1918  0.0621 -0.0626
32177W        W47986  12.159   6.527   2.297  0.2891  0.0824 -0.0472
32178W        W47987   1.438  16.319   4.538 -0.1003  0.0592 -0.0028
32179W        W47988   4.688   5.522  11.336 -0.0067  0.0802 -0.0498
32180W        W47989  13.002   2.402   3.911  0.0788 -0.1298 -0.0854
32181W        W47990   4.934   5.856  11.667  0.0525  0.1497  0.0874
32182W        W47991   2.928  17.521   3.074 -0.2881  0.0924  0.2013
32183W        W47992  10.684  17.192   2.747 -0.1486  0.3981  0.3792
32184W        W47993   4.745   9.986  14.559  0.0557  0.0658  0.3370
32185W        W47994   0.814   5.054   0.735  0.1590 -0.3382 -0.2610
32186W        W47995  12.724   8.688   0.996 -0.1984  0.2013  0.1583
32187W        W47996   6.056   6.110   1.832 -0.0862  0.0299 -0.5542
32188W        W47997   6.409   4.548  14.741 -0.3420  0.0723 -0.1483
32189W        W47998   3.635   5.865  14.607 -0.3317  0.1480 -0.0127
32190W        W47999   9.696   9.025   1.327  0.1664 -0.0342 -0.0122
32191W        W48000   7.567   7.468  14.113 -0.0863 -0.0096  0.0219
32192W        W48001  14.530   9.160  11.076 -0.0288 -0.4056 -0.1357
32193W        W48002  18.264  15.714  13.679 -0.0275  0.1998 -0.2760
32194W        W48003   1.020  16.719   0.509 -0.2257  0.0050 -0.2540
32195W        W48004  11.003  12.563   1.322 -0.0383 -0.0740  0.1020
32196W        W48005  13.531  15.897   1.140  0.1987  0.2763 -0.0218
32197W        W48006   7.886   6.889   3.272 -0.3203 -0.1448 -0.3761
32198W        W48007   4.253   1.074  13.409  0.0178 -0.0219 -0.1134
32199W        W48008  14.285  18.716   4.881 -0.0305  0.2220 -0.1274
32200W        W48009  11.728  11.961  14.130  0.1001 -0.3552 -0.0323
32201W        W48010  12.928   6.139  13.614  0.0653 -0.1230 -0.0362
32202W        W48011   5.430  12.461  12.828  0.5710 -0.2137  0.5555
32203W        W48012   8.153  15.399  10.550  0.0096 -0.3105  0.1330
32204W        W48013   5.624   1.994   3.258  0.3828 -0.0649 -0.2186
32205W        W48014   4.309  13.373   0.687  0.3412 -0.0221 -0.0370
32206W        W48015  15.285   3.848   9.889  0.2449  0.0474 -0.1459
32207W        W48016  13.458  10.212   2.684 -0.0335  0.0017  0.2864
32208W        W48017   2.407   9.824   3.561  0.0425  0.1924 -0.1625
32209W        W48018   3.051  18.081   2.604  0.0950  0.2506 -0.0293
32210W        W48019   4.996  10.789   0.337  0.0018  0.3671 -0.2012
32211W        W48020  16.688   9.661   1.433  0.1033 -0.1170  0.1711
32212W        W48021  13.551  17.472  13.732 -0.1392 -0.2106  0.1769
32213W        W48022   7.845  14.313   5.401  0.2215  0.2354  0.1695
32214W        W48023  11.524   8.095  11.163 -0.1344  0.0111 -0.0357
32215W        W48024   1.424  13.835   1.001  0.1505  0.0763  0.1305
32216W        W48025  11.683  10.264   1.990  0.3325 -0.1675 -0.2429
32217W        W48026   9.779   1.017  14.604 -0.1109  0.1969  0.3129
32218W        W48027   6.017   2.672   1.312  0.1406  0.0220  0.0808
32219W        W48028   7.818  12.765   4.003  0.0101  0.0544 -0.2428
32220W        W48029  17.478   2.339  14.255 -0.0499 -0.0716  0.2011
32221W        W48030  11.979  12.418   1.356  0.2452 -0.0376 -0.1672
32222W        W48031  11.322  17.888  10.942  0.0893 -0.0066  0.3544
32223W        W48032   0.527   5.285   0.265 -0.1676 -0.0436  0.2878
32224W        W48033   5.550  10.509  11.943 -0.0648  0.0721 -0.3869
32225W        W48034  18.514  16.330  14.892  0.1616  0.1134 -0.0674
32226W        W48035   9.760   9.324   2.156 -0.1361  0.2406  0.0741
32227W        W48036  13.803  14.604  10.824  0.2255  0.3448  0.1988
32228W        W48037   5.999  10.290  11.682 -0.0917  0.2242 -0.0706
32229W        W48038  13.867   5.160  14.130  0.0166  0.0464  0.3283
32230W        W48039   8.061  14.222   1.745  0.0431  0.1366  0.1476
32231W        W48040   1.790  16.957   0.531 -0.1009  0.0929 -0.2404
32232W        W48041   8.029   5.954  10.319 -0.1803 -0.0406  0.2315
32233W        W48042  13.776   8.277   5.681 -0.1782  0.0613 -0.0931
32234W        W48043  11.802   6.543   5.563  0.0853  0.2020 -0.1188
32235W        W48044   6.256  12.499   2.098 -0.3505  0.0551  0.1037
32236W        W48045   1.786  12.780   2.529  0.1271 -0.3238  0.1625
32237W        W48046   2.935   2.969   3.841 -0.1195  0.3107 -0.3457
32238W        W48047  18.853  11.563  11.241 -0.2339  0.2508 -0.2100
32239W        W48048  11.330   8.888   4.324  0.0573  0.0873 -0.0099
32240W        W48049  13.270  13.819   3.931 -0.2074 -0.0173  0.0350
32241W        W48050  17.460   1.748   2.020 -0.2301  0.1362 -0.1016
32242W        W48051  13.015   1.942  13.467 -0.1619  0.2598 -0.1918
32243W        W48052  16.429  14.563   9.984  0.1739  0.0809  0.1124
32244W        W48053   7.786   1.037  11.294  0.1019 -0.1391  0.1636
32245W        W48054  13.655   2.356  13.390  0.0388  0.2292 -0.2044
32246W        W48055   3.614   2.220   0.643 -0.1333 -0.1739  0.0680
32247W        W48056  10.268  15.917   0.824 -0.1295 -0.1564  0.1710
32248W        W48057  18.709   5.849   0.454 -0.0469 -0.2364  0.3654
32249W        W48058  11.402  10.203   4.156  0.3114 -0.3207  0.3532
32250W        W48059  15.766  14.481   3.026  0.3858  0.1861  0.3335
32251W        W48060   1.384   2.722   1.078  0.1639  0.4730  0.0802
32252W        W48061  11.025  10.851  14.991 -0.1966 -0.3016 -0.0529
32253W        W48062   8.201   2.902  13.398  0.0049  0.0028 -0.1403
32254W        W48063   3.973  18.431  12.321  0.2130 -0.0604  0.0270
32255W        W48064   4.015   7.031   3.144 -0.1833 -0.2271 -0.0956
32256W        W48065  15.245  14.929  11.815 -0.0188  0.0865 -0.2431
32257W        W48066  12.381  15.127  10.410 -0.0531 -0.0189 -0.0512
32258W        W48067  10.493  16.544  13.070  0.0641 -0.0750 -0.1025
32259W        W48068  12.670  17.142   1.957  0.1448 -0.0659 -0.1406
32260W        W48069  10.332  11.513  11.245  0.0147  0.0212  0.1732
32261W        W48070  18.726   3.612   4.384 -0.0692 -0.0375  0.0301
32262W        W48071   7.353  11.461   1.693 -0.1012 -0.0869 -0.1043
32263W        W48072   3.600   3.710   5.936  0.1872  0.1524  0.0144
32264W        W48073   2.409  16.439   1.247 -0.0092  0.1060  0.1793
32265W        W48074   1.873  15.844  10.446 -0.0770 -0.1623 -0.1456
32266W        W48075  16.463   2.287   2.188 -0.0544 -0.3959  0.0652
32267W        W48076  14.448   5.581   1.377 -0.1818 -0.0650  0.1305
32268W        W48077   3.109  15.419   3.603  0.2029 -0.0342  0.1736
32269W        W48078  15.914  13.507   4.644  0.0536  0.2021  0.0875
32270W        W48079   7.866  18.425   5.655 -0.1568  0.0828 -0.1089
32271W        W48080   4.901  10.369   0.026  0.0161  0.1182 -0.4503
32272W        W48081  17.052  13.152  13.951  0.0725 -0.0002 -0.0384
32273W        W48082   7.037  13.427  10.738 -0.0816  0.0755  0.0832
32274W        W48083   0.329  13.292  10.143 -0.4661 -0.1943 -0.1562
32275W        W48084  16.997  16.705  11.214  0.0567  0.2901  0.0507
32276W        W48085   4.385   7.206  10.485  0.0111  0.1242  0.2175
32277W        W48086   8.359  12.703   1.385 -0.1586 -0.0141 -0.1314
32278W        W48087   6.687  11.000   4.186 -0.1548  0.1519 -0.0396
32279W        W48088   2.066  14.446  10.829 -0.0677 -0.1492  0.0923
32280W        W48089   6.826  11.828   0.415 -0.0871 -0.1352 -0.1183
32281W        W48090   5.321   8.172  10.656  0.0785  0.0821 -0.0115
32282W        W48091   8.866  18.672  10.552 -0.0001  0.1751 -0.2310
32283W        W48092  12.857  10.637  13.806  0.3160  0.0658  0.0633
32284W        W48093  10.838  15.442   3.477 -0.2042  0.0528  0.0649
32285W        W48094  10.116  12.193  10.865 -0.0715  0.1460 -0.1867
32286W        W48095   4.037   7.186  13.446 -0.1661  0.1930 -0.4009
32287W        W48096   9.971  14.631  13.535 -0.3276 -0.1344  0.2353
32288W        W48097   4.417   6.581   1.960  0.3518  0.0720 -0.1701
32289W        W48098  10.614   2.871  11.416 -0.1089 -0.0661 -0.2830
32290W        W48099   0.056   6.788   0.339 -0.1414 -0.1573  0.1241
32291W        W48100  11.711   7.074  11.361 -0.3363  0.4177  0.0655
32292W        W48101   5.328   6.231  11.915  0.1791 -0.2447  0.2062
32293W        W48102   7.020   8.006  13.157  0.1052 -0.0691 -0.0399
32294W        W48103   9.188   8.390   1.982 -0.3089 -0.2559  0.3440
32295W        W48104   2.148   9.116  11.341  0.1885 -0.0104  0.0489
32296W        W48105   8.395  17.651  14.304 -0.2252 -0.0002  0.2049
32297W        W48106  14.677   0.567   4.266 -0.2229 -0.2350 -0.3180
32298W        W48107  15.804  10.388  11.571 -0.0715 -0.1021  0.1763
32299W        W48108  15.151  16.198  12.695  0.1528  0.0528  0.0227
32300W        W48109   0.351   2.431  12.500  0.3428 -0.0712 -0.2756
32301W        W48110   4.247   8.011   1.540 -0.0417  0.0772 -0.1573
32302W        W48111  14.848   9.932   4.713 -0.0644  0.2108  0.1899
32303W        W48112   5.487   4.305   1.874 -0.2374  0.0755 -0.3795
32304W        W48113  17.074   9.187   5.630 -0.1000  0.0599 -0.1453
32305W        W48114  11.499   9.674  14.462 -0.3277  0.2847 -0.1361
32306W        W48115   6.730   0.039   9.481  0.0864 -0.0628  0.1194
32307W        W48116   7.740  17.073   3.940  0.1711 -0.1226 -0.0004
32308W        W48117   4.039   3.099  14.978 -0.3254 -0.0170 -0.3150
32309W        W48118  18.457  15.513  11.692 -0.1388 -0.1858  0.0439
32310W        W48119   0.573   2.077   1.924  0.0716  0.0659 -0.2637
32311W        W48120  14.804   3.539  14.442  0.3353 -0.1304  0.0138
32312W        W48121   6.383   5.322   3.788 -0.3280 -0.4020  0.1283
32313W        W48122  13.987   7.422   1.192 -0.0711 -0.2659 -0.3444
32314W        W48123  13.001  13.665   3.535  0.0534  0.0200 -0.0922
32315W        W48124   6.881   6.020   2.135  0.0091  0.2078 -0.1598
32316W        W48125   3.244   0.261  10.561 -0.0601 -0.1277  0.1936
32317W        W48126   1.697  15.525   0.254  0.4173  0.1490  0.0695
32318W        W48127   2.914  10.522   2.897 -0.0285  0.1924  0.1673
32319W        W48128   5.137   4.535   2.096  0.4495 -0.1585 -0.1759
32320W        W48129   7.893   3.555   1.886  0.0061 -0.2358  0.2017
32321W        W48130   4.333   7.506   3.057 -0.2945 -0.0401 -0.1589
32322W        W48131   7.590   6.433  12.070  0.2604 -0.1137  0.2597
32323W        W48132  16.079   4.800   1.166 -0.0255 -0.0064 -0.1128
32324W        W48133   7.163   7.501  15.036 -0.2685  0.5220  0.0387
32325W        W48134   3.850   0.679   4.857 -0.3185 -0.1397 -0.0046
32326W        W48135  12.600   7.388   1.360  0.0239  0.0956 -0.0895
32327W        W48136   7.224  18.472   0.654  0.2328 -0.5207  0.1476
32328W        W48137  12.268  13.038  13.017 -0.1675  0.0734 -0.1976
32329W        W48138   3.698   8.996   9.432  0.0909 -0.0587  0.0460
32330W        W48139  12.697   1.102   3.594  0.2542 -0.2307  0.3348
32331W        W48140   3.382  18.477   3.249 -0.2888  0.1335 -0.0293
32332W        W48141  15.643  15.068  10.450  0.0731  0.0363  0.0028
32333W        W48142  16.428   2.439  14.835  0.1938  0.3490 -0.0547
32334W        W48143  12.471  15.080  13.677  0.3872  0.0734 -0.3395
32335W        W48144  13.520  11.178   5.173  0.1771  0.1424  0.2156
32336W        W48145   7.496  17.182  12.648 -0.0197 -0.0077 -0.0012
32337W        W48146  12.327   8.622  11.185  0.1149 -0.1363  0.2254
32338W        W48147   0.014   3.949   3.995 -0.0984  0.4406  0.1977
32339W        W48148   1.526  12.746   2.113  0.3430 -0.0099 -0.0689
32340W        W48149   8.431   2.192  12.222  0.0686  0.2000 -0.2210
32341W        W48150   7.348   7.776   1.797  0.1547  0.4956 -0.1699
32342W        W48151  16.536   3.419  12.554  0.1443  0.0153  0.0652
32343W        W48152   0.096  12.352   3.403 -0.0549  0.0338  0.0621
32344W        W48153   3.097   0.662  13.880  0.1770 -0.1517 -0.4307
32345W        W48154  15.099  18.936  11.991 -0.0550  0.2187  0.0332
32346W        W48155   7.100  17.302  12.141 -0.2337  0.0368  0.0823
32347W        W48156  11.264  18.712  11.618 -0.3478 -0.0783  0.1453
32348W        W48157  18.148  12.143  14.719  0.0102 -0.0036  0.0281
32349W        W48158  13.514  11.837   4.988  0.0934 -0.0977  0.1067
32350W        W48159  12.654  13.703   2.388  0.2824 -0.2378 -0.3798
32351W        W48160   4.810  16.333   0.100 -0.0043  0.2912  0.3594
32352W        W48161   1.922  14.165   3.855 -0.0025  0.2544 -0.0298
32353W        W48162   9.251   3.579  13.896  0.4197 -0.0293  0.2704
32354W        W48163   0.614   2.944   5.131  0.2472 -0.1094  0.1167
32355W        W48164   1.563  16.177   2.473 -0.0407 -0.1665  0.0933
32356W        W48165  14.429  12.846   3.631  0.0679  0.2100  0.0962
32357W        W48166   1.694  11.844  11.497 -0.1119 -0.0246  0.0995
32358W        W48167   9.198  17.706  12.343 -0.0570 -0.1645 -0.0455
32359W        W48168   2.736  17.451  13.433 -0.0518  0.0909 -0.2964
32360W        W48169  13.849   3.382  10.841  0.1816  0.0442  0.1426
32361W        W48170   1.174  11.208   5.218  0.0024 -0.1647  0.0733
32362W        W48171  12.246   1.674   4.745  0.1405  0.0028  0.1923
32363W        W48172   5.981  14.198  11.816 -0.1018 -0.3477  0.2080
32364W        W48173  14.274  10.008   5.549 -0.0747 -0.2025 -0.2212
32365W        W48174  15.389   2.534  12.995  0.0052  0.1120  0.1862
32366W        W48175   0.917   9.499   1.892  0.1564 -0.0469 -0.1186
32367W        W48176  15.849   3.733  14.659 -0.3283  0.0602  0.0727
32368W        W48177  19.023  14.203   4.240  0.0335  0.0990  0.0367
32369W        W48178   1.900  16.817   1.880 -0.3559 -0.0183 -0.1775
32370W        W48179   0.513   7.451   0.463  0.2033 -0.2869  0.1559
32371W        W48180   1.089  10.119   4.319  0.1083 -0.3211 -0.0058
32372W        W48181   6.660  10.382  11.735 -0.1832 -0.1365 -0.0289
32373W        W48182  13.821   5.917  12.503  0.0547  0.0273 -0.1372
32374W        W48183   0.883   1.889  14.238 -0.0064 -0.2139 -0.1630
32375W        W48184   1.122   6.798   9.997  0.1263  0.0261  0.1642
32376W        W48185   1.124   9.100   5.594 -0.1046 -0.1007 -0.2041
32377W        W48186  11.071   7.883  13.753  0.1292 -0.1530 -0.2235
32378W        W48187  11.615   9.064  12.762  0.1571  0.1055 -0.0543
32379W        W48188   9.303  16.266   0.171  0.0358 -0.1269 -0.3054
32380W        W48189   1.857   2.161  13.225  0.0375 -0.1972 -0.2498
32381W        W48190  18.365  17.530   3.770 -0.3316  0.0571 -0.0209
32382W        W48191   7.772   6.044  11.086  0.2641  0.5579  0.0698
32383W        W48192  10.103  14.758   0.859  0.0395  0.0522 -0.0054
32384W        W48193   2.339  12.857  12.742  0.0645 -0.1787  0.1158
32385W        W48194  14.927   9.504  14.906  0.0555  0.1618  0.0198
32386W        W48195  10.204  14.266   0.820  0.2793  0.1071 -0.1206
32387W        W48196  11.185  12.129   2.681  0.2307  0.0143 -0.0495
32388W        W48197  10.366   5.557   1.107 -0.2323 -0.0930 -0.1172
32389W        W48198  18.398   2.507   2.684 -0.2184  0.0251  0.0567
32390W        W48199   0.674  14.104   2.991  0.1558  0.0816  0.3043
32391W        W48200  14.192  11.938   5.562 -0.3661 -0.1815 -0.1545
32392W        W48201  16.749   6.762  13.040  0.2043 -0.0602  0.1546
32393W        W48202   4.984  14.694  12.354  0.1533 -0.2074 -0.2151
32394W        W48203   3.286   5.188   5.680 -0.1545  0.0315 -0.1712
32395W        W48204  14.138  16.956   4.253 -0.0057 -0.3935 -0.2629
32396W        W48205  12.481  17.947   3.193  0.1854 -0.0765  0.0198
32397W        W48206   4.833  17.250   3.073  0.2828  0.0635  0.1470
32398W        W48207   4.936   9.288   3.565  0.2167  0.3030  0.0925
32399W        W48208   3.529   7.146   1.522 -0.1320 -0.0980 -0.0306
32400W        W48209  18.295   3.242  12.667  0.0092  0.1813 -0.1932
32401W        W48210   9.695   3.868   5.060 -0.2182  0.0707 -0.1917
32402W        W48211   3.985   5.882   4.003 -0.1987  0.0874  0.0799
32403W        W48212   2.683  18.063  12.763  0.1736  0.2647 -0.3593
32404W        W48213  12.613   4.882  11.127 -0.0993 -0.1316  0.0701
32405W        W48214  16.547  11.535   0.343 -0.0556  0.1004 -0.0452
32406W        W48215   4.566  13.463   4.154  0.0098 -0.2233 -0.0276
32407W        W48216  15.997   7.687  12.308 -0.1629 -0.0842 -0.2290
32408W        W48217  11.293  11.919   4.799  0.0951 -0.3010  0.1096
32409W        W48218  18.285   8.319   0.636 -0.2637 -0.0832 -0.0564
32410W        W48219   9.323   1.437   4.309  0.0952  0.5132 -0.1563
32411W        W48220   0.518  14.810  12.332 -0.0250  0.0763  0.0182
32412W        W48221  15.771  15.503   3.771 -0.0763  0.1336 -0.2118
32413W        W48222  10.898   2.568  12.810 -0.0242  0.2929 -0.1564
32414W        W48223   9.650  12.388  10.806  0.3098  0.2464  0.2209
32415W        W48224   3.019  14.192   2.966  0.1343  0.2838  0.3630
32416W        W48225  15.389   7.390  14.685 -0.0521  0.0664  0.0093
32417W        W48226   8.888   8.012   1.180  0.1174  0.1342  0.1136
32418W        W48227   7.910  14.667  12.279  0.1713  0.3733 -0.2155
32419W        W48228  15.446   2.254   0.597 -0.2614  0.0197 -0.2460
32420W        W48229   2.913   3.413   2.264  0.0301 -0.0127  0.2169
32421W        W48230   0.179   0.747   2.603  0.0158  0.1780  0.1441
32422W        W48231   8.644  10.971  11.353 -0.2734  0.1333 -0.0329
32423W        W48232  11.709   2.219   3.544 -0.5599  0.2378 -0.0595
32424W        W48233  18.802   7.165   2.731  0.3139 -0.0394  0.0300
32425W        W48234  17.639   8.281  14.190  0.0595  0.1031  0.2620
32426W        W48235   5.903   3.119   3.623 -0.1182  0.1617 -0.0705
32427W        W48236  10.239  16.630  12.009 -0.1285  0.2308  0.2015
32428W        W48237  17.610  10.505  14.848  0.1057  0.0415 -0.2010
32429W        W48238   8.357  17.505   5.603 -0.4324  0.1724 -0.0896
32430W        W48239   1.267  14.277   9.761 -0.1395  0.2111  0.1597
32431W        W48240   7.273  19.010  11.107 -0.0610 -0.2222 -0.2662
32432W        W48241   8.140  15.357  12.586  0.0755 -0.1066 -0.1018
32433W        W48242   7.086  14.218   3.118 -0.1158 -0.0840  0.1524
32434W        W48243   2.788   9.912   1.914 -0.2195  0.1072 -0.1119
32435W        W48244  12.539  16.165  12.428 -0.2226 -0.1400 -0.3304
32436W        W48245   8.638   8.478  11.726 -0.1419  0.3080  0.0140
32437W        W48246  10.881  18.206   5.876  0.1148 -0.0733  0.1089
32438W        W48247   1.152   3.201  14.685  0.2002 -0.0626  0.1315
32439W        W48248  10.946   3.932   5.374  0.0254  0.1594 -0.0289
32440W        W48249  11.056   8.853   3.518 -0.3205 -0.0526 -0.1076
32441W        W48250  12.430  15.949  14.193  0.2181  0.0065  0.1729
32442W        W48251   5.713   9.483   5.332  0.0126 -0.0416  0.3842
32443W        W48252  13.838   3.300  12.501 -0.0635 -0.0828  0.0368
32444W        W48253   4.715   5.061  13.466 -0.0535 -0.0414 -0.2062
32445W        W48254   5.650   0.287  10.911  0.2335 -0.0402  0.0478
32446W        W48255  11.120  14.433   2.613  0.0134  0.2049  0.0035
32447W        W48256   5.914  14.773  14.719  0.1056 -0.4473 -0.1806
32448W        W48257   1.520   0.262  12.855 -0.0501  0.0451 -0.3614
32449W        W48258  12.740   1.118   1.377  0.1439  0.0382 -0.0115
32450W        W48259  17.974   6.615  13.471  0.0993 -0.0511 -0.1897
32451W        W48260   8.485   6.515  11.959 -0.1804 -0.1740  0.0603
32452W        W48261  15.551   4.684   1.956  0.1321  0.0219 -0.1670
32453W        W48262  15.130   5.539  13.334  0.2707  0.2766 -0.2599
32454W        W48263  12.968   4.725  11.564  0.3503 -0.1192  0.3302
32455W        W48264   6.204   4.573  13.020 -0.2575  0.1821 -0.0157
32456W        W48265  14.195   6.337  12.741 -0.0230  0.3383 -0.2294
32457W        W48266  18.357   1.892   0.319  0.0545  0.0161 -0.0239
32458W        W48267   0.765   4.267   1.420  0.1276  0.1453  0.1191
32459W        W48268   7.850   5.271  13.971  0.3690 -0.1370  0.0659
32460W        W48269   4.949   7.847   1.452  0.1054 -0.1433  0.1437
32461W        W48270   0.897   0.700   1.376  0.4075  0.0812  0.0633
32462W        W48271  17.175   0.535   2.305 -0.3350  0.1896  0.2144
32463W        W48272  11.401  10.740  13.189  0.1296 -0.2008 -0.0035
32464W        W48273   3.214  14.255   4.600 -0.0198 -0.0515 -0.2655
32465W        W48274   0.674   6.771   3.645 -0.0047  0.0471 -0.2037
32466W        W48275  16.952  18.524  14.722  0.0016 -0.1916  0.0258
32467W        W48276   5.271  12.760   4.306 -0.3613  0.1693 -0.0962
32468W        W48277   1.089  17.819   1.524 -0.0572  0.1001 -0.0796
32469W        W48278  18.883  11.529   5.929 -0.2285 -0.1885 -0.2217
32470W        W48279  12.717  17.619   1.051 -0.3018 -0.2253  0.0636
32471W        W48280   0.217   0.060   1.956 -0.2217 -0.2523 -0.1506
32472W        W48281  10.085   0.794   1.900  0.3563 -0.0974  0.2984
32473W        W48282  12.692   8.082   5.819  0.1526  0.1687 -0.0070
32474W        W48283  10.353  16.552   0.023  0.1974  0.2640 -0.1657
32475W        W48284   6.645   6.932   0.668 -0.0043  0.2699  0.0817
32476W        W48285   7.839  10.061  12.556 -0.3367 -0.0090 -0.1667
32477W        W48286  14.553  18.496   0.360  0.1362 -0.0134  0.0718
32478W        W48287  13.036   4.656   2.985  0.1121  0.0819 -0.2547
32479W        W48288  12.794   1.296   9.695 -0.2794  0.0348 -0.0296
32480W        W48289   0.267  15.169   1.038 -0.2006 -0.0100  0.0740
32481W        W48290   4.933  12.180  11.587  0.4020  0.0978 -0.2473
32482W        W48291   2.970  14.995   0.240 -0.0721 -0.2099  0.0786
32483W        W48292  16.945  10.454   3.489 -0.0683  0.2190  0.0846
32484W        W48293   6.910   6.364  13.691  0.1633 -0.1745  0.1711
32485W        W48294  14.175   4.527   3.956  0.1176 -0.0314  0.3960
32486W        W48295   4.820   0.699   4.213  0.0534  0.0089 -0.0453
32487W        W48296  16.586  16.444  12.833 -0.2856 -0.1402  0.1124
32488W        W48297   6.336  11.834  10.186 -0.3369  0.1887  0.3340
32489W        W48298  18.943   2.955  13.465 -0.2168 -0.0890 -0.0921
32490W        W48299  15.454  12.516   0.424 -0.0252 -0.4599  0.1870
32491W        W48300   8.601   4.643   3.120 -0.2176 -0.1762 -0.0682
32492W        W48301  17.118   2.149  11.486  0.0954 -0.0005 -0.4421
32493W        W48302   3.925   8.270  10.090 -0.0378 -0.0520 -0.1560
32494W        W48303  13.568   3.777  13.520  0.2302 -0.0075 -0.0403
32495W        W48304  12.132   4.120   5.028  0.1295  0.1996 -0.0502
32496W        W48305   2.697  16.252  14.306 -0.1078 -0.2012 -0.0086
32497W        W48306  10.239   6.046   1.392 -0.2677 -0.0055  0.3599
32498W        W48307  15.094   1.715   2.886  0.0524  0.2309  0.0089
32499W        W48308   8.897  17.607  11.539  0.0386 -0.1917  0.2617
32500W        W48309   8.880   9.901  10.990  0.3856  0.2672 -0.2316
32501W        W48310   1.699   1.800   1.688  0.0404 -0.1383 -0.2285
32502W        W48311   4.421  12.690  12.832  0.0374 -0.1301  0.0060
32503W        W48312   8.349   1.571  14.626 -0.1031  0.1425  0.1319
32504W        W48313   9.612   1.845   4.330  0.0342 -0.0585  0.0394
32505W        W48314  16.840   9.421   3.887  0.2514  0.1699 -0.4227
32506W        W48315  12.928   1.765  12.511 -0.0421 -0.0604 -0.5550
32507W        W48316   7.890  12.497   1.421  0.1433 -0.3016  0.0580
32508W        W48317  13.766   1.235  11.615 -0.0454 -0.1116 -0.2929
32509W        W48318   6.793  11.616  12.929  0.1252  0.0576 -0.0218
32510W        W48319  15.714   0.478  11.789  0.2055  0.0599  0.2528
32511W        W48320  18.406   7.539   9.970  0.0328  0.1584 -0.0095
32512W        W48321   3.151  15.197  14.425 -0.3012  0.3300 -0.1334
32513W        W48322  14.866   1.955  11.855  0.0536 -0.0337  0.2452
32514W        W48323   7.398   3.998  13.937 -0.0514  0.0445 -0.0534
32515W        W48324   6.663  18.634  14.364 -0.1264 -0.0679 -0.3477
32516W        W48325  11.261  13.517  10.526  0.1897  0.5979  0.0014
32517W        W48326  11.093   7.791   1.301  0.3280 -0.0260  0.0237
32518W        W48327   4.719  14.830  13.562  0.1388 -0.0729  0.0871
32519W        W48328  13.963  16.769  13.467  0.1154  0.0314  0.1089
32520W        W48329   5.687   8.587   3.190  0.1869 -0.1243  0.2488
32521W        W48330   6.570  11.370   0.323 -0.1298 -0.2434  0.3592
32522W        W48331   4.911  17.710  11.174  0.1413 -0.0176 -0.1748
32523W        W48332  11.675  18.429  11.819 -0.2515  0.1737  0.2352
32524W        W48333  10.207  14.120  11.244 -0.1570 -0.0443 -0.1219
32525W        W48334   9.253  18.558  13.464  0.4935  0.0696  0.2710
32526W        W48335   5.532  16.551   0.996  0.0018  0.0408 -0.1988
32527W        W48336  15.934   0.134   5.250 -0.1835  0.2679 -0.3308
32528W        W48337   7.689   9.018  11.759  0.2604  0.1836  0.3491
32529W        W48338   5.794   7.307   2.623  0.1023  0.0384  0.3621
32530W        W48339  12.784   1.392  13.902 -0.1741  0.4374  0.0581
32531W        W48340  17.296  18.210  13.886  0.0166  0.3319  0.2470
32532W        W48341  18.048  17.699  14.118  0.0116  0.0403  0.0257
32533W        W48342   1.583  10.335   1.843 -0.1452  0.1985 -0.2955
32534W        W48343   5.651  18.376   4.278 -0.2608 -0.2004 -0.1595
32535W        W48344   7.572  14.795   1.244 -0.0341  0.1140  0.2571
32536W        W48345   3.789   1.613  14.415 -0.2931 -0.3941  0.0609
32537W        W48346  10.664  11.169   4.629  0.0228  0.1646  0.2254
32538W        W48347  15.388  12.727  12.345  0.0657 -0.0679  0.1243
32539W        W48348  15.750   4.388  13.208  0.1962 -0.1091  0.1372
32540W        W48349   0.356   5.228   0.916 -0.0781 -0.1237  0.1730
32541W        W48350  15.128  12.046   9.666  0.1174 -0.0574 -0.1118
32542W        W48351  12.706   9.271   0.367  0.4154 -0.1103  0.3073
32543W        W48352  15.474   1.334   3.834  0.1449  0.1221 -0.1236
32544W        W48353   6.717   0.777  13.482 -0.1780 -0.0410  0.0030
32545W        W48354  10.154   7.894   3.700 -0.3591 -0.4073  0.1002
32546W        W48355  18.562   7.935  13.117  0.1789 -0.0220 -0.3559
32547W        W48356  18.036  17.213   4.048  0.4069 -0.2446 -0.1044
32548W        W48357  10.610  16.494  11.563  0.0260  0.2022  0.1868
32549W        W48358  12.869   9.531  14.458 -0.2397  0.2335 -0.2102
32550W        W48359  10.273  11.901  10.453  0.0061  0.2566  0.1901
32551W        W48360   3.370  14.701   2.546  0.0223  0.1250 -0.4047
32552W        W48361  12.323   0.109  15.082 -0.1736 -0.2393 -0.1309
32553W        W48362  12.139  17.685   0.857  0.2183 -0.1656 -0.0889
32554W        W48363   7.937  11.555  10.477 -0.0005 -0.0743 -0.0467
32555W        W48364   0.689   7.861   3.698  0.0030  0.0015 -0.1149
32556W        W48365  12.671  10.043  13.771 -0.0399 -0.0935  0.2037
32557W        W48366   0.417  16.825  12.005  0.1444 -0.1715  0.0138
32558W        W48367   2.978   6.448   1.841  0.2196  0.0649  0.2635
32559W        W48368   4.518  18.504  12.372 -0.0754 -0.1260  0.1075
32560W        W48369  16.633  15.761   4.584 -0.1447 -0.1545 -0.0699
32561W        W48370  11.549  11.642   3.882 -0.0149 -0.0868 -0.0487
32562W        W48371  12.687  13.632  13.797  0.1245  0.1474 -0.0731
32563W        W48372   7.886  18.479   4.305 -0.1550  0.1650  0.0753
32564W        W48373   0.680   5.795   3.444 -0.0360 -0.1573  0.0971
32565W        W48374  16.171   1.795   0.253 -0.0590 -0.2289  0.0326
32566W        W48375  11.113   5.024  15.150 -0.2562 -0.5142  0.1224
32567W        W48376   2.753  16.875  11.316 -0.0466 -0.1754 -0.0666
32568W        W48377   0.463   6.919   5.419 -0.3121  0.0562  0.4298
32569W        W48378   8.259   8.335  12.491 -0.3587 -0.3141 -0.0623
32570W        W48379  12.425   6.610  14.116 -0.0563 -0.1675 -0.0069
32571W        W48380   1.523   1.865  14.884 -0.0386 -0.0706  0.2558
32572W        W48381   6.303   5.710   2.800  0.0161 -0.0438 -0.2239
32573W        W48382  13.518   5.602   6.279 -0.0974 -0.2715  0.1299
32574W        W48383  17.765   4.689   3.677 -0.0924  0.1285  0.0301
32575W        W48384  18.530   6.821   0.921 -0.1944 -0.4094  0.1708
32576W        W48385   1.032  17.158  11.251  0.3415 -0.1321  0.0207
32577W        W48386  13.863   2.028  14.530  0.2679  0.2825  0.0024
32578W        W48387  14.827   0.145   1.784  0.1514 -0.1150  0.2308
32579W        W48388   1.442  13.262   4.611 -0.0252  0.0074 -0.4609
32580W        W48389   6.461  11.455  12.581 -0.0440  0.1078 -0.0566
32581W        W48390   7.588  13.954  11.624 -0.1674  0.0183 -0.0692
32582W        W48391  18.588  17.665   4.528 -0.0876 -0.1573  0.1881
32583W        W48392   9.891  10.906  13.178 -0.3835  0.0606  0.1346
32584W        W48393   1.299  18.580  11.129 -0.1599 -0.0055 -0.0644
32585W        W48394   7.832  10.094  12.092 -0.0305  0.2285  0.1909
32586W        W48395   3.472   3.329   2.050  0.1644  0.2703 -0.2803
32587W        W48396   2.504   8.845   2.227  0.0207  0.1121  0.0907
32588W        W48397  10.099  14.505   2.699  0.0315  0.3065 -0.1719
32589W        W48398   5.881   4.589   1.674  0.1795 -0.5085 -0.3087
32590W        W48399  15.729  15.411  13.502 -0.1460  0.1570 -0.3704
32591W        W48400  15.460   7.758   3.265 -0.0453 -0.3187 -0.0117
32592W        W48401   2.625   0.711   1.018  0.0387 -0.4041  0.1073
32593W        W48402   6.284   9.226  10.545 -0.3456 -0.1163  0.1811
32594W        W48403  18.066   4.342   0.105 -0.1100  0.0327  0.0781
32595W        W48404   0.737   5.681   6.035 -0.0701 -0.0901 -0.0839
32596W        W48405  18.354   1.123   3.533  0.1577  0.1015 -0.1996
32597W        W48406  10.199   9.677   4.913  0.2567  0.2161 -0.0849
32598W        W48407  14.277  11.010  15.275  0.0337  0.1290  0.0224
32599W        W48408   4.137  14.328   2.747 -0.3018  0.0315  0.0688
32600W        W48409  14.236  14.544   1.998  0.3015  0.1088  0.0961
32601W        W48410   2.784  12.711   4.862  0.0004 -0.1196  0.0733
32602W        W48411  12.459  10.211  12.978  0.0068  0.0512  0.0286
32603W        W48412   8.512  12.006  14.310  0.0182  0.0755 -0.1803
32604W        W48413  10.782  10.225   3.154 -0.0604  0.0644 -0.1440
32605W        W48414   8.175   9.504   9.050 -0.2556 -0.0655  0.0611
32606W        W48415   4.271   0.181  15.112 -0.1671  0.1506  0.0363
32607W        W48416  16.566   3.183  13.362  0.1066  0.1311 -0.1881
32608W        W48417  16.397  11.838  14.873 -0.2498 -0.3818 -0.3319
32609W        W48418   4.642  10.710   1.219 -0.0419  0.3812  0.2338
32610W        W48419  12.892  15.915  14.047 -0.0228 -0.2161 -0.2165
32611W        W48420   2.339  18.362  13.100 -0.0209 -0.1304  0.0352
32612W        W48421  13.297   1.106   0.077 -0.1383  0.1616 -0.0447
32613W        W48422  12.833  14.939   5.663  0.2741 -0.0562 -0.2006
32614W        W48423   6.255   7.923   1.979 -0.0069  0.0648 -0.2196
32615W        W48424  12.639   7.164  12.347  0.3013  0.1600 -0.3056
32616W        W48425  10.700   0.984   0.927  0.5733 -0.1705 -0.1826
32617W        W48426  13.698   8.067  15.030 -0.0118  0.0985 -0.3829
32618W        W48427   3.804  17.000   2.191 -0.6269 -0.0963 -0.2631
32619W        W48428   9.654   4.531   0.620 -0.1130 -0.4116  0.0214
32620W        W48429   3.719  17.074   4.411 -0.0708 -0.1826 -0.1009
32621W        W48430   6.495  17.972   2.868 -0.3369 -0.2698 -0.1741
32622W        W48431  12.020  12.880  11.418 -0.0917 -0.3752  0.1271
32623W        W48432   5.865   9.402   2.798 -0.2589 -0.1602 -0.3389
32624W        W48433   6.665  12.862   4.869  0.2687 -0.4225  0.1299
32625W        W48434  16.811   7.795  11.874 -0.0338 -0.0628 -0.0848
32626W        W48435  14.938   7.859  12.487  0.0330 -0.1853 -0.0654
32627W        W48436   6.265  11.321  10.070 -0.1244 -0.0367  0.0812
32628W        W48437  10.316   7.474   3.482 -0.1604 -0.1653 -0.0374
32629W        W48438  10.975  13.129  14.005 -0.1637  0.2120 -0.1619
32630W        W48439  17.871   6.931   0.120  0.1501 -0.0091  0.1072
32631W        W48440   3.512   9.230   4.040  0.1067  0.1471  0.0878
32632W        W48441  15.772   9.281  14.984 -0.1947  0.2264  0.1514
32633W        W48442   3.358   4.901  10.082  0.2376  0.3256  0.1059
32634W        W48443   7.531   5.990  13.718  0.1397  0.0642 -0.1962
32635W        W48444  10.427   0.798  13.310 -0.1006 -0.0551  0.0490
32636W        W48445  14.028  11.117   5.326 -0.0376 -0.1807  0.0303
32637W        W48446  16.309  13.720   1.921  0.0429  0.0261 -0.0079
32638W        W48447   9.203  17.183  10.623  0.2404  0.2183  0.3627
32639W        W48448   0.144  10.028  12.798 -0.1426  0.0001  0.0955
32640W        W48449  15.519   1.985  13.070 -0.0862  0.0154  0.2410
32641W        W48450   5.403  10.475   3.610  0.1428  0.0581 -0.0892
32642W        W48451   3.232   5.688  14.349 -0.0517  0.2908 -0.1769
32643W        W48452  13.454   3.475   4.711  0.1054  0.2237  0.0099
32644W        W48453  17.145  12.396   0.528  0.1303  0.0584 -0.0932
32645W        W48454   3.292  11.502   3.787 -0.0857 -0.1348  0.2805
32646W        W48455  13.624  10.294  13.282  0.1526 -0.0201  0.1806
32647W        W48456   9.990   4.236  14.137 -0.1525 -0.4048 -0.2078
32648W        W48457   2.058  10.522  14.445 -0.2131 -0.0057 -0.0704
32649W        W48458  17.503  18.657   0.013 -0.5344 -0.1647 -0.2192
32650W        W48459  16.121  13.079   1.192 -0.0220 -0.1095 -0.1483
32651W        W48460   6.831   6.565  14.661  0.2090  0.2871  0.1531
32652W        W48461  18.776   3.164   1.194  0.1541 -0.1547 -0.1657
32653W        W48462  11.814  10.191  11.321  0.2492 -0.4053 -0.5326
32654W        W48463  11.237  16.903  14.212 -0.1659  0.0022 -0.0829
32655W        W48464  13.126  11.718   0.324 -0.0052  0.2271 -0.0071
32656W        W48465  18.155   9.888   2.126 -0.0532  0.2528  0.0419
32657W        W48466   2.921   2.218   2.739 -0.1554  0.2436 -0.1142
32658W        W48467   9.676   6.787  13.534 -0.1355 -0.0270 -0.1076
32659ION     NA48468  13.997   1.460   5.738 -0.2900 -0.1521  0.0831
32660ION     NA48469  18.117  13.410  10.004  0.1825 -0.3246 -0.0177
32661ION     NA48470  13.500  16.034   0.579  0.0038 -0.4195  0.1411
32662ION     NA48471   1.314  12.801   5.521  0.1984 -0.1957 -0.1835
32663ION     NA48472   4.658   9.745  12.852  0.2514  0.0717 -0.0670
32664ION     NA48473  18.421   1.846   9.984  0.0989  0.1809  0.1005
32665ION     NA48474  10.777  16.422   5.512 -0.1080 -0.0164 -0.4648
32666ION     NA48475  13.310   5.118   0.919 -0.1376 -0.2160  0.0880
32667ION     NA48476  13.238   0.102  10.195  0.0888 -0.2570 -0.4088
32668ION     NA48477   8.518   2.074   9.768 -0.1019  0.0787 -0.1071
32669ION     NA48478   5.462  11.365  14.364 -0.2180  0.2307  0.1041
32670ION     NA48479   3.279  18.481   9.977  0.0346 -0.3405 -0.0157
32671ION     NA48480  11.465   1.605  10.010 -0.2738 -0.0297  0.0632
32672ION     NA48481   6.200   1.397   4.987 -0.0397  0.0179  0.0257
32673ION     NA48482  14.381  10.786  14.324 -0.1337  0.2467  0.0880
32674ION     NA48483   1.638   7.705  14.296  0.0547  0.2418  0.0045
32675ION     NA48484   4.525   4.793   5.357 -0.1215  0.0740 -0.3559
32676ION     NA48485   0.558  12.291   5.550 -0.2143 -0.3384  0.0283
32677ION     NA48486  10.516  17.078   0.914  0.0765  0.1573  0.0409
32678ION     NA48487  18.475  11.776   3.814  0.0390 -0.4531 -0.1443
32679ION     NA48488  14.487   3.827  13.155 -0.0177  0.0647 -0.0441
32680ION     NA48489   4.483   4.469   9.541  0.1546 -0.0580  0.0834
32681ION     NA48490   7.587   8.496   5.127 -0.0708  0.0334 -0.0480
32682ION     NA48491  10.963  16.780  11.802 -0.0397 -0.0993 -0.2513
32683ION     NA48492   3.469   3.163   9.623 -0.0745 -0.2094  0.0672
32684ION     NA48493  14.216  17.663  14.957 -0.0492  0.0330 -0.3653
32685ION     NA48494   6.994  17.295   5.310  0.0449  0.1085  0.0670
32686ION     NA48495   1.478  13.063   3.970 -0.1930  0.1074 -0.0540
32687ION     NA48496  11.128  17.602  15.234 -0.1550 -0.1631 -0.0750
32688ION     NA48497  14.000  16.477   5.642  0.0370 -0.0381  0.2913
32689ION     NA48498   0.617   2.411   9.835  0.5159  0.1986 -0.1845
32690ION     NA48499   0.229   9.398  10.238 -0.0493 -0.0399  0.2752
32691ION     NA48500   8.190   7.778   9.693  0.2124 -0.2516  0.0030
32692ION     NA48501   9.383  12.373   3.060  0.0666 -0.1900  0.2329
32693ION     NA48502   8.060   4.725   5.241 -0.1789 -0.0861 -0.0094
32694ION     NA48503   3.539  14.699   9.777 -0.3341 -0.0016 -0.0143
32695ION     NA48504  16.470   0.747  10.995  0.0637 -0.2348 -0.0099
32696ION     NA48505  12.289   9.767  10.498 -0.0038 -0.3649 -0.0024
32697ION     NA48506   5.847   4.177   1.447 -0.2799  0.0059  0.0504
32698ION     NA48507   3.614   6.325   3.847 -0.1778  0.2123 -0.0206
32699ION     NA48508   2.264  18.866   5.474  0.0380 -0.4278 -0.2566
32700ION     NA48509   8.158  15.886   9.662  0.1334  0.0353 -0.0091
32701ION     NA48510  17.605   9.183   4.097  0.0865 -0.2298  0.3025
32702ION     NA48511   7.789  11.983   9.399 -0.2712 -0.0222 -0.4964
32703ION     NA48512   4.480  18.861   4.827 -0.4358 -0.0317 -0.0530
32704ION     NA48513  11.712  17.296  12.869  0.3060  0.1471  0.0037
32705ION     NA48514  12.152  13.728   5.491 -0.2512 -0.0705 -0.1056
32706ION     NA48515   2.176  17.872   5.602 -0.0033 -0.0755 -0.0047
32707ION     NA48516   3.263   7.486  11.721 -0.2260 -0.1669 -0.0635
32708ION     NA48517   7.434   3.295   0.445  0.2753  0.0394 -0.0991
32709ION     NA48518  13.972  15.202   9.969  0.2088 -0.1721 -0.3143
32710ION     NA48519   7.180   3.442  14.832  0.0656  0.0307  0.2121
32711ION     NA48520   9.010  13.622   4.904 -0.0784 -0.1217  0.2713
32712ION     NA48521  17.723  14.660  11.969  0.0506 -0.1318  0.3812
32713ION     NA48522   2.068   9.507   5.171  0.2308  0.1013  0.1159
32714ION     NA48523  13.357   9.255   9.734  0.2440  0.2207  0.3332
32715ION     NA48524   5.458  11.386   3.479 -0.0741 -0.2825 -0.1168
32716ION     NA48525  13.341  13.487   1.614 -0.0593 -0.2854 -0.2549
32717ION     NA48526  11.553   4.299  11.977  0.1007 -0.2019 -0.0330
32718ION     NA48527  13.994   0.966  10.188 -0.3490  0.1445 -0.0617
32719ION     NA48528   1.183   1.267   5.159 -0.0764 -0.0839  0.2077
32720ION     NA48529  14.631   9.115   5.754  0.0755  0.0112 -0.0883
32721ION     NA48530  18.546  13.810  12.359  0.0519  0.0117 -0.1432
32722ION     NA48531  15.951   2.916   3.230  0.1671 -0.0901  0.0047
32723ION     NA48532   7.376  11.308  12.092 -0.0441 -0.0166  0.1995
32724ION     NA48533   5.058   0.484   9.980 -0.1094 -0.0304  0.4097
32725ION     NA48534  15.441  14.133   9.687 -0.2121 -0.1034 -0.2221
32726ION     NA48535   9.570   4.596   9.599 -0.1064 -0.2929 -0.0964
32727ION     NA48536   4.382   8.288   5.318  0.1564 -0.0587  0.0589
32728ION     NA48537  17.906  10.818   5.470  0.0174 -0.0516 -0.1380
32729ION     NA48538   5.209  14.543  13.819  0.0499 -0.1432  0.1952
32730ION     NA48539  18.509   9.479   4.259 -0.1450 -0.1325  0.0794
32731ION     NA48540  12.722   6.538  10.338  0.1499 -0.0774  0.3677
32732ION     NA48541  12.479  14.964   9.976 -0.1011  0.0818 -0.1849
32733ION     NA48542   9.581  11.930   9.403  0.2808  0.1902  0.1037
32734ION     NA48543  11.699  18.941  10.370  0.0388 -0.1582 -0.2404
32735ION     NA48544  18.237   7.511   5.837 -0.0729 -0.2169  0.2921
32736ION     NA48545   8.676   7.304  13.288  0.0056  0.1829  0.0550
32737ION     NA48546   9.925   2.135   9.699  0.0219 -0.1245  0.1542
32738ION     NA48547   7.918   0.466   5.010  0.0626  0.1212  0.1238
32739ION     NA48548  18.697  11.934  10.075  0.0571  0.0251  0.0470
32740ION     NA48549   0.062   0.924  14.297 -0.0020  0.2296  0.3119
32741ION     NA48550  17.269   5.926  10.094  0.1435  0.2405  0.1574
32742ION     NA48551   1.604  16.331  10.398  0.0777  0.1641  0.2662
32743ION     NA48552  10.105   3.602   5.308 -0.0977  0.1057  0.0913
32744ION     NA48553  13.874   8.444   9.817 -0.0206  0.1048  0.0380
32745ION     NA48554   9.599   9.463  10.545  0.2594 -0.0992  0.0076
32746ION     NA48555   4.527   8.923   9.720  0.0970  0.0888  0.1544
32747ION     NA48556  17.904  16.265   3.029 -0.1459  0.1518  0.2515
32748ION     NA48557  14.627  12.998   2.720  0.1227 -0.3007  0.2408
32749ION     NA48558   7.332  10.949   9.358  0.2424  0.0924 -0.4681
32750ION     NA48559  16.319  17.171  10.290  0.3013 -0.1857 -0.0140
32751ION     NA48560   3.152   6.956   2.407  0.0569 -0.0406  0.0472
32752ION     NA48561   8.530  18.288  10.331  0.0185  0.4759 -0.1232
32753ION     NA48562   2.168  12.083   5.349  0.1814 -0.0261  0.1623
32754ION     NA48563   0.971  17.534   5.812  0.0406  0.0256  0.0602
32755ION     NA48564   7.872   5.159   9.873  0.1549  0.1420  0.4146
32756ION     NA48565   7.905   2.669  11.549  0.2080 -0.0770  0.0091
32757ION     NA48566  10.752   0.026  10.186 -0.2996 -0.2080  0.2371
32758ION     NA48567  17.256   8.057   2.337 -0.1070 -0.0132  0.1429
32759ION     NA48568   7.417  12.976   9.239  0.1682  0.0360 -0.3227
32760ION     NA48569   9.369  14.636   9.551  0.0218  0.4286  0.0337
32761ION     NA48570   0.466   8.567   9.631 -0.2299 -0.2235 -0.1925
32762ION     NA48571   2.222  12.908  13.571 -0.2045  0.0426 -0.1147
32763ION     NA48572   1.014  11.905   1.286  0.0109  0.0457 -0.0069
32764ION     NA48573   2.150  11.089  13.191 -0.1369  0.1124 -0.3005
32765ION     NA48574  14.543   3.375   1.567 -0.0486 -0.1953 -0.2797
32766ION     NA48575  16.640  18.145  10.056  0.1387  0.0004  0.0032
32767ION     NA48576  13.218   7.570   9.928 -0.3919 -0.3430 -0.0516
32768ION     NA48577   6.825   4.501   9.562  0.0657  0.1438  0.2359
32769ION     NA48578   2.998   6.614   9.749 -0.0565  0.1780 -0.0119
32770ION     NA48579  10.591  15.254  10.888  0.2150  0.1538 -0.2501
32771ION     NA48580  10.396   3.219  11.696  0.1720  0.2439  0.1284
32772ION     NA48581  18.924  18.038   5.308 -0.0748  0.1006  0.0014
32773ION     NA48582  13.163  17.021   9.961 -0.3107  0.0495  0.0675
32774ION     NA48583   5.458   8.667   9.586 -0.1775  0.2235  0.1261
32775ION     NA48584  19.035   6.570   3.548 -0.2681 -0.1941  0.1584
32776ION     NA48585  11.309  10.625   5.198  0.3187  0.1116 -0.0581
32777ION     NA48586  15.092  14.007  15.057  0.1945 -0.1933  0.0906
32778ION     NA48587  17.747   0.158   1.724  0.0857 -0.1079  0.2412
32779ION     NA48588  12.356  17.992  10.125  0.2087  0.2996  0.1733
32780ION     NA48589  16.109  16.968   5.952 -0.0883 -0.0371 -0.0683
32781ION     NA48590  16.455   6.393  13.294 -0.0624 -0.3174  0.4162
32782ION     NA48591  12.425  11.937   4.797 -0.0580  0.1314  0.1433
32783ION     NA48592  14.821   2.378   9.977 -0.0180 -0.1469 -0.0547
32784ION     NA48593  12.773  14.189   3.313 -0.0389 -0.0082  0.2201
32785ION     NA48594   4.232  16.777   9.541  0.1504  0.0207 -0.2827
32786ION     NA48595  13.235  11.244   5.711 -0.0382 -0.1819 -0.2210
32787ION     NA48596  16.524   2.491   0.742 -0.2890 -0.2454 -0.3018
32788ION     NA48597  17.214   2.627   5.879  0.0393 -0.0786 -0.0186
32789ION     NA48598   3.588   1.262   0.459  0.0388  0.1683 -0.0132
32790ION     NA48599   8.158  18.724   9.659  0.0126  0.0631  0.0357
32791ION     NA48600  16.913   9.857  10.555  0.1450 -0.0237  0.2941
32792ION     NA48601  12.092   5.676   1.564  0.2707  0.2337 -0.0635
32793ION     NA48602   3.591   8.406  12.837 -0.0404 -0.0340  0.1537
32794ION     NA48603   7.399  15.386   4.603  0.1496  0.1430  0.0968
32795ION     NA48604   3.313   1.220   9.466  0.0366  0.0379  0.3585
32796ION     NA48605   9.285   5.019   1.806  0.4654 -0.0041 -0.2159
32797ION     NA48606   7.972  15.258   5.241  0.1256 -0.0213  0.1177
32798ION     NA48607   0.964   5.947  15.193  0.1407  0.0374  0.2332
32799ION     NA48608  15.975  14.766  10.123  0.0093  0.0173 -0.1163
32800ION     NA48609  12.858  16.193   9.898 -0.2615 -0.3062  0.0945
32801ION     NA48610   6.765  10.579  14.136  0.3666 -0.3126 -0.0312
32802ION     NA48611  17.546   2.308   1.546 -0.2940 -0.0065  0.1437
32803ION     NA48612   8.241   8.497   2.873  0.0552 -0.0683  0.0916
32804ION     NA48613  17.560   4.665  11.587  0.0190  0.1848  0.2536
32805ION     NA48614   2.121   0.328   2.765 -0.2134  0.1768 -0.2177
32806ION     NA48615   4.053  18.117  10.135 -0.2099  0.0216  0.0376
32807ION     NA48616   9.933  10.269  10.412  0.4006 -0.1683  0.3053
32808ION     NA48617  14.860  10.223   3.071  0.1894  0.0232  0.0358
32809ION     NA48618   4.997   9.947   1.112  0.0590  0.0425 -0.3420
32810ION     NA48619   1.993  18.733  13.130 -0.3014 -0.0584  0.1242
32811ION     NA48620  10.230   9.971   5.402 -0.1508 -0.0258 -0.0454
32812ION     NA48621  17.650  11.947   0.923 -0.1935  0.0084 -0.0456
32813ION     NA48622   9.610   5.560   9.821  0.1764 -0.2102  0.0011
32814ION     NA48623   1.526  16.747  10.025  0.2906  0.2859 -0.0188
32815ION     NA48624   5.413  18.650  14.083 -0.0934  0.0097  0.1477
32816ION     NA48625   1.627   8.357  13.333 -0.2920  0.4075 -0.0661
32817ION     NA48626  18.044   8.409   5.764 -0.0127 -0.1462  0.1380
32818ION     NA48627   5.629   4.743   0.140 -0.2329  0.0542 -0.0602
32819ION     NA48628  14.610  11.408   9.938 -0.2399 -0.0616 -0.1073
32820ION     NA48629   1.061   2.176   0.956  0.2147 -0.2542 -0.0581
32821ION     NA48630   7.812   1.424   9.437 -0.0673 -0.0954 -0.0936
32822ION     NA48631   6.609   8.232   5.063 -0.1179  0.1375 -0.2437
32823ION     NA48632  15.404  16.950   4.328  0.1508 -0.0969  0.0816
32824ION     NA48633   4.076  16.223   9.978 -0.1642  0.1746 -0.0489
32825ION     NA48634   2.937  15.355   9.841  0.0363  0.0885 -0.0748
32826ION     NA48635   8.027   1.681   4.689 -0.5083  0.0201  0.0247
32827ION     NA48636   3.157   3.004   5.459  0.1280 -0.1703  0.0703
32828ION     NA48637  10.985  17.256  13.622  0.1582  0.1005  0.0159
32829ION     NA48638   8.880   2.301   9.470  0.2079 -0.3739 -0.1080
32830ION     NA48639  18.441   4.075   3.275  0.1816  0.1138  0.1843
32831ION     NA48640  18.132  15.161   1.126  0.1762  0.1093 -0.0199
32832ION     NA48641   7.953  16.201   0.664 -0.1278  0.0505 -0.0420
32833ION     NA48642   1.637   8.182  11.382  0.1087  0.0976 -0.2040
32834ION     NA48643   5.143   4.393  14.677  0.1780  0.1964 -0.1535
32835ION     NA48644  15.186   2.245   2.697 -0.0733  0.6558  0.0913
32836ION     NA48645   9.441  15.827   4.206 -0.2219  0.2297  0.0022
32837ION     NA48646   6.500  18.513   4.855  0.0612 -0.0810 -0.0762
32838ION     NA48647  10.590  11.654  12.071 -0.3400 -0.1591 -0.1083
32839ION     NA48648  12.742  10.813   5.654  0.1931  0.1977  0.3071
32840ION     NA48649  13.812  11.817   2.493  0.1602  0.1107  0.0082
32841ION     NA48650   9.533   8.901   9.690 -0.0889 -0.1849 -0.1334
32842ION     NA48651   2.178  10.620   4.317  0.2453 -0.0336 -0.0868
32843ION     NA48652   5.196  14.341  12.666  0.1643 -0.0249  0.0960
32844ION     NA48653   9.167   1.325   9.673  0.3600  0.0513 -0.1834
32845ION     NA48654   1.192   9.563  12.755 -0.2869  0.2136  0.1443
32846ION     NA48655   2.855   6.696   5.207 -0.1107 -0.1236  0.2262
32847ION     NA48656   7.519  10.441   5.321 -0.0739  0.0729 -0.0198
32848ION     NA48657  16.548  15.313  13.309  0.1760 -0.0040  0.0856
32849ION     NA48658  18.240   3.836   5.895 -0.4183  0.4344  0.1017
32850ION     NA48659   5.834   3.519   5.196 -0.1087 -0.1191 -0.1080
32851ION     NA48660   3.953  17.759   5.149  0.0479 -0.0996 -0.2874
32852ION     NA48661  12.609  12.943   9.498  0.0453 -0.1286  0.0886
32853ION     NA48662  14.217  13.713   5.702  0.1040  0.0450  0.1321
32854ION     NA48663   5.229  12.243  13.781 -0.1733  0.0779 -0.1603
32855ION     NA48664   4.008  16.912  11.122 -0.1755  0.1334  0.0418
32856ION     NA48665   0.201  11.062   2.238 -0.0379  0.2230  0.0001
32857ION     NA48666   3.259  17.450   2.677  0.0512  0.1709 -0.2774
32858ION     NA48667   3.062   8.270   9.930  0.0011 -0.0296 -0.0161
32859ION     NA48668  11.736  13.747  11.178  0.0294  0.0219  0.1774
32860ION     NA48669   7.415  13.532   9.418  0.2084 -0.3635  0.1662
32861ION     NA48670   9.314  18.501   2.588  0.0950 -0.4119  0.0751
32862ION     NA48671   2.328   5.656  13.874 -0.2245 -0.1839 -0.2332
32863ION     NA48672   6.252   9.208   0.049  0.0359  0.0995  0.1914
32864ION     NA48673   4.916   2.706   2.920 -0.0123 -0.0125  0.2040
32865ION     NA48674  16.341  14.367  14.182 -0.1214  0.0294  0.1967
32866ION     NA48675   2.151  10.705   3.389 -0.2997  0.0326  0.3145
32867ION     NA48676   0.775   1.715  10.151 -0.0564  0.2125  0.3865
32868ION     NA48677  15.003   2.597   5.921  0.1231  0.3882 -0.2711
32869ION     NA48678  16.021   4.440  10.257 -0.0547  0.1480  0.1426
32870ION     NA48679  17.124   9.361  13.048 -0.0900  0.2292  0.1294
32871ION     NA48680   7.494  16.718   0.187 -0.0154  0.0463 -0.0130
32872ION     NA48681  13.312   0.362   3.868  0.0150 -0.2134  0.0434
32873ION     NA48682   5.576  10.454   1.623 -0.2325 -0.1333  0.0042
32874ION     NA48683  10.782  13.989  14.076 -0.0255 -0.4160 -0.3894
32875ION     NA48684  10.356  13.940   1.602 -0.0294  0.0792 -0.3176
32876ION     NA48685   1.386   1.979  14.138 -0.0553  0.0470  0.0791
32877ION     NA48686  13.863   5.541   1.579  0.0444  0.1018  0.1724
32878ION     NA48687   4.327   1.724   2.353  0.0300  0.0302  0.0925
32879ION     NA48688   1.855   9.206   0.307 -0.1078 -0.1607 -0.0320
32880ION     NA48689   6.996  13.030   2.513 -0.3274 -0.0209 -0.2171
32881ION     NA48690  10.336  14.225   3.279  0.0689  0.1137  0.0941
32882ION     NA48691  13.722   9.908  12.734  0.1355  0.4387  0.0287
32883ION     NA48692  13.902   5.635  14.389 -0.0916  0.0026 -0.0913
32884ION     NA48693  10.704   9.465  13.993  0.4063 -0.0068 -0.0387
32885ION     NA48694   4.989  17.854  12.470  0.2307  0.1701  0.1719
32886ION     NA48695  18.207  16.523   1.684 -0.1265 -0.1287 -0.2435
32887ION     NA48696   2.659   1.805   9.721  0.0325  0.2604  0.0596
32888ION     NA48697   6.677  14.293   9.465  0.2912 -0.2206  0.0661
32889ION     NA48698   4.673   5.407   9.395 -0.1527  0.3920 -0.0395
32890ION     NA48699  15.427  14.548  12.726  0.3885  0.0083  0.2623
32891ION     NA48700  16.882  10.665  10.550  0.4050  0.0585  0.2373
32892ION     NA48701   1.701   9.255   1.987  0.1502 -0.0009  0.0841
32893ION     NA48702   7.958   6.727   1.900 -0.0046  0.3962  0.0997
32894ION     NA48703   7.235   3.900  13.432  0.0690  0.0085 -0.2752
32895ION     NA48704  11.249   2.240   2.269  0.0283  0.1017  0.1766
32896ION     NA48705   8.439   5.932   5.114 -0.1678  0.1680 -0.1554
32897ION     NA48706  17.524  17.315   2.877 -0.1643 -0.1307  0.0605
32898ION     NA48707   1.312   6.564   9.600 -0.1153 -0.0117  0.0663
32899ION     NA48708   3.285   1.684   3.487  0.0008  0.0547  0.3084
32900ION     NA48709   8.799  10.530   9.578 -0.1739 -0.1076  0.1967
32901ION     NA48710  11.372  10.596   1.884  0.0370 -0.4047 -0.1617
32902ION     NA48711   0.861   5.107  11.691 -0.2053 -0.1869  0.3776
32903ION     NA48712  10.597   2.758   9.952  0.3917  0.2563  0.2184
32904ION     NA48713   4.792   8.094   9.472  0.2606  0.2076 -0.0664
32905ION     NA48714   4.253   3.816  10.039  0.1055 -0.1108  0.1994
32906ION     NA48715  14.727   7.694   3.683  0.2487  0.1229  0.1370
32907ION     NA48716   0.725   7.522   4.284  0.5274  0.2205 -0.0320
32908ION     NA48717  14.778  13.405   9.927  0.0985 -0.2011 -0.0592
32909ION     NA48718  11.795   5.533   9.871 -0.0134  0.0452 -0.1593
32910ION     NA48719   5.129   2.376   9.548  0.0929  0.1545  0.1319
32911ION     NA48720  17.941   4.573  10.140  0.1375 -0.0171 -0.1694
32912ION     NA48721   4.309   0.612   5.249  0.2727 -0.0739 -0.1974
32913ION     NA48722  18.987   4.743   3.901 -0.2633  0.1280  0.0963
32914ION     NA48723  18.456  14.004   6.251  0.4023  0.1364 -0.0214
32915ION     NA48724   0.835   6.004   9.518  0.0732  0.0305 -0.0644
32916ION     NA48725   7.479  12.363  13.459 -0.1386  0.1617 -0.2931
32917ION     NA48726   3.606  17.657  13.256  0.2757  0.2931 -0.3175
32918ION     NA48727   8.321  17.647   1.854  0.1943 -0.1456  0.0125
32919ION     NA48728  15.479   8.049  11.677  0.1400  0.2501  0.0241
32920ION     NA48729   2.705  19.020   5.534  0.1077  0.2109 -0.0898
32921ION     NA48730   3.513   2.153   9.726  0.0781  0.3180  0.2985
32922ION     NA48731   5.350   9.697   4.959  0.2505 -0.1865 -0.2465
32923ION     NA48732  17.261   5.257   5.108  0.1012  0.0034  0.2453
32924ION     NA48733   5.342   0.037   9.512 -0.0469  0.0180 -0.1621
32925ION     NA48734  18.734  10.254  14.244  0.0832 -0.4916  0.0711
32926ION     NA48735  10.287  11.085  10.903  0.2282 -0.0027  0.1848
32927ION     NA48736   1.172   5.071   1.104  0.0497  0.2262  0.0995
32928ION     NA48737   1.827  12.222   1.242  0.0331 -0.1535 -0.1194
32929ION     NA48738  14.012  14.676   5.481  0.0565 -0.1952 -0.2463
32930ION     NA48739   0.722  14.976   0.186 -0.0796  0.0148 -0.0499
32931ION     NA48740  13.021   5.673  10.076  0.1448 -0.2667  0.2850
32932ION     NA48741  16.011   7.349  10.044  0.3819  0.2555 -0.1636
32933ION     NA48742  12.794  16.740   0.798  0.2244 -0.0372  0.0918
32934ION     NA48743   3.283  11.226   9.914  0.0942 -0.2097 -0.0092
32935ION     NA48744   8.669  17.523   5.253 -0.0502  0.0190  0.0676
32936ION     NA48745  16.491  15.969   5.100  0.2284 -0.0012 -0.1463
32937ION     NA48746   4.825   3.763   4.607 -0.1828  0.0815  0.3870
32938ION     NA48747   1.300  15.431   2.594  0.0823  0.1605  0.0726
32939ION     NA48748  16.216  13.638   9.957 -0.1075  0.3574 -0.2342
32940ION     NA48749   6.459   1.333   9.440 -0.2317 -0.3420 -0.3676
32941ION     NA48750   9.109  13.587   1.407 -0.1707  0.0221 -0.1459
32942ION     NA48751   7.615   5.363   5.257 -0.3297 -0.3303 -0.2589
32943ION     NA48752  15.576   0.753   5.788 -0.1297 -0.2535 -0.0417
32944ION     NA48753  11.361   3.558  10.002  0.1037 -0.0374  0.1825
32945ION     NA48754   0.192   0.301   5.540  0.0146  0.1518 -0.0347
32946ION     NA48755  16.405  14.092   3.077  0.1638  0.0817 -0.3455
32947ION     NA48756   4.141  11.394   9.490 -0.3250  0.2079 -0.0290
32948ION     NA48757   8.413   6.443  14.614 -0.2998 -0.0456 -0.0048
32949ION     NA48758  12.570   5.791   5.744 -0.2411  0.1515  0.0736
32950ION     NA48759   8.588   7.460   1.248  0.4577  0.0977  0.1053
32951ION     NA48760   8.048  10.274   0.068  0.2193 -0.1334  0.2919
32952ION     NA48761  13.190   0.988   9.963  0.0867  0.1850  0.1486
32953ION     NA48762  15.357  15.569   5.635 -0.1237  0.0254 -0.0840
32954ION     NA48763   2.408  16.215   9.891  0.2680 -0.1330 -0.1624
32955ION     NA48764  18.655   1.249   2.089 -0.2529  0.1236 -0.1983
32956ION     NA48765   1.518  16.928  12.693  0.0002  0.0269  0.1708
32957ION     NA48766   1.334  11.691  15.008  0.1504 -0.0702  0.2700
32958ION     NA48767  17.168   1.005   5.541 -0.1661 -0.1632  0.0949
32959ION     NA48768   5.482  10.871  12.662  0.0262  0.1032 -0.0940
32960ION     NA48769  17.371  14.662   3.449 -0.0088  0.1601 -0.0224
32961ION     NA48770  12.337  11.590   5.589 -0.0851 -0.3656 -0.0833
32962ION     NA48771   4.586  18.732   9.479 -0.1794 -0.1511 -0.1540
32963ION     NA48772   9.163   8.029   5.469  0.2956  0.0288 -0.0688
32964ION     NA48773   4.874   7.560  12.779 -0.1058 -0.1053 -0.1993
32965ION     NA48774   7.294  18.337   4.994 -0.0346  0.1600 -0.0790
32966ION     NA48775  14.348   7.739  13.092  0.0171 -0.0421 -0.0361
32967ION     NA48776   0.074   5.217  14.375 -0.1208  0.1576  0.0999
32968ION     NA48777   6.302   7.676   0.417  0.2235 -0.1614  0.0869
32969ION     NA48778  10.943  14.848   5.406  0.1960  0.2134 -0.1571
32970ION     NA48779   9.148   1.708   5.685 -0.2356  0.4856  0.0175
32971ION     NA48780  15.618  17.560  13.958 -0.1806  0.0296  0.2042
32972ION     NA48781  15.428   4.760  10.053  0.0506  0.2497  0.3155
32973ION     NA48782   1.731   4.181  13.050 -0.0643  0.2223 -0.0421
32974ION     NA48783  17.936  18.472   5.570  0.2150  0.0959 -0.0937
32975ION     NA48784   8.900  17.378  11.067  0.0471 -0.0498  0.0952
32976ION     NA48785  18.400  18.403  10.118  0.0792  0.2838  0.3078
32977ION     NA48786   0.430  10.155   0.764 -0.0856 -0.1062 -0.1357
32978ION     NA48787  17.089  18.383   2.782  0.1157 -0.0047 -0.2562
32979ION     NA48788   0.970   9.289   5.102  0.0183 -0.0974 -0.2987
32980ION     NA48789   2.963   7.489   5.329 -0.1050 -0.1890 -0.1644
32981ION     NA48790   3.985  18.731   4.928 -0.0168  0.2324 -0.0836
32982ION     NA48791   0.053  12.836   4.538  0.1477 -0.2059  0.2198
32983ION     NA48792  13.432   9.039   1.390 -0.0746 -0.3708  0.1314
32984ION     NA48793   8.436   3.050   9.991 -0.0532  0.3412  0.4142
32985ION     NA48794  14.421  10.624   5.733 -0.1228  0.0474  0.1246
32986ION     NA48795  13.991  14.097  10.049  0.0326  0.3850  0.1665
32987ION     NA48796  17.698  10.513  13.866  0.0156  0.1727 -0.1748
32988ION     NA48797   0.361   3.261  10.051 -0.1005 -0.2558  0.1524
32989ION     NA48798   2.182   5.670   1.504 -0.0239 -0.0950  0.1822
32990ION     NA48799  16.493  12.125  10.190 -0.3963 -0.1575 -0.1208
32991ION     NA48800  14.661  18.429   1.523 -0.2262  0.0376  0.1289
32992ION     NA48801  12.445   0.027  12.673  0.1924 -0.2198 -0.1246
32993ION     NA48802   1.674   3.359   9.684 -0.0766  0.1464 -0.0206
32994ION     NA48803  17.257  13.080   3.364  0.0619 -0.1851  0.0128
32995ION     NA48804   1.844  16.590   4.809 -0.1217 -0.1777  0.1382
32996ION     NA48805  13.862  12.213   5.226 -0.0040  0.2058  0.2523
32997ION     NA48806  15.584  18.950   2.415 -0.0620  0.4368 -0.1666
32998ION     NA48807  17.962  12.155  10.354 -0.0289 -0.0986 -0.0572
32999ION     NA48808   9.114  16.217   5.495 -0.1050 -0.0585 -0.1830
33000ION     NA48809   8.153   5.912   1.680  0.0835 -0.2496  0.0904
33001ION     NA48810   1.071   9.901   9.667 -0.0528  0.0204 -0.0503
33002ION     NA48811  14.813   1.525   1.058 -0.2685  0.0445 -0.3433
33003ION     NA48812   7.749   3.688   9.792  0.1410 -0.0796 -0.0541
33004ION     NA48813   4.537  10.762   9.450 -0.1531 -0.2371  0.2829
33005ION     NA48814   8.804  16.583   9.551 -0.2448  0.1336 -0.1689
33006ION     NA48815  10.458   9.796  11.326 -0.1913 -0.1040  0.0703
33007ION     NA48816  12.980  10.241   5.645 -0.0362  0.0486 -0.3873
33008ION     NA48817   0.636  17.795  10.077  0.0092  0.1084  0.3719
33009ION     NA48818  13.289   2.334  11.171 -0.1642 -0.2085  0.2030
33010ION     NA48819   2.313  14.248  13.118 -0.0048 -0.1409 -0.1090
33011ION     NA48820  11.913   4.519   5.643  0.3719  0.1541 -0.0821
33012ION     NA48821  13.901   2.682  10.034 -0.3388  0.2427  0.1326
33013ION     NA48822   4.599  16.170   5.270  0.3219 -0.2179  0.1370
33014ION     NA48823  17.918  14.130  10.376  0.1408 -0.0635 -0.3052
33015ION     NA48824  11.391   4.563   9.774  0.2008  0.3447  0.2250
33016ION     NA48825   9.809   0.162  14.767 -0.0783  0.0544 -0.2672
33017ION     NA48826   7.508   2.012   5.234  0.0145  0.2595  0.3317
33018ION     NA48827   3.997  16.983   3.638 -0.2276  0.2257  0.1647
33019ION     NA48828  11.364   1.348   0.214 -0.0925  0.3215  0.1446
33020ION     NA48829  11.851   1.613   1.536  0.2176  0.2125 -0.0424
33021ION     NA48830  16.537   7.118  11.543 -0.3147 -0.3065  0.1351
33022ION     NA48831   4.926  11.898   5.355 -0.1657 -0.1108  0.0153
33023ION     NA48832  16.266   3.805   0.902  0.1960  0.0084  0.0650
33024ION     NA48833  11.813  15.249   2.122  0.2687  0.2348  0.2782
33025ION     NA48834   5.553   5.810   2.642 -0.2022 -0.0331  0.0558
33026ION     NA48835   5.565  15.380   9.755  0.1768  0.0319 -0.1652
33027ION     NA48836  17.864  10.174  10.580  0.2749 -0.0745  0.1094
33028ION     NA48837   3.707   0.528  10.412  0.2248  0.0820  0.5213
33029ION     NA48838   6.061   6.143   5.533 -0.3671  0.3230 -0.2807
33030ION     NA48839  17.968   3.649  10.196  0.1394  0.0405  0.2101
33031ION     NA48840   5.115   6.150   9.663 -0.3526 -0.3107 -0.3407
33032ION     NA48841   3.936  18.307   1.532 -0.2268  0.1681 -0.3915
33033ION     NA48842   8.103   7.182   9.730  0.2051  0.1742  0.0618
33034ION     NA48843   6.686   0.869  11.970 -0.0843  0.2130  0.0406
33035ION     NA48844  14.195   3.308   4.726 -0.0405  0.3492 -0.2007
33036ION     NA48845   0.171  18.489   1.839 -0.1517 -0.1828  0.0779
33037ION     NA48846   3.289   6.049  13.200  0.3426 -0.1643 -0.3928
33038ION     NA48847  14.294  16.034  10.001  0.1226  0.1056  0.1371
33039ION     NA48848  12.990   4.735   0.069 -0.5208  0.0288  0.2289
33040ION     NA48849  11.350  11.663  15.084 -0.1480 -0.1412  0.0432
33041ION     NA48850  12.589   8.861  15.247  0.0605  0.2236  0.1017
33042ION     NA48851   3.524  14.314   3.093 -0.1619  0.0310 -0.1012
33043ION     NA48852  11.192   7.845   5.051  0.1206 -0.0933  0.2745
33044ION     NA48853  11.095  14.161   9.648 -0.4113  0.0479  0.2946
33045ION     NA48854   2.118  15.019   5.537  0.1460 -0.1599 -0.0379
33046ION     NA48855  13.800  12.391   9.814  0.1801  0.3306  0.1273
33047ION     NA48856   1.280  16.138   0.974  0.3948 -0.0397 -0.3927
33048ION     NA48857  13.331   9.456  11.775 -0.0447  0.4159 -0.0551
33049ION     NA48858   4.231   2.684   9.509 -0.0644  0.0738  0.2380
33050ION     NA48859   0.001   9.645  12.252  0.0671  0.1258 -0.4647
33051ION     NA48860  10.860  12.043  10.368  0.0924 -0.0025  0.1694
33052ION     NA48861   7.421  12.594   5.197  0.3308  0.2492 -0.1889
33053ION     NA48862  15.824   8.757   3.908 -0.1656 -0.0262 -0.0978
33054ION     NA48863  14.544  12.778  12.533  0.0056  0.2697  0.1196
33055ION     NA48864   3.987   7.198   9.538  0.3286 -0.0043  0.0972
33056ION     NA48865  16.977  11.213   5.642 -0.1549  0.2057  0.1074
33057ION     NA48866   4.740  10.341   4.760 -0.2830 -0.0371  0.3057
33058ION     NA48867  13.349  14.131  14.809  0.2844  0.1561  0.2456
33059ION     NA48868  13.246   6.091   6.382 -0.1085  0.1887  0.0315
33060ION     NA48869  12.629   1.830   3.477 -0.1418 -0.1581 -0.0605
33061ION     NA48870  18.697   6.830   9.699  0.1270  0.1697  0.2746
33062ION     NA48871  14.989   1.349   5.790  0.0174 -0.1100  0.0936
33063ION     NA48872  17.168  16.974   5.175  0.3380 -0.2277 -0.4041
33064ION     NA48873  15.317   9.227   0.735 -0.0551  0.1630 -0.2922
33065ION     NA48874   9.245   8.176   0.702  0.0216  0.1536  0.1339
33066ION     NA48875   3.103   0.945  12.714 -0.0320  0.3977  0.2950
33067ION     NA48876   4.279   8.061   3.200  0.0590 -0.3428 -0.0403
33068ION     NA48877  16.520  13.618   0.261 -0.0267  0.1806 -0.2474
33069ION     NA48878   9.995  17.090  13.982  0.0315  0.1649  0.0730
33070ION     NA48879  13.851   1.029  12.981  0.0401 -0.2351 -0.2970
33071ION     NA48880   0.093  16.671   5.483  0.4045  0.0650 -0.0160
33072ION     NA48881   1.446  10.986   9.759  0.2289 -0.1361  0.1376
33073ION     NA48882   5.808  11.772   5.123 -0.1532 -0.4449  0.0804
33074ION     NA48883   8.948  10.144   9.981 -0.3028 -0.0700 -0.2518
33075ION     NA48884  15.246   7.017   9.733  0.2458 -0.0020 -0.0482
33076ION     NA48885  10.202  10.411   1.978 -0.0512  0.0759 -0.0438
33077ION     NA48886  17.547   5.083   5.887 -0.0914  0.3189 -0.0851
33078ION     NA48887  14.605  14.052   5.567  0.0822  0.1984 -0.0803
33079ION     NA48888  16.742   2.784  10.268 -0.0069  0.0766 -0.1027
33080ION     NA48889   6.055  15.031   4.879 -0.2774 -0.0139 -0.2776
33081ION     NA48890  10.991   7.020   2.098 -0.0332 -0.1306  0.1367
33082ION     NA48891   1.273  12.037   2.670 -0.0167  0.1538 -0.1453
33083ION     NA48892  13.848  14.873   3.174  0.0734 -0.2465 -0.0561
33084ION     NA48893  16.913  17.303  13.243  0.3894 -0.0172 -0.2317
33085ION     NA48894   9.708   8.363   2.062  0.0352  0.0055 -0.3272
33086ION     NA48895  10.194   6.495   5.549  0.0983 -0.2165 -0.2267
33087ION     NA48896  13.506   0.299   5.939 -0.2233  0.4589  0.1977
33088ION     NA48897   8.024   0.732   3.399  0.2188  0.1382  0.1333
33089ION     NA48898  15.367   9.517  13.137  0.2370  0.0711 -0.0839
33090ION     NA48899  18.970   3.402   0.679 -0.1245  0.1335  0.1571
33091ION     NA48900  18.685   1.298   4.171  0.5648  0.2228 -0.2001
33092ION     NA48901  18.824  15.150  10.646 -0.0057 -0.0646 -0.1400
33093ION     NA48902  16.189   9.539  15.045 -0.0443  0.1413 -0.1983
33094ION     NA48903  15.711  14.099   5.764  0.1719 -0.1174 -0.1851
33095ION     NA48904   7.216   7.034   5.441  0.0309 -0.0075 -0.1967
33096ION     NA48905   6.507   6.051   1.107  0.1182  0.1192  0.0228
33097ION     NA48906  17.000   4.655   2.698 -0.0437  0.2643 -0.0409
33098ION     NA48907  16.644  12.050   1.669 -0.4897  0.0773  0.4974
33099ION     NA48908   1.720  17.225  10.115 -0.0729  0.1915 -0.1160
33100ION     NA48909   3.958  12.985   4.305  0.0858  0.1196  0.3828
33101ION     NA48910  16.987  17.078   2.615  0.1528 -0.2760  0.0152
33102ION     NA48911   8.012   5.882  15.154  0.1751 -0.0938  0.1913
33103ION     NA48912   7.235   2.020   9.460  0.1230 -0.1685  0.2307
33104ION     NA48913   9.424   6.111  10.229 -0.0034 -0.1560  0.2214
33105ION     NA48914   1.557  18.363  14.432 -0.0170  0.2862 -0.1234
33106ION     NA48915  17.257   2.751  12.360 -0.5518 -0.4985  0.0199
33107ION     NA48916   2.308   3.111   5.319 -0.2040  0.0375 -0.0284
33108ION     NA48917  10.660  11.467   0.970  0.1929 -0.1699 -0.1212
33109ION     NA48918  18.256   7.582  14.114 -0.1166  0.2200 -0.2611
33110ION     NA48919   1.821  17.873   3.158  0.3204  0.1719  0.0842
33111ION     NA48920  11.221   3.306  12.614 -0.0685 -0.0095  0.5220
33112ION     NA48921  13.559   4.112  12.007 -0.2500 -0.1132 -0.0161
33113ION     NA48922   9.125   5.651  11.262 -0.3485 -0.2258 -0.3604
33114ION     NA48923   4.949  16.498   9.594 -0.0268  0.1178  0.0609
33115ION     NA48924   2.526  10.113   5.311  0.3080 -0.2251  0.0760
33116ION     NA48925   0.492   9.001  14.355 -0.0195 -0.1639 -0.1548
33117ION     NA48926   9.386   5.606  13.073 -0.2320 -0.0788  0.2822
33118ION     NA48927  15.692   2.724  10.124  0.3163 -0.1957  0.3706
33119ION     NA48928   5.233   7.821   2.947  0.2081  0.2409  0.2176
33120ION     NA48929   3.188  17.740   3.929 -0.2431  0.1563  0.1381
33121ION     NA48930  18.694   2.611   3.208  0.3341 -0.0128 -0.1043
33122ION     NA48931  15.634   6.978   2.090 -0.2474  0.3210 -0.1613
33123ION     NA48932  17.611   0.433   0.462 -0.1829 -0.0249  0.2146
33124ION     NA48933  11.498   7.902   1.780  0.1483 -0.6065 -0.2990
33125ION     NA48934  14.009   7.833   5.608  0.2271  0.1457 -0.0845
33126ION     NA48935   2.132   3.935   1.217  0.1057  0.1633  0.0649
33127ION     NA48936  10.620  13.099   4.869 -0.3253  0.1852 -0.1635
33128ION     NA48937   1.853   8.776   9.664 -0.1522  0.4595  0.2064
33129ION     NA48938   5.212  11.204   9.265 -0.2860 -0.1976 -0.3009
33130ION     NA48939   7.333  17.292   2.766 -0.1083  0.0417 -0.1104
33131ION     NA48940   6.544  11.626   9.258  0.1006  0.0320  0.0357
33132ION     NA48941  17.446   6.079   5.955 -0.0005 -0.0587  0.1368
33133ION     NA48942   6.266   8.171   9.582 -0.2224 -0.1894 -0.0698
33134ION     NA48943   4.647  17.016   5.352  0.0652  0.1058 -0.0171
33135ION     NA48944   5.207  10.230   9.610  0.1844  0.3183  0.0221
33136ION     NA48945   7.406  14.794   9.199 -0.3284  0.0884 -0.0134
33137ION     NA48946   6.817  18.711   9.092  0.5148  0.1798  0.1127
33138ION     NA48947   5.306  12.875   9.632 -0.1055 -0.0292  0.1510
33139ION     NA48948   4.551   7.059   1.254  0.3014 -0.2462  0.1824
33140ION     NA48949   8.207  15.120   2.675  0.1650  0.2101 -0.1217
33141ION     NA48950  14.351   8.862  14.789  0.2046  0.0195 -0.2289
33142ION     NA48951  13.194  16.912   3.490  0.0123 -0.0964 -0.1323
33143ION     NA48952   3.658   7.379  13.275  0.2190  0.0152  0.2529
33144ION     NA48953   0.290   7.653   9.683  0.2991  0.1244  0.1160
33145ION     NA48954  16.507  13.031  10.088  0.2687  0.2203  0.3561
33146ION     NA48955  15.678   7.049   5.947 -0.0042 -0.0967  0.0441
33147ION     NA48956  13.823  15.283  14.741  0.0182 -0.2394  0.2043
33148ION     NA48957   9.725   4.358   5.123  0.0159  0.1014  0.0904
33149ION     NA48958   9.422   6.326   4.981 -0.0224  0.0696 -0.2173
33150ION     NA48959  16.839  14.466  10.310  0.0073 -0.0500  0.0610
33151ION     NA48960  18.580  10.893  14.971  0.0754  0.0033 -0.1154
33152ION     NA48961  11.779  11.888  11.267  0.0457 -0.3168 -0.1302
33153ION     NA48962  13.944   6.037  10.049  0.2356  0.2262 -0.1215
33154ION     NA48963   1.309  11.862   9.589 -0.1775  0.2562  0.1281
33155ION     NA48964  12.862   6.281   3.178  0.0964  0.0737  0.0973
33156ION     NA48965  14.659   3.235   2.607 -0.1886  0.1155 -0.1248
33157ION     NA48966  15.429   5.148   5.805  0.3089  0.3914 -0.0933
33158ION     NA48967   0.793  13.348   9.950  0.2576 -0.0364  0.1480
33159ION     NA48968  14.298   3.706  10.000 -0.2633  0.0275 -0.1862
33160ION     NA48969   2.612   2.950  14.472  0.0397 -0.1455 -0.0393
33161ION     NA48970  15.185   6.380   5.376  0.2663  0.6501 -0.1354
33162ION     NA48971  15.048   0.806  10.217 -0.1475 -0.0007 -0.0477
33163ION     NA48972   1.478   1.182   9.730 -0.2181  0.1998  0.0570
33164ION     NA48973   6.444  13.702   2.867 -0.1682  0.2353  0.1651
33165ION     NA48974  10.849   6.036  14.689  0.0350  0.2271  0.1129
33166ION     NA48975   1.865   3.684  13.233 -0.3869  0.0900 -0.1279
33167ION     NA48976  14.869  14.884   9.837  0.0614 -0.0111 -0.1878
33168ION     NA48977  17.801  15.152   4.100  0.2680 -0.0690  0.1672
33169ION     NA48978  16.510   4.167   3.862 -0.0089  0.0007 -0.0102
33170ION     NA48979  14.419   0.778   5.104 -0.1634 -0.2157  0.4748
33171ION     NA48980   2.062   4.433   9.674  0.1706  0.2252 -0.1979
33172ION     NA48981  18.939   9.021   5.553 -0.0924  0.0378  0.3206
33173ION     NA48982   0.844  15.779  10.143  0.1677 -0.0526  0.0701
33174ION     NA48983   6.316  17.849   1.989 -0.0090  0.2386 -0.1519
33175ION     NA48984  10.565  18.549   5.017  0.0650 -0.0045  0.2351
33176ION     NA48985   4.821  14.014   9.664  0.0790  0.0765  0.1530
33177ION     NA48986   0.668   8.316   5.590 -0.0973  0.2680  0.0915
33178ION     NA48987  15.197   9.920   5.579  0.0005 -0.1338 -0.1339
33179ION     NA48988  11.980   6.763   0.921 -0.1206 -0.0134  0.0958
33180ION     NA48989  13.974   9.960   4.164 -0.1482  0.0167  0.4506
33181ION     NA48990  13.140  11.016   9.855 -0.0417 -0.0339 -0.0315
33182ION     NA48991  16.714   9.526   9.780 -0.2668 -0.2373  0.0774
33183ION     NA48992   4.519   3.938  12.714  0.2233 -0.1504  0.0737
33184ION     NA48993   9.323  12.746   1.430  0.1391  0.0745  0.0439
33185ION     NA48994   1.397   5.526   3.648 -0.0984 -0.3233 -0.0133
33186ION     NA48995   3.831   0.181   9.601 -0.2891 -0.1925 -0.1029
33187ION     NA48996  13.766  11.926  14.410 -0.0206  0.0566  0.0743
33188ION     NA48997  15.169  17.875   3.103 -0.3911  0.0147  0.0472
33189ION     NA48998   0.554   6.626   1.594 -0.1798 -0.2606 -0.0538
33190ION     NA48999  12.799  12.450   3.888 -0.0600  0.3566 -0.0340
33191ION     NA49000   6.625   2.340   5.238 -0.1016 -0.3023  0.0345
33192ION     NA49001   7.193   0.686  13.812 -0.1315  0.0082 -0.2877
33193ION     NA49002   3.572   5.044   5.306  0.1659 -0.1189  0.0448
33194ION     NA49003   2.120   8.728   4.427 -0.1817 -0.0545  0.3381
33195ION     NA49004   7.264  12.854   1.066 -0.2176  0.0962  0.0713
33196ION     NA49005  19.008   9.124   3.720 -0.1528  0.1046  0.0855
33197ION     NA49006  18.249  15.771  10.366 -0.3474  0.1864 -0.3928
33198ION     NA49007  18.559   5.571   4.445  0.0792 -0.2570 -0.1058
33199ION     NA49008  17.378   0.048   5.808  0.1373 -0.0584  0.3956
33200ION     NA49009  15.899   8.202  13.545  0.3748  0.2837 -0.0484
33201ION     NA49010   5.158  17.278   9.458  0.1533  0.1607  0.1569
33202ION     NA49011  12.238   7.676   3.117 -0.0177  0.0488  0.0898
33203ION     NA49012  10.913   0.755   4.189 -0.0713  0.1465 -0.0188
33204ION     NA49013  11.250   8.980   5.440 -0.0016 -0.0767  0.0369
33205ION     NA49014   6.400  16.174   3.996 -0.2673  0.1698 -0.2388
33206ION     NA49015   4.235   3.566   2.432 -0.2312 -0.0092  0.2057
33207ION     NA49016   1.808   0.562   5.267  0.3736 -0.0339  0.2930
33208ION     NA49017  15.174   8.789   3.186  0.0075 -0.0291  0.0131
33209ION     NA49018  11.403   9.798   5.422  0.0634  0.0733 -0.2657
33210ION     NA49019   3.648   4.993   9.615  0.2039 -0.1481 -0.2953
33211ION     NA49020  15.459  16.960   0.590 -0.2074  0.0242 -0.2340
33212ION     NA49021   5.393   0.038   4.891 -0.2645  0.2940  0.2339
33213ION     NA49022  18.221  16.730  10.478 -0.0868 -0.1950  0.0193
33214ION     NA49023  13.849   8.254  14.513 -0.1427  0.0309  0.0103
33215ION     NA49024  10.255   4.733   1.572 -0.0402 -0.1083  0.3726
33216ION     NA49025  14.959   5.107   5.819  0.1257 -0.2496 -0.1399
33217ION     NA49026   1.143  11.100   4.343 -0.1065 -0.0819  0.0775
33218ION     NA49027  10.683  11.936   2.688 -0.1137 -0.2949  0.2049
33219ION     NA49028   7.340  13.976   0.598 -0.2949  0.0851 -0.2614
33220ION     NA49029   4.900  13.898   4.769  0.1616 -0.2704  0.0589
33221ION     NA49030  14.695  10.155  12.437  0.0578 -0.4254 -0.2761
33222ION     NA49031  18.116   0.974  10.088  0.1151 -0.2527  0.0890
33223ION     NA49032   7.123   8.456   9.421  0.1233 -0.0469  0.1311
33224ION     NA49033   7.047  16.540   5.026  0.2481  0.1768  0.0055
33225ION     NA49034  16.353  18.245  14.001 -0.1123 -0.3394  0.2370
33226ION     NA49035   4.712  16.034   9.575  0.2800 -0.2044 -0.0119
33227ION     NA49036   0.147   9.195   4.766 -0.2506  0.0172  0.1551
33228ION     NA49037   2.620  14.575  10.083 -0.1009 -0.1020  0.0199
33229ION     NA49038   6.311   0.329   9.437 -0.0248 -0.0828 -0.2255
33230ION     NA49039   2.070  13.363  10.035  0.4976 -0.0009 -0.0555
33231ION     NA49040  12.197   2.987   9.821 -0.0659 -0.2149 -0.2638
33232ION     NA49041   0.247  15.254   2.707 -0.2194  0.1259  0.6126
33233ION     NA49042  17.102   5.977  15.183  0.2346  0.3462  0.1346
33234ION     NA49043   0.957   9.822   2.335 -0.3232  0.0095  0.2430
33235ION     NA49044  17.196  13.205   6.067 -0.0323  0.1410 -0.1909
33236ION     NA49045  15.362   8.957   5.624 -0.3699 -0.0841  0.0200
33237ION     NA49046   3.872   5.303   4.204 -0.0715  0.2216  0.0181
33238ION     NA49047  17.649  15.613   6.069  0.1071  0.2649 -0.0118
33239ION     NA49048  16.409   8.013  10.027  0.3075 -0.0478  0.0402
33240ION     NA49049  16.566   0.835  12.886  0.0699 -0.1902  0.2448
33241ION     NA49050   3.422  14.277   1.216 -0.1331 -0.0477 -0.1904
33242ION     NA49051   0.596  17.306   4.007  0.0930  0.1036  0.5861
33243ION     NA49052   3.091   0.032   4.837  0.0278 -0.0615 -0.1834
33244ION     NA49053   9.157   0.270   4.598 -0.2043  0.1746  0.1750
33245ION     NA49054  15.007  16.722  10.108 -0.0340  0.0600  0.1213
33246ION     NA49055   9.179   6.223  15.287 -0.0004 -0.5427  0.2431
33247ION     NA49056   3.722  16.476  13.492  0.1268 -0.3360  0.2417
33248ION     NA49057  16.932  17.510  10.423  0.0821 -0.1908  0.0275
33249ION     NA49058   6.875  18.004   9.365 -0.3121 -0.2489  0.2021
33250ION     NA49059  12.027   8.509   5.398 -0.0106  0.3182  0.2346
33251ION     NA49060  17.784   6.052  13.007  0.1028 -0.0659 -0.2234
33252ION     NA49061   9.002  11.312   1.010  0.2155  0.0779  0.4301
33253ION     NA49062  12.167  15.149   0.268 -0.2556  0.2545  0.1524
33254ION     NA49063   3.430  12.026   3.932 -0.6482  0.0387  0.0153
33255ION     NA49064   6.448  12.726   5.311 -0.1365  0.1507  0.2765
33256ION     NA49065  18.175  17.133   0.871 -0.0523 -0.3027 -0.0425
33257ION     NA49066   1.116   0.190   9.929 -0.0050 -0.5807 -0.0276
33258ION     NA49067   2.306   3.629   5.415  0.2454  0.0023  0.1436
33259ION     NA49068  16.848  16.319  10.283  0.1886 -0.3106 -0.1083
33260ION     NA49069   4.397   7.874   9.723  0.1020  0.3205  0.1633
33261ION     NA49070  15.086   7.926   9.864 -0.0059  0.0304  0.0374
33262ION     NA49071  15.236   8.980   9.640 -0.1081 -0.2107  0.4023
33263ION     NA49072   7.760  13.178   1.981 -0.2074  0.2860  0.0776
33264ION     NA49073   8.259  13.370   9.342 -0.1905 -0.1356  0.0501
33265ION     NA49074  16.577   0.353   5.847  0.3090 -0.3730  0.1090
33266ION     NA49075  18.674  14.800   6.036  0.2462 -0.0546 -0.1245
33267ION     NA49076  15.679   2.025   5.718  0.5515 -0.0852 -0.0280
33268ION     NA49077   1.100  13.405   2.870  0.3584 -0.1314  0.0340
33269ION     NA49078  18.774  11.298  14.205 -0.1068 -0.2264  0.3220
33270ION     NA49079   6.224   3.078   9.556  0.2266  0.4245 -0.0971
33271ION     NA49080  16.696   1.599  10.296  0.3527 -0.2576  0.2278
33272ION     NA49081  16.681   2.811   6.114 -0.1485 -0.3441  0.0739
33273ION     NA49082  15.248  15.774   9.995  0.1508 -0.1648  0.1227
33274ION     NA49083  17.298   8.491   9.894  0.1759 -0.2721  0.0763
33275ION     NA49084   2.196  12.596   9.536 -0.0554  0.1061 -0.1275
33276ION     NA49085   8.042   3.937   1.629  0.1432  0.2751  0.1498
33277ION     NA49086   1.723  15.008  13.260 -0.3072 -0.2138 -0.1376
33278ION     NA49087  15.266  15.500   2.026 -0.1143  0.0740  0.2440
33279ION     NA49088   9.000  10.096   4.728 -0.0848  0.1103 -0.3044
33280ION     NA49089   1.280   4.667   9.934 -0.1730  0.0108  0.2805
33281ION     NA49090  13.801  14.416   0.354  0.1750 -0.0360  0.1298
33282ION     NA49091   6.738   4.654   5.138  0.2273 -0.1181  0.0237
33283ION     NA49092   6.364  14.534  14.485  0.0115  0.5396  0.1190
33284ION     NA49093   3.938  16.387  14.724 -0.1935  0.0905 -0.2199
33285ION     NA49094   0.465  12.236  10.083  0.2498 -0.3123  0.1594
33286ION     NA49095  13.389   6.797   9.988 -0.1280 -0.0338  0.2787
33287ION     NA49096  15.051   3.296   9.889 -0.1142 -0.2762  0.3386
33288ION     NA49097   1.403   2.068   9.642 -0.1177 -0.0637  0.0477
33289ION     NA49098  10.697   7.839  10.007  0.1841 -0.2353 -0.0800
33290ION     NA49099  10.450  13.501   9.626  0.1992 -0.0001  0.3957
33291ION     NA49100   5.760  10.558   0.438  0.0978  0.0731  0.1696
33292ION     NA49101   2.398   7.072   9.804  0.1464 -0.0591 -0.1237
33293ION     NA49102   0.514  11.302  10.059 -0.1214  0.1582  0.2739
33294ION     NA49103   5.300  13.610  11.264 -0.1449  0.1161 -0.1700
33295ION     NA49104   3.509  14.716   4.826 -0.0117  0.2936  0.0425
33296ION     NA49105   7.210  11.713   5.120 -0.1810 -0.0518  0.2890
33297ION     NA49106   1.232  13.872  13.971  0.1524 -0.0151  0.0772
33298ION     NA49107  15.582  15.059   5.743  0.1605  0.0085  0.0040
33299ION     NA49108  10.406   7.855   2.235  0.1673  0.0015 -0.1024
33300ION     NA49109  16.319  16.260  15.184 -0.1002  0.1150 -0.0507
33301ION     NA49110   7.059   1.103   9.941 -0.3121  0.0313  0.0145
33302ION     NA49111  11.572  10.451  12.696 -0.0003 -0.2042 -0.1375
33303ION     NA49112  16.228   3.434  10.046 -0.0737 -0.1389 -0.1366
33304ION     NA49113  14.296   2.417   2.226  0.0039 -0.1287 -0.0575
33305ION     NA49114  15.266   1.791  12.657 -0.0877 -0.5127 -0.3888
33306ION     NA49115  18.629   0.003   5.056  0.1452  0.1748  0.1647
33307ION     NA49116   3.871   5.966   9.622  0.1497 -0.2498 -0.0396
33308ION     NA49117   9.495   6.907   5.652 -0.0441 -0.0462  0.2014
33309ION     NA49118   5.000   2.142  15.028 -0.0702 -0.1598  0.0767
33310ION     NA49119  17.672  13.116  13.438 -0.0553  0.2381 -0.0501
33311ION     NA49120  13.283   3.879   5.609  0.1085  0.1451  0.1922
33312ION     NA49121   1.002  17.660  12.837 -0.1383  0.2910  0.1941
33313ION     NA49122   3.780  11.308  13.066 -0.0955  0.1060 -0.0375
33314ION     NA49123  14.605  12.378  10.180  0.0665 -0.2342  0.0997
33315ION     NA49124  12.716  17.216   9.990 -0.0699  0.0489 -0.0309
33316ION     NA49125   4.427  14.763   9.529 -0.2520 -0.0197 -0.0464
33317ION     NA49126   7.994   9.531   5.155 -0.0183  0.1325  0.3734
33318ION     NA49127   4.865  16.870  14.400  0.0664 -0.1023  0.2229
33319ION     NA49128  13.255   4.436   2.540  0.1860 -0.0119  0.1508
33320ION     NA49129   4.935   8.861   5.065 -0.0022 -0.0560  0.0430
33321ION     NA49130  18.301  13.923   0.948  0.3552  0.1181  0.0258
33322ION     NA49131   5.590  14.380   9.484  0.1025 -0.1234  0.1688
33323ION     NA49132  16.482  18.983  12.729 -0.1449 -0.0607  0.1075
33324ION     NA49133  10.945   4.680   0.774 -0.0021 -0.3221  0.1616
33325ION     NA49134   3.374  15.673  11.641 -0.2775 -0.0823 -0.1626
33326ION     NA49135  16.665   7.657   0.862 -0.0160 -0.0875 -0.4445
33327ION     NA49136  18.182   0.205   5.669  0.0128 -0.0730  0.3218
33328ION     NA49137  16.902   1.613  14.564 -0.1000  0.0081  0.0091
33329ION     NA49138   7.387   6.869   3.153 -0.2865 -0.2804 -0.2289
33330ION     NA49139   5.792   6.567   0.778 -0.0464  0.1065  0.2426
33331ION     NA49140  14.650   6.348  10.249  0.0678 -0.0585 -0.0808
33332ION     NA49141  10.474   1.328  12.594 -0.0577 -0.1615 -0.0169
33333ION     NA49142  11.510  13.182  10.143  0.3239  0.2952 -0.0028
33334ION     NA49143  13.197  15.422  10.067  0.1924  0.1335  0.0595
33335ION     NA49144   4.647  15.948  14.207  0.0251 -0.1245 -0.2225
33336ION     NA49145  15.146  11.564   1.118  0.2773 -0.0544 -0.2887
33337ION     NA49146   5.640  13.610   9.596  0.0181  0.0298 -0.1044
33338ION     NA49147   0.273  12.348   1.492  0.0528 -0.1623  0.1058
33339ION     NA49148  16.696   4.808   4.725 -0.2582 -0.1401 -0.2584
33340ION     NA49149   9.980  12.279   5.043  0.0643 -0.0028  0.1139
33341ION     NA49150   0.741   4.317   5.647 -0.0646  0.1628  0.2498
33342ION     NA49151   4.365  11.425   0.853 -0.1911 -0.2451  0.2709
33343ION     NA49152   1.961   7.571   2.311 -0.1252 -0.0673  0.3055
33344ION     NA49153  12.336  14.924  14.148  0.2287  0.2790 -0.0219
33345ION     NA49154   5.670   9.496   9.319  0.0009  0.1505 -0.0420
33346ION     NA49155   2.685   9.873   9.713 -0.2617 -0.1772  0.1478
33347ION     NA49156  17.282  14.604   5.715  0.0442  0.0956  0.0967
33348ION     NA49157  11.490  16.346   9.808  0.1684  0.1313  0.2960
33349ION     NA49158   7.282   0.049   1.379  0.1523  0.1360  0.1958
33350ION     NA49159  14.631  17.101  15.260  0.1078 -0.0154 -0.2338
33351ION     NA49160  11.800  14.560   9.689 -0.3702  0.2240  0.0347
33352ION     NA49161  10.143  17.849   9.917  0.1077 -0.2053  0.0717
33353ION     NA49162  16.311  17.249   4.933  0.1528 -0.3444 -0.2910
33354ION     NA49163  13.300  17.919  10.115  0.0567  0.2373 -0.2167
33355ION     NA49164  15.469  18.533  10.141  0.0257 -0.0528  0.1121
33356ION     NA49165   7.858   3.450   4.522 -0.0059  0.2518  0.1154
33357ION     NA49166  11.909   5.372   5.731  0.0089 -0.1458 -0.1996
33358ION     NA49167  10.832  12.688   9.364  0.1709 -0.2124 -0.3114
33359ION     NA49168   6.341  16.011   5.401  0.0023  0.0385  0.0606
33360ION     NA49169  12.249  13.557  14.125 -0.2028 -0.2354 -0.0057
33361ION     NA49170   4.134  12.216   5.367 -0.1191  0.3118  0.1760
33362ION     NA49171  16.136  12.078   5.659  0.0400  0.1074 -0.0026
33363ION     NA49172   6.871   4.530  14.503  0.1567  0.2061 -0.3222
33364ION     NA49173   1.583  11.029   1.144 -0.2119  0.0544 -0.3686
33365ION     NA49174  14.871   7.191  13.134 -0.0358 -0.4154 -0.3130
33366ION     NA49175  16.831  16.215   2.469 -0.1286  0.2157 -0.1519
33367ION     NA49176   9.559   3.358   1.018 -0.2379  0.2700  0.0252
33368ION     NA49177   4.172   3.142   3.791  0.0264  0.0917 -0.0075
33369ION     NA49178  11.681  16.368   0.992  0.1053 -0.1846  0.0492
33370ION     NA49179   6.819   2.959   5.247 -0.2114  0.0874 -0.0881
33371ION     NA49180  16.811   5.947   0.567  0.1265 -0.2007 -0.1686
33372ION     NA49181  16.692   9.482   2.385  0.0154  0.1358 -0.1874
33373ION     NA49182  15.835   6.471   9.908  0.0611  0.0537  0.0252
33374ION     NA49183  11.643   3.481   3.106  0.0206 -0.0507  0.2033
33375ION     NA49184   9.528   0.396   9.844 -0.4532  0.0447  0.0319
33376ION     NA49185   8.672   4.815   9.443  0.0008 -0.1694 -0.0778
33377ION     NA49186   6.133   5.748  10.006 -0.1955 -0.2960  0.1928
33378ION     NA49187  12.896  14.441  10.736 -0.1345 -0.0429  0.0769
33379ION     NA49188  15.910   1.963  10.311 -0.1089  0.1093 -0.2901
33380ION     NA49189  13.614  17.896  14.002 -0.1110  0.0080  0.2758
33381ION     NA49190  19.025   5.681   9.647  0.1382 -0.1028 -0.1895
33382ION     NA49191   0.069  17.788   2.578  0.4170  0.2176  0.0534
33383ION     NA49192  16.701   6.772   5.966 -0.0209  0.0914 -0.1659
33384ION     NA49193   9.262   1.189   5.735 -0.2265 -0.0954 -0.0501
33385ION     NA49194   8.702  11.523   9.465  0.0549 -0.1858 -0.1311
33386ION     NA49195  17.860   0.025   2.995 -0.1127 -0.0645 -0.1687
33387ION     NA49196   3.886  17.715   9.855 -0.1625 -0.0830  0.1308
33388ION     NA49197  10.268  15.832   9.959 -0.0814 -0.0603  0.0739
33389ION     NA49198   2.590   5.482   5.108 -0.1680  0.2631 -0.2168
33390ION     NA49199  13.137   1.932   0.788 -0.1011 -0.3573  0.0059
33391ION     NA49200  15.352   3.985   2.703 -0.3249 -0.0613 -0.0985
33392ION     NA49201   8.564  17.013   5.593  0.1837  0.1174  0.1741
33393ION     NA49202   7.334  17.876   4.550 -0.3203 -0.0919 -0.1324
33394ION     NA49203   9.694   7.083  14.369 -0.0777  0.2050  0.1976
33395ION     NA49204  11.553  17.508  11.895  0.0707 -0.0238  0.2405
33396ION     NA49205   1.772   7.488   1.175  0.0947 -0.1963 -0.2104
33397ION     NA49206  17.625  16.467   4.105 -0.1703  0.0278 -0.1236
33398ION     NA49207   7.289   4.151   4.233  0.3185 -0.1649 -0.1389
  19.03594  19.03594  15.28800
