INSANE! Membrane UpperLeaflet>loPI:POPI:DPPI:PYPI:ERGO=180.0:5.0:3.0:2.0:10.0 LowerLeaflet>PSPI:POPI:POPS:YOPS:POPE:YOPE:POPC:YOPC:ERGO=6.0:14.0:21.0:9.0:9.0:21.0:12.0:48.0:60.0
48841
    1loPI    C1    1   0.690  14.238  11.299 -0.1144 -0.0702  0.0615
    1loPI    C2    2   0.600  14.424  11.642 -0.1255  0.0652 -0.0143
    1loPI    C3    3   0.648  14.027  11.637  0.2239  0.0994  0.2152
    1loPI   PO4    4   0.875  14.249  11.061  0.4802 -0.2018  0.0860
    1loPI   GL1    5   0.858  14.206  10.688 -0.2146 -0.3091  0.0091
    1loPI   GL2    6   0.753  14.465  10.537  0.1333  0.0172 -0.1733
    1loPI   C1A    7   0.885  14.002  10.223 -0.2399 -0.3016 -0.0785
    1loPI   C2A    8   0.836  13.984   9.817 -0.3320  0.1591 -0.0121
    1loPI   C3A    9   0.711  13.920   9.371 -0.1341 -0.0816 -0.1412
    1loPI   C4A   10   0.706  13.851   9.007  0.0909 -0.0281  0.3173
    1loPI   C5A   11   0.902  13.796   8.560  0.0007  0.0058  0.1396
    1loPI   C6A   12   1.384  13.703   8.335 -0.0022  0.1719  0.0077
    1loPI   C1B   13   0.572  14.415  10.104  0.0114  0.0224  0.0004
    1loPI   C2B   14   0.565  14.376   9.728  0.2422  0.3172  0.0324
    1loPI   C3B   15   0.511  14.369   9.262  0.4666 -0.1892 -0.3205
    1loPI   C4B   16   0.602  14.355   8.821  0.0573  0.0691  0.2689
    2loPI    C1   17  14.311  14.555  11.191  0.0028  0.0707  0.1819
    2loPI    C2   18  14.455  14.639  11.554 -0.0169 -0.0799  0.2254
    2loPI    C3   19  14.262  14.295  11.491 -0.0056 -0.0583  0.0698
    2loPI   PO4   20  14.532  14.597  11.031  0.0470 -0.1154  0.2397
    2loPI   GL1   21  14.687  14.560  10.592 -0.0198  0.0784  0.3613
    2loPI   GL2   22  14.351  14.671  10.551 -0.0423  0.1934 -0.1915
    2loPI   C1A   23  15.116  14.539  10.361  0.1930 -0.0234 -0.1864
    2loPI   C2A   24  15.112  14.535   9.893 -0.4683  0.0066  0.0711
    2loPI   C3A   25  15.174  14.491   9.465  0.3018  0.1305  0.0645
    2loPI   C4A   26  15.238  14.539   9.144  0.0121 -0.0073  0.0532
    2loPI   C5A   27  15.257  14.661   8.708  0.0260 -0.2218 -0.0315
    2loPI   C6A   28  15.026  14.703   8.451 -0.2020  0.0648 -0.2256
    2loPI   C1B   29  14.608  14.594  10.095  0.0368  0.3098  0.0439
    2loPI   C2B   30  14.732  14.639   9.659  0.0459 -0.0238  0.0870
    2loPI   C3B   31  14.664  14.635   9.212  0.0600 -0.0713 -0.0074
    2loPI   C4B   32  14.800  14.804   8.928 -0.1903  0.1316  0.0003
    3loPI    C1   33  13.228   7.074  10.986 -0.0971  0.2172  0.0552
    3loPI    C2   34  13.277   6.884  11.335  0.1108 -0.0713 -0.1264
    3loPI    C3   35  13.076   7.229  11.322  0.1480 -0.0288  0.2857
    3loPI   PO4   36  13.443   6.948  10.827 -0.1640  0.0926 -0.1429
    3loPI   GL1   37  13.562   6.776  10.544 -0.4029 -0.1990  0.2143
    3loPI   GL2   38  13.425   6.464  10.507 -0.1534  0.1849  0.0598
    3loPI   C1A   39  13.669   6.960  10.168  0.3720 -0.0913  0.0364
    3loPI   C2A   40  13.782   6.837   9.887 -0.0184  0.1204  0.0896
    3loPI   C3A   41  13.755   6.828   9.454 -0.1000  0.0921 -0.2069
    3loPI   C4A   42  13.842   6.843   9.069 -0.1247 -0.1881 -0.1610
    3loPI   C5A   43  13.752   6.925   8.625  0.1620 -0.0564 -0.0085
    3loPI   C6A   44  13.406   6.996   8.331 -0.2089 -0.3667 -0.3982
    3loPI   C1B   45  13.405   6.551  10.068 -0.1002  0.1899  0.0546
    3loPI   C2B   46  13.360   6.578   9.618  0.2463 -0.1620  0.3059
    3loPI   C3B   47  13.494   6.527   9.100 -0.0895 -0.0147  0.0210
    3loPI   C4B   48  13.601   6.444   8.588  0.0409  0.2623  0.3163
    4loPI    C1   49  17.016  15.799  10.871  0.0066  0.0947 -0.0978
    4loPI    C2   50  16.955  16.065  11.163  0.0283 -0.0960  0.0832
    4loPI    C3   51  17.088  15.699  11.252  0.2744 -0.0767 -0.1905
    4loPI   PO4   52  16.799  15.871  10.680 -0.1673 -0.0433 -0.1797
    4loPI   GL1   53  16.559  15.730  10.371  0.0904  0.2173 -0.3488
    4loPI   GL2   54  16.305  15.741  10.369 -0.2819  0.1190 -0.2280
    4loPI   C1A   55  16.841  15.751   9.994 -0.0005  0.2773 -0.3732
    4loPI   C2A   56  16.690  15.595   9.605  0.1040 -0.1540  0.0263
    4loPI   C3A   57  16.832  15.695   9.191 -0.0756 -0.0471  0.1072
    4loPI   C4A   58  16.733  15.647   8.790 -0.1051  0.4526 -0.1006
    4loPI   C5A   59  16.576  15.536   8.431 -0.3393  0.2387 -0.0894
    4loPI   C6A   60  16.340  15.629   8.125 -0.1185  0.0312 -0.0166
    4loPI   C1B   61  16.284  15.609   9.979 -0.1081  0.1085  0.1908
    4loPI   C2B   62  16.165  15.605   9.535  0.1507 -0.1090  0.1495
    4loPI   C3B   63  16.216  15.803   9.196 -0.2556  0.4289  0.0694
    4loPI   C4B   64  16.203  15.874   8.664  0.0940  0.1282  0.0059
    5loPI    C1   65   1.564  17.568  10.756 -0.3221 -0.0513  0.1258
    5loPI    C2   66   1.457  17.368  11.085 -0.0822  0.1406  0.3239
    5loPI    C3   67   1.361  17.755  11.046  0.0217  0.1582  0.2376
    5loPI   PO4   68   1.447  17.480  10.552  0.1040  0.1116  0.3447
    5loPI   GL1   69   1.311  17.452  10.163 -0.1783 -0.3138  0.1467
    5loPI   GL2   70   0.936  17.581  10.205 -0.0225 -0.1811  0.1414
    5loPI   C1A   71   1.359  17.455   9.686  0.4119  0.1414  0.2675
    5loPI   C2A   72   1.406  17.509   9.191 -0.0926 -0.0230 -0.1823
    5loPI   C3A   73   1.486  17.501   8.772 -0.0046  0.0180 -0.0182
    5loPI   C4A   74   1.761  17.723   8.515  0.0113 -0.0718  0.0141
    5loPI   C5A   75   2.173  17.666   8.456  0.0120  0.0434  0.0738
    5loPI   C6A   76   2.456  17.991   8.466  0.2357  0.0617  0.0750
    5loPI   C1B   77   0.924  17.548   9.801 -0.1236 -0.0351 -0.1300
    5loPI   C2B   78   0.870  17.578   9.392 -0.0879  0.0706  0.1611
    5loPI   C3B   79   0.902  17.644   8.967 -0.0758  0.0157 -0.0021
    5loPI   C4B   80   0.998  17.565   8.585 -0.4616 -0.3603 -0.3524
    6loPI    C1   81   0.694  17.647  10.706 -0.0276  0.0855 -0.0002
    6loPI    C2   82   0.912  17.578  11.034 -0.3101 -0.0409  0.1651
    6loPI    C3   83   0.958  17.347  10.710  0.0474  0.1522  0.0728
    6loPI   PO4   84   0.486  17.729  10.696 -0.0191 -0.2916 -0.2791
    6loPI   GL1   85   0.222  17.725  10.384 -0.2044 -0.1555 -0.1081
    6loPI   GL2   86   0.150  18.000  10.366  0.0417 -0.0765  0.2728
    6loPI   C1A   87   0.320  17.649  10.000 -0.1371  0.0450 -0.0234
    6loPI   C2A   88   0.415  17.653   9.592 -0.1713 -0.2165  0.2609
    6loPI   C3A   89   0.397  17.599   9.177 -0.0893  0.1546  0.2269
    6loPI   C4A   90   0.337  17.735   8.777  0.0378 -0.2267 -0.0146
    6loPI   C5A   91   0.453  17.468   8.369  0.4181  0.0234  0.0372
    6loPI   C6A   92   0.328  17.442   7.992  0.1268 -0.2677 -0.1276
    6loPI   C1B   93   0.028  18.121   9.964 -0.0536 -0.2216 -0.1655
    6loPI   C2B   94   0.181  18.124   9.571 -0.0107 -0.0405 -0.0493
    6loPI   C3B   95   0.149  18.108   9.164 -0.3064 -0.0157  0.1511
    6loPI   C4B   96   0.202  18.205   8.830 -0.0454  0.2983  0.0915
    7loPI    C1   97   3.175   7.347  10.837 -0.0187 -0.0409  0.1204
    7loPI    C2   98   3.291   7.690  11.005  0.1970 -0.0511 -0.0041
    7loPI    C3   99   3.510   7.359  11.055  0.1754 -0.0911 -0.1692
    7loPI   PO4  100   3.140   7.431  10.641  0.0850 -0.4812  0.2634
    7loPI   GL1  101   3.029   7.645  10.346 -0.2680 -0.3484 -0.0579
    7loPI   GL2  102   3.273   7.494  10.164  0.1601  0.1020 -0.1312
    7loPI   C1A  103   2.784   7.556  10.095  0.3712 -0.0681  0.0031
    7loPI   C2A  104   2.748   7.471   9.685 -0.2087 -0.0753  0.1779
    7loPI   C3A  105   2.655   7.540   9.205 -0.2727  0.1269 -0.2076
    7loPI   C4A  106   2.571   7.493   8.799  0.0329 -0.0016  0.2335
    7loPI   C5A  107   2.671   7.560   8.355 -0.1607 -0.0298  0.1350
    7loPI   C6A  108   2.790   8.030   8.129 -0.0886 -0.2428  0.3501
    7loPI   C1B  109   3.287   7.484   9.727  0.0597  0.1615  0.0565
    7loPI   C2B  110   3.230   7.433   9.321  0.0638 -0.0124  0.1856
    7loPI   C3B  111   3.149   7.499   8.833 -0.2312 -0.0203  0.2659
    7loPI   C4B  112   3.061   7.205   8.516  0.0600  0.4814  0.2058
    8loPI    C1  113   2.060   6.103  11.035  0.2224 -0.2248 -0.3063
    8loPI    C2  114   2.321   6.024  11.328 -0.0527 -0.0767 -0.0148
    8loPI    C3  115   2.160   6.389  11.296 -0.2716 -0.1832 -0.1524
    8loPI   PO4  116   2.210   5.953  10.849  0.2880 -0.0341  0.1961
    8loPI   GL1  117   2.391   5.731  10.493 -0.0279 -0.0227 -0.0794
    8loPI   GL2  118   2.728   5.905  10.440  0.1222  0.3408 -0.2500
    8loPI   C1A  119   2.487   5.669   9.976 -0.2898  0.0483 -0.0824
    8loPI   C2A  120   2.526   5.730   9.553 -0.0349 -0.4160 -0.0731
    8loPI   C3A  121   2.325   5.622   9.142  0.2857 -0.2971 -0.1013
    8loPI   C4A  122   2.461   5.641   8.790 -0.1409 -0.0855  0.2467
    8loPI   C5A  123   2.581   5.522   8.390 -0.3520 -0.0224 -0.1657
    8loPI   C6A  124   2.940   5.632   8.279  0.1332  0.0545 -0.0641
    8loPI   C1B  125   2.751   6.102  10.026 -0.0257 -0.0827  0.0927
    8loPI   C2B  126   2.768   6.197   9.555 -0.0925 -0.1879 -0.1416
    8loPI   C3B  127   2.767   6.110   9.098 -0.0435  0.1016 -0.1840
    8loPI   C4B  128   2.703   6.033   8.675  0.0961  0.0405  0.1708
    9loPI    C1  129   7.745  14.495  10.392  0.1765 -0.0719  0.0602
    9loPI    C2  130   7.349  14.529  10.438  0.1934  0.1577  0.0511
    9loPI    C3  131   7.586  14.510  10.759  0.1838  0.1303  0.0566
    9loPI   PO4  132   7.829  14.700  10.234  0.0090 -0.0922  0.2446
    9loPI   GL1  133   7.989  14.635   9.884  0.5006 -0.3638 -0.0306
    9loPI   GL2  134   8.080  14.321   9.639  0.0174  0.0862 -0.0142
    9loPI   C1A  135   7.846  14.758   9.465  0.0544  0.1738 -0.0316
    9loPI   C2A  136   7.824  14.839   8.993  0.1490 -0.1543  0.1597
    9loPI   C3A  137   7.995  14.932   8.558  0.1894  0.0381  0.1383
    9loPI   C4A  138   7.821  14.921   8.076  0.0393 -0.1056 -0.1107
    9loPI   C5A  139   7.860  14.578   7.793  0.0024 -0.0581  0.0664
    9loPI   C6A  140   7.477  14.416   7.559 -0.1442  0.3321  0.0258
    9loPI   C1B  141   8.148  14.515   9.207 -0.1728 -0.1673  0.0453
    9loPI   C2B  142   8.351  14.878   8.976  0.2950  0.1794  0.3183
    9loPI   C3B  143   8.535  15.104   8.571  0.3493  0.0756 -0.1241
    9loPI   C4B  144   8.829  14.974   8.210  0.3243 -0.2217  0.0741
   10loPI    C1  145  16.461  17.361  11.353 -0.0297 -0.2176 -0.0570
   10loPI    C2  146  16.531  17.067  11.091 -0.0276 -0.1796 -0.0993
   10loPI    C3  147  16.170  17.239  11.107  0.0224 -0.0639 -0.1970
   10loPI   PO4  148  16.789  17.460  11.352 -0.1215  0.0076 -0.1433
   10loPI   GL1  149  16.876  17.937  10.941 -0.2181  0.0882 -0.1240
   10loPI   GL2  150  17.045  18.127  10.774 -0.0908 -0.1065  0.2072
   10loPI   C1A  151  16.789  17.814  10.433 -0.0230  0.1726 -0.2229
   10loPI   C2A  152  16.811  17.945   9.984 -0.1961  0.0999 -0.0464
   10loPI   C3A  153  16.875  17.967   9.636  0.1632  0.1190  0.0234
   10loPI   C4A  154  16.888  17.951   9.171 -0.1366 -0.3324 -0.2323
   10loPI   C5A  155  16.806  17.989   8.772 -0.1049 -0.2474  0.0629
   10loPI   C6A  156  16.536  17.979   8.407 -0.6233  0.2204 -0.0449
   10loPI   C1B  157  17.143  18.201  10.327  0.4117  0.1292  0.2127
   10loPI   C2B  158  17.166  18.366   9.928  0.0132 -0.0625  0.1095
   10loPI   C3B  159  17.174  18.359   9.472 -0.1635 -0.2354 -0.4267
   10loPI   C4B  160  17.323  18.446   8.990  0.1923  0.1431  0.1152
   11loPI    C1  161   6.452   4.740  10.946 -0.1092  0.0396 -0.3463
   11loPI    C2  162   6.695   4.467  11.108 -0.1897 -0.0346 -0.3504
   11loPI    C3  163   6.748   4.855  11.189 -0.0197 -0.0435 -0.4152
   11loPI   PO4  164   6.514   4.673  10.640 -0.0691  0.1795 -0.0758
   11loPI   GL1  165   6.364   4.477  10.298 -0.2960 -0.1801 -0.4794
   11loPI   GL2  166   6.648   4.451  10.123 -0.0276  0.0184 -0.1301
   11loPI   C1A  167   6.310   4.669   9.886 -0.5363 -0.0940 -0.2067
   11loPI   C2A  168   6.444   4.744   9.507  0.0597 -0.2621 -0.0903
   11loPI   C3A  169   6.348   4.712   9.049 -0.0231  0.1115  0.1131
   11loPI   C4A  170   6.170   4.603   8.716 -0.2259  0.3423  0.0388
   11loPI   C5A  171   5.769   4.557   8.509 -0.1776  0.2903  0.1718
   11loPI   C6A  172   5.560   4.958   8.465  0.1674  0.0297  0.1389
   11loPI   C1B  173   6.797   4.340   9.777 -0.0837 -0.0962 -0.0727
   11loPI   C2B  174   6.764   4.331   9.357  0.2646 -0.0690  0.4612
   11loPI   C3B  175   6.792   4.502   8.999 -0.0760 -0.4844  0.2344
   11loPI   C4B  176   6.672   4.507   8.628 -0.0926  0.0067  0.1749
   12loPI    C1  177   8.290  12.875  10.585  0.0272  0.1094 -0.0983
   12loPI    C2  178   8.469  13.074  10.882  0.2667 -0.2820  0.0270
   12loPI    C3  179   8.074  13.010  10.894  0.2220 -0.0055  0.0913
   12loPI   PO4  180   8.390  12.980  10.315 -0.1707  0.1277  0.1161
   12loPI   GL1  181   8.377  12.944   9.900  0.1489  0.0276 -0.3046
   12loPI   GL2  182   8.140  13.085   9.724 -0.3678  0.1485 -0.2363
   12loPI   C1A  183   8.372  12.609   9.611  0.2136 -0.0001 -0.1893
   12loPI   C2A  184   8.266  12.566   9.165  0.4008 -0.1122 -0.2916
   12loPI   C3A  185   8.082  12.468   8.760  0.1134  0.0503 -0.2506
   12loPI   C4A  186   7.946  12.432   8.343 -0.3295  0.1094  0.0070
   12loPI   C5A  187   7.944  12.265   7.986  0.3319 -0.3123  0.0378
   12loPI   C6A  188   7.824  12.145   7.487  0.1066 -0.0710 -0.0330
   12loPI   C1B  189   8.105  13.051   9.322 -0.1066  0.1127 -0.2097
   12loPI   C2B  190   7.872  13.104   8.880  0.3466  0.1214  0.3686
   12loPI   C3B  191   7.775  13.093   8.495 -0.0148 -0.0765  0.1307
   12loPI   C4B  192   7.933  13.030   8.125  0.0061  0.0890 -0.2025
   13loPI    C1  193   0.287  12.175  10.970 -0.0894  0.0379 -0.0146
   13loPI    C2  194   0.297  12.219  11.368  0.2527 -0.1665  0.0041
   13loPI    C3  195   0.178  11.873  11.208  0.3379 -0.1642 -0.0653
   13loPI   PO4  196   0.146  12.326  10.841  0.1387 -0.0411 -0.1210
   13loPI   GL1  197  -0.052  12.175  10.476  0.1255  0.0452  0.1484
   13loPI   GL2  198   0.320  12.126  10.454  0.1474  0.0790 -0.0337
   13loPI   C1A  199  -0.008  12.177  10.011  0.4717  0.0236 -0.0681
   13loPI   C2A  200   0.017  12.075   9.609 -0.0598 -0.2181 -0.0511
   13loPI   C3A  201  -0.018  12.171   9.186 -0.0152 -0.0984 -0.2904
   13loPI   C4A  202  -0.026  12.102   8.661 -0.2444 -0.2039 -0.1968
   13loPI   C5A  203   0.119  12.168   8.201  0.1358  0.1275 -0.0545
   13loPI   C6A  204   0.193  12.207   7.842  0.1300  0.1619 -0.4064
   13loPI   C1B  205   0.478  12.039  10.094  0.0427 -0.1605  0.1045
   13loPI   C2B  206   0.638  12.008   9.732  0.0912  0.1156 -0.1154
   13loPI   C3B  207   0.475  11.996   9.300 -0.0057 -0.0837 -0.0332
   13loPI   C4B  208   0.429  12.226   8.815  0.2780  0.1928 -0.1573
   14loPI    C1  209  17.442  12.575  11.211 -0.1653  0.1141  0.2656
   14loPI    C2  210  17.808  12.509  11.357 -0.1049  0.3936  0.2456
   14loPI    C3  211  17.495  12.312  11.507  0.0988 -0.1256  0.0119
   14loPI   PO4  212  17.518  12.596  10.978  0.1637  0.1051 -0.0841
   14loPI   GL1  213  17.460  12.356  10.704 -0.2235  0.2385  0.1476
   14loPI   GL2  214  17.238  12.542  10.577 -0.0765 -0.0680 -0.3615
   14loPI   C1A  215  17.521  12.181  10.364 -0.1569  0.0280 -0.3373
   14loPI   C2A  216  17.446  12.318  10.031 -0.0116 -0.0229  0.1802
   14loPI   C3A  217  17.539  12.214   9.588 -0.0822  0.1681  0.2426
   14loPI   C4A  218  17.409  12.127   9.125 -0.2792  0.1451  0.1504
   14loPI   C5A  219  17.471  12.238   8.720 -0.2249  0.0523  0.0288
   14loPI   C6A  220  17.320  12.601   8.586  0.2718  0.1115 -0.1074
   14loPI   C1B  221  17.307  12.805  10.298 -0.0055  0.3336  0.1044
   14loPI   C2B  222  17.286  12.822   9.895 -0.0663  0.1725 -0.1409
   14loPI   C3B  223  17.346  12.706   9.482 -0.1745  0.0766 -0.2749
   14loPI   C4B  224  17.209  12.700   9.000 -0.2029  0.1320 -0.0186
   15loPI    C1  225  16.469  16.190  10.938  0.1478  0.1427  0.2048
   15loPI    C2  226  16.197  16.050  11.196 -0.0565 -0.2234 -0.1954
   15loPI    C3  227  16.533  15.844  11.128 -0.0221 -0.1494 -0.2519
   15loPI   PO4  228  16.273  16.224  10.726  0.2227  0.1061 -0.0836
   15loPI   GL1  229  16.045  16.185  10.382  0.1513  0.0300 -0.2053
   15loPI   GL2  230  15.837  16.025  10.345  0.0530 -0.0857  0.0559
   15loPI   C1A  231  16.057  16.073   9.891  0.2764 -0.0831 -0.0002
   15loPI   C2A  232  16.088  16.243   9.408 -0.1051  0.2909 -0.0577
   15loPI   C3A  233  16.112  16.265   8.985  0.4712  0.0481  0.0499
   15loPI   C4A  234  16.081  16.328   8.513  0.0661  0.0002 -0.0837
   15loPI   C5A  235  16.252  16.110   8.102  0.1233 -0.0085  0.0652
   15loPI   C6A  236  16.274  15.894   7.625 -0.0928  0.1404  0.0595
   15loPI   C1B  237  15.631  15.760  10.049 -0.1049 -0.0178  0.3069
   15loPI   C2B  238  15.714  15.739   9.655 -0.2930  0.1638 -0.0871
   15loPI   C3B  239  15.772  15.827   9.295  0.1537 -0.0923 -0.1674
   15loPI   C4B  240  15.735  15.821   8.845 -0.2123 -0.0004  0.0703
   16loPI    C1  241   2.674   1.809  11.014 -0.0987  0.1168 -0.0066
   16loPI    C2  242   2.701   2.208  11.022 -0.0356  0.1104  0.1440
   16loPI    C3  243   2.456   2.020  11.276  0.1000  0.0405  0.2240
   16loPI   PO4  244   2.968   1.720  10.811 -0.1402 -0.1150 -0.3477
   16loPI   GL1  245   3.178   1.978  10.508  0.0505  0.1645  0.1598
   16loPI   GL2  246   3.300   1.730  10.391 -0.2506  0.1451 -0.1601
   16loPI   C1A  247   3.107   1.975  10.053 -0.0938 -0.1727  0.1695
   16loPI   C2A  248   2.918   2.010   9.646  0.2562  0.3636 -0.2179
   16loPI   C3A  249   2.925   1.944   9.321 -0.1888 -0.1267  0.0835
   16loPI   C4A  250   3.005   1.836   8.827  0.2193 -0.4075  0.0880
   16loPI   C5A  251   2.806   2.052   8.426  0.1604 -0.0784 -0.1874
   16loPI   C6A  252   2.586   2.214   7.997  0.1878  0.0658  0.0418
   16loPI   C1B  253   3.262   1.484  10.025  0.2395 -0.0732 -0.1300
   16loPI   C2B  254   3.251   1.380   9.590  0.0961  0.0780  0.4971
   16loPI   C3B  255   3.287   1.338   9.098 -0.0425  0.4726 -0.0444
   16loPI   C4B  256   3.331   1.239   8.724 -0.0503  0.1025  0.1169
   17loPI    C1  257  10.264  16.862  11.163  0.1070  0.1031  0.3804
   17loPI    C2  258  10.337  16.484  11.055  0.0997  0.2367 -0.1118
   17loPI    C3  259   9.988  16.578  11.226  0.0621  0.0386 -0.0772
   17loPI   PO4  260  10.532  16.933  10.910 -0.1929  0.1820 -0.4203
   17loPI   GL1  261  10.479  17.072  10.533  0.0547 -0.1926 -0.1177
   17loPI   GL2  262  10.677  17.027  10.306 -0.1276 -0.2745 -0.2504
   17loPI   C1A  263  10.266  16.719  10.231  0.1886  0.1875 -0.3019
   17loPI   C2A  264  10.179  16.493   9.889  0.1198  0.0606  0.2638
   17loPI   C3A  265  10.186  16.689   9.601 -0.1804  0.0516  0.2408
   17loPI   C4A  266  10.166  16.869   9.269 -0.2553  0.1883 -0.0357
   17loPI   C5A  267  10.104  16.951   8.846 -0.2486  0.1518 -0.1514
   17loPI   C6A  268   9.803  17.077   8.518 -0.0811  0.0102 -0.0943
   17loPI   C1B  269  10.861  17.119   9.838 -0.1956  0.4496 -0.1179
   17loPI   C2B  270  10.870  17.253   9.364 -0.0262  0.1154  0.0710
   17loPI   C3B  271  10.907  17.283   8.895 -0.2588  0.2150 -0.1163
   17loPI   C4B  272  11.065  17.211   8.453 -0.1258  0.1576  0.2180
   18loPI    C1  273   6.777  17.277  11.158  0.0085  0.0768 -0.1088
   18loPI    C2  274   6.815  17.662  11.258 -0.0705  0.0083  0.1964
   18loPI    C3  275   6.459  17.519  11.145 -0.0577  0.0075  0.1571
   18loPI   PO4  276   6.843  17.189  10.832 -0.3723  0.0065 -0.1591
   18loPI   GL1  277   6.783  17.345  10.413  0.2168  0.0814 -0.3760
   18loPI   GL2  278   6.940  17.567  10.360  0.1620 -0.0471  0.6178
   18loPI   C1A  279   6.792  17.176  10.005  0.0437 -0.4561 -0.2881
   18loPI   C2A  280   6.732  17.071   9.537  0.3322 -0.1221  0.1969
   18loPI   C3A  281   6.558  17.037   9.040 -0.2205  0.2986 -0.1313
   18loPI   C4A  282   6.593  17.012   8.647  0.1827  0.2682 -0.1822
   18loPI   C5A  283   6.490  17.116   8.235  0.2545 -0.3182 -0.1456
   18loPI   C6A  284   6.432  17.513   8.038  0.1389  0.0515  0.0345
   18loPI   C1B  285   6.943  17.717   9.965  0.0361 -0.0533  0.0441
   18loPI   C2B  286   6.788  17.760   9.578  0.2236  0.1288  0.0818
   18loPI   C3B  287   6.724  17.852   9.233  0.0783 -0.0055 -0.0477
   18loPI   C4B  288   6.605  17.929   8.818  0.1165 -0.2515 -0.1155
   19loPI    C1  289  12.128   9.561  10.821 -0.0614 -0.1464  0.0195
   19loPI    C2  290  12.360   9.711  11.110 -0.0143 -0.1068 -0.0389
   19loPI    C3  291  12.087   9.433  11.198  0.0473 -0.1449  0.0320
   19loPI   PO4  292  12.309   9.489  10.683 -0.2852 -0.1115  0.1072
   19loPI   GL1  293  12.520   9.288  10.411  0.0512 -0.1451  0.2728
   19loPI   GL2  294  12.250   9.006  10.282 -0.2799  0.3841 -0.1720
   19loPI   C1A  295  12.632   9.310   9.971 -0.1407  0.0110 -0.0614
   19loPI   C2A  296  12.751   9.238   9.528  0.0043  0.1565  0.0061
   19loPI   C3A  297  12.678   9.214   9.195 -0.0141 -0.2237  0.0287
   19loPI   C4A  298  12.853   9.403   8.918 -0.2527  0.1784 -0.2512
   19loPI   C5A  299  12.864   9.251   8.519 -0.2150 -0.3719 -0.0111
   19loPI   C6A  300  13.197   9.355   8.215  0.1063 -0.1827 -0.1403
   19loPI   C1B  301  12.312   8.806   9.861  0.0569  0.0822  0.1466
   19loPI   C2B  302  12.353   8.772   9.488 -0.1953 -0.2429 -0.1345
   19loPI   C3B  303  12.331   8.824   9.086 -0.0485 -0.2394  0.2709
   19loPI   C4B  304  12.330   8.907   8.607 -0.1829 -0.0227  0.0516
   20loPI    C1  305   2.953  15.474  11.238 -0.1585 -0.2273 -0.0200
   20loPI    C2  306   2.765  15.810  11.347 -0.2152 -0.2318 -0.1024
   20loPI    C3  307   2.992  15.612  11.611  0.0916  0.0533 -0.1460
   20loPI   PO4  308   3.073  15.518  11.050  0.2865  0.1390  0.2531
   20loPI   GL1  309   3.045  15.293  10.563 -0.2944  0.1421  0.3859
   20loPI   GL2  310   2.852  15.319  10.449  0.2240  0.0204  0.3499
   20loPI   C1A  311   3.125  15.255  10.085 -0.0911 -0.0361 -0.1143
   20loPI   C2A  312   3.187  15.297   9.720  0.1909 -0.2379 -0.1728
   20loPI   C3A  313   3.258  15.341   9.198  0.2834  0.0955  0.0358
   20loPI   C4A  314   3.295  15.246   8.785  0.0880 -0.3781  0.0992
   20loPI   C5A  315   3.232  15.442   8.382  0.0920  0.0004 -0.3417
   20loPI   C6A  316   3.111  15.576   7.933 -0.1564 -0.0032  0.0489
   20loPI   C1B  317   2.506  15.410  10.057  0.0692 -0.1296  0.2463
   20loPI   C2B  318   2.527  15.491   9.568 -0.0701 -0.2764 -0.0806
   20loPI   C3B  319   2.693  15.419   9.242  0.0535 -0.0108  0.6013
   20loPI   C4B  320   2.707  15.375   8.736 -0.3118  0.2590 -0.0440
   21loPI    C1  321   1.496   0.222  11.006 -0.2930 -0.0850  0.3237
   21loPI    C2  322   1.859   0.277  11.165  0.0192 -0.1980 -0.3181
   21loPI    C3  323   1.607   0.586  11.130  0.0203 -0.1310  0.1867
   21loPI   PO4  324   1.574   0.052  10.752  0.0290 -0.0799  0.0118
   21loPI   GL1  325   1.568   0.143  10.305  0.4379  0.1418 -0.0217
   21loPI   GL2  326   1.682   0.228  10.070 -0.1134  0.0327 -0.2909
   21loPI   C1A  327   1.649  -0.216   9.939 -0.1219 -0.2382  0.2295
   21loPI   C2A  328   1.669  -0.216   9.484  0.0376  0.3238 -0.0212
   21loPI   C3A  329   1.821  -0.194   9.042  0.1556 -0.0792 -0.0886
   21loPI   C4A  330   2.064   0.150   8.853 -0.2389 -0.0891  0.1653
   21loPI   C5A  331   2.183   0.346   8.632  0.1648 -0.1505  0.3968
   21loPI   C6A  332   2.182   0.788   8.482 -0.1969 -0.0162 -0.2742
   21loPI   C1B  333   1.811   0.258   9.662  0.1107 -0.1415  0.4425
   21loPI   C2B  334   1.814   0.259   9.285 -0.3083 -0.4504 -0.1696
   21loPI   C3B  335   1.573   0.277   8.892  0.1576  0.0853  0.0385
   21loPI   C4B  336   1.689   0.184   8.418  0.1034  0.2565 -0.2903
   22loPI    C1  337   5.663   9.199  10.656 -0.0656  0.0867 -0.0462
   22loPI    C2  338   5.404   9.491  10.568 -0.0253  0.1760  0.1281
   22loPI    C3  339   5.708   9.562  10.818  0.1445  0.0607 -0.0430
   22loPI   PO4  340   5.455   8.983  10.647 -0.0130  0.1078 -0.3376
   22loPI   GL1  341   5.226   8.817  10.366  0.2237  0.1118  0.2276
   22loPI   GL2  342   5.334   8.580  10.094 -0.3913 -0.1357 -0.1786
   22loPI   C1A  343   5.103   8.985   9.925 -0.1361 -0.3450 -0.1136
   22loPI   C2A  344   5.118   9.046   9.425 -0.1729  0.0552  0.4589
   22loPI   C3A  345   4.980   8.883   9.060 -0.2427 -0.0253 -0.1456
   22loPI   C4A  346   5.091   8.938   8.568  0.0066  0.1405 -0.0676
   22loPI   C5A  347   5.225   8.732   8.133  0.0278  0.1242  0.1830
   22loPI   C6A  348   5.529   8.685   7.921  0.0965  0.0149 -0.0788
   22loPI   C1B  349   5.263   8.452   9.648  0.3117 -0.0972 -0.2199
   22loPI   C2B  350   5.161   8.485   9.212 -0.0183  0.2781  0.0110
   22loPI   C3B  351   5.161   8.449   8.730 -0.1636  0.1055 -0.0614
   22loPI   C4B  352   4.930   8.402   8.303 -0.2360 -0.1633 -0.1451
   23loPI    C1  353   9.737  17.098  11.042 -0.1792 -0.1636 -0.0647
   23loPI    C2  354   9.346  17.078  11.122 -0.1709 -0.0981 -0.0068
   23loPI    C3  355   9.603  16.847  11.323 -0.1816 -0.1555 -0.0588
   23loPI   PO4  356   9.662  17.229  10.734  0.2282  0.1159 -0.0999
   23loPI   GL1  357   9.493  17.106  10.367  0.1196  0.2571  0.2321
   23loPI   GL2  358   9.219  17.019  10.182 -0.1280  0.2153  0.0189
   23loPI   C1A  359   9.624  17.288   9.964 -0.1217  0.1336  0.2288
   23loPI   C2A  360   9.789  17.491   9.635 -0.2517  0.2465  0.2478
   23loPI   C3A  361   9.932  17.337   9.221 -0.2307 -0.0195  0.0249
   23loPI   C4A  362   9.923  17.483   8.879  0.0008 -0.0919  0.0501
   23loPI   C5A  363  10.150  17.487   8.459  0.1754  0.3182 -0.1569
   23loPI   C6A  364  10.525  17.299   8.198 -0.2316  0.0732  0.1891
   23loPI   C1B  365   9.084  16.979   9.736 -0.3309 -0.2388  0.3876
   23loPI   C2B  366   9.170  17.146   9.414 -0.0288 -0.1012  0.0348
   23loPI   C3B  367   9.114  17.074   8.941  0.0780 -0.0044 -0.0417
   23loPI   C4B  368   9.305  17.012   8.515 -0.1283 -0.2729 -0.0374
   24loPI    C1  369   0.587   1.096  11.046  0.0961 -0.1587 -0.1228
   24loPI    C2  370   0.826   1.411  11.109  0.1729 -0.2037 -0.1867
   24loPI    C3  371   0.791   1.128  11.389  0.0997 -0.1360 -0.1270
   24loPI   PO4  372   0.535   1.137  10.803 -0.0071  0.2480 -0.1863
   24loPI   GL1  373   0.239   0.893  10.565 -0.0210  0.1246  0.3151
   24loPI   GL2  374   0.340   0.525  10.540  0.1601  0.0884  0.0431
   24loPI   C1A  375   0.277   0.846  10.094 -0.0222  0.1018 -0.0749
   24loPI   C2A  376   0.284   0.991   9.708 -0.1451  0.0327  0.2667
   24loPI   C3A  377   0.279   1.068   9.236  0.2695 -0.1482  0.3316
   24loPI   C4A  378   0.347   1.076   8.789 -0.2603 -0.0476 -0.0671
   24loPI   C5A  379   0.289   1.327   8.361  0.0435 -0.0046 -0.4709
   24loPI   C6A  380   0.028   1.556   7.965 -0.1215  0.1951 -0.1436
   24loPI   C1B  381   0.396   0.413  10.185 -0.5255 -0.1820 -0.0422
   24loPI   C2B  382   0.372   0.468   9.739 -0.2916  0.2330 -0.3610
   24loPI   C3B  383   0.393   0.464   9.289  0.0061 -0.0114 -0.0478
   24loPI   C4B  384   0.446   0.598   9.008 -0.3269  0.1372 -0.1466
   25loPI    C1  385  15.099   5.223  11.478  0.1708 -0.1060 -0.1069
   25loPI    C2  386  14.991   4.839  11.455 -0.1793 -0.0259  0.1192
   25loPI    C3  387  15.156   4.980  11.791 -0.3418  0.0907  0.1510
   25loPI   PO4  388  15.159   5.289  11.290  0.3390 -0.0940  0.1122
   25loPI   GL1  389  15.098   4.973  10.993 -0.2111 -0.0267  0.1274
   25loPI   GL2  390  15.444   4.835  10.821 -0.3496 -0.1645  0.1135
   25loPI   C1A  391  15.007   4.841  10.520  0.1254 -0.2479 -0.0650
   25loPI   C2A  392  15.078   4.734  10.076  0.0294  0.1268 -0.3229
   25loPI   C3A  393  14.985   4.734   9.643  0.1808 -0.1509  0.1758
   25loPI   C4A  394  15.013   4.718   9.196 -0.0608 -0.0406 -0.4109
   25loPI   C5A  395  15.037   4.847   8.804 -0.2509 -0.0808  0.2957
   25loPI   C6A  396  14.995   4.600   8.415  0.4800  0.0646  0.0147
   25loPI   C1B  397  15.507   4.656  10.342 -0.0002  0.0567  0.0980
   25loPI   C2B  398  15.538   4.617   9.873  0.0783  0.0179 -0.0965
   25loPI   C3B  399  15.625   4.647   9.480  0.1341  0.1013  0.0868
   25loPI   C4B  400  15.514   4.634   9.072  0.0231  0.0531 -0.1242
   26loPI    C1  401  15.971   6.237  11.052  0.0232 -0.1581 -0.0809
   26loPI    C2  402  15.951   6.616  11.180 -0.2934 -0.2570  0.1762
   26loPI    C3  403  16.146   6.342  11.396 -0.1893 -0.2722  0.0641
   26loPI   PO4  404  16.119   6.314  10.808  0.1512 -0.0833 -0.3424
   26loPI   GL1  405  16.068   6.117  10.495 -0.2460 -0.3606  0.0552
   26loPI   GL2  406  16.439   6.011  10.475 -0.0420 -0.3632 -0.2567
   26loPI   C1A  407  16.019   6.061  10.062 -0.0526 -0.0467  0.0381
   26loPI   C2A  408  15.987   5.956   9.713 -0.2877 -0.0500 -0.2491
   26loPI   C3A  409  16.109   5.989   9.340  0.1123 -0.0588 -0.1562
   26loPI   C4A  410  16.147   5.890   8.937  0.1032  0.3279  0.1655
   26loPI   C5A  411  16.119   5.859   8.490 -0.1591  0.0843 -0.0804
   26loPI   C6A  412  16.201   5.682   8.172 -0.0272  0.1578  0.2146
   26loPI   C1B  413  16.482   5.921  10.011  0.0646  0.1953 -0.1161
   26loPI   C2B  414  16.520   5.947   9.570  0.0155  0.1178  0.0961
   26loPI   C3B  415  16.582   5.893   9.179  0.0347  0.2430 -0.3409
   26loPI   C4B  416  16.569   5.908   8.711 -0.2279 -0.1274  0.0440
   27loPI    C1  417   9.574  15.589  10.632  0.2377 -0.2265 -0.1482
   27loPI    C2  418   9.212  15.457  10.740  0.0805  0.2965 -0.0099
   27loPI    C3  419   9.488  15.535  11.019  0.2172  0.1353 -0.0987
   27loPI   PO4  420   9.436  15.700  10.369 -0.3086 -0.0808 -0.0584
   27loPI   GL1  421   9.350  15.737   9.902  0.4221 -0.1420 -0.0831
   27loPI   GL2  422   9.116  15.450   9.885 -0.0920 -0.1664  0.3831
   27loPI   C1A  423   9.610  15.739   9.544  0.1983 -0.0547  0.1513
   27loPI   C2A  424   9.641  15.917   9.154  0.0557  0.0841  0.1258
   27loPI   C3A  425   9.852  16.035   8.892 -0.2668 -0.0634  0.1016
   27loPI   C4A  426   9.843  15.958   8.469  0.0307  0.1124  0.0579
   27loPI   C5A  427   9.777  15.746   8.177  0.1335 -0.1414 -0.0440
   27loPI   C6A  428   9.991  15.733   7.785  0.3608 -0.1019  0.0820
   27loPI   C1B  429   9.073  15.526   9.492  0.0828  0.1050 -0.2181
   27loPI   C2B  430   9.200  15.634   9.057 -0.1094  0.0561 -0.0779
   27loPI   C3B  431   9.354  15.563   8.691  0.2470 -0.1672  0.0887
   27loPI   C4B  432   9.666  15.275   8.468 -0.2818  0.2268  0.1723
   28loPI    C1  433  13.783  16.528  11.118  0.1630  0.1060  0.0575
   28loPI    C2  434  13.913  16.161  11.029  0.0349  0.0497  0.1004
   28loPI    C3  435  13.781  16.242  11.398 -0.0098  0.1180  0.0694
   28loPI   PO4  436  13.667  16.592  10.973  0.4676 -0.1282 -0.0360
   28loPI   GL1  437  13.613  16.343  10.689 -0.1873  0.3245 -0.0574
   28loPI   GL2  438  13.456  16.545  10.367  0.3038  0.0934  0.1208
   28loPI   C1A  439  13.768  16.216  10.296  0.0334 -0.1239  0.0243
   28loPI   C2A  440  14.001  16.014   9.914 -0.2983 -0.1053 -0.3042
   28loPI   C3A  441  14.166  16.143   9.478 -0.1312 -0.1006 -0.1542
   28loPI   C4A  442  14.111  16.179   9.052 -0.1911  0.1672 -0.1957
   28loPI   C5A  443  14.048  16.174   8.494 -0.0514  0.0798  0.0962
   28loPI   C6A  444  14.051  15.870   8.091  0.1483 -0.0721  0.1299
   28loPI   C1B  445  13.331  16.725   9.947  0.0564 -0.2076  0.0341
   28loPI   C2B  446  13.367  16.723   9.462 -0.0400  0.0674  0.1291
   28loPI   C3B  447  13.484  16.740   9.082  0.0934 -0.0130 -0.2455
   28loPI   C4B  448  13.456  16.899   8.584 -0.4051 -0.1831  0.0015
   29loPI    C1  449  10.296  12.220  10.545 -0.0336  0.0037 -0.0583
   29loPI    C2  450   9.943  12.167  10.727  0.1247 -0.0860  0.2277
   29loPI    C3  451  10.197  12.447  10.859  0.1726 -0.0385  0.0386
   29loPI   PO4  452  10.203  12.100  10.233 -0.0202  0.2493  0.0983
   29loPI   GL1  453  10.398  12.124   9.812  0.0184  0.0304  0.2085
   29loPI   GL2  454  10.109  12.281   9.592 -0.2296 -0.3202  0.2764
   29loPI   C1A  455  10.596  12.212   9.401 -0.0190 -0.3760  0.0916
   29loPI   C2A  456  10.630  12.254   9.006 -0.1289 -0.2446 -0.0304
   29loPI   C3A  457  10.467  12.311   8.626 -0.3551 -0.1057 -0.0987
   29loPI   C4A  458  10.491  12.410   8.223 -0.1097 -0.1634 -0.1432
   29loPI   C5A  459  10.339  12.793   7.972 -0.2486 -0.0988 -0.0498
   29loPI   C6A  460  10.003  12.965   7.553  0.4897 -0.5036 -0.2958
   29loPI   C1B  461  10.088  12.278   9.173 -0.0499 -0.1060 -0.2923
   29loPI   C2B  462   9.908  12.232   8.751  0.0690 -0.0380  0.0066
   29loPI   C3B  463   9.943  12.185   8.368  0.2443 -0.0659  0.2879
   29loPI   C4B  464  10.014  12.408   8.013  0.2645 -0.0064 -0.0405
   30loPI    C1  465   9.228  11.348  10.037  0.0544  0.2713 -0.1691
   30loPI    C2  466   8.956  11.535  10.264  0.1520 -0.1515  0.3146
   30loPI    C3  467   8.837  11.288   9.972  0.0249  0.4569 -0.1683
   30loPI   PO4  468   9.351  11.461   9.969 -0.3720 -0.1730 -0.0392
   30loPI   GL1  469   9.558  11.707   9.706  0.1110  0.1887 -0.0466
   30loPI   GL2  470   9.490  11.619   9.332 -0.0536 -0.1243  0.2266
   30loPI   C1A  471   9.922  11.857   9.339  0.0265 -0.2189  0.4049
   30loPI   C2A  472   9.810  11.747   8.964 -0.0138  0.1227 -0.4627
   30loPI   C3A  473   9.766  11.711   8.514 -0.0199  0.1351 -0.1691
   30loPI   C4A  474   9.831  11.615   8.102 -0.1231  0.2045  0.1052
   30loPI   C5A  475   9.756  11.590   7.676 -0.0192 -0.1318  0.1468
   30loPI   C6A  476   9.660  11.512   7.273 -0.1542 -0.1072 -0.0275
   30loPI   C1B  477   9.340  11.644   9.029 -0.2036 -0.2349  0.3828
   30loPI   C2B  478   9.268  11.542   8.609  0.2441  0.2272 -0.1945
   30loPI   C3B  479   9.345  11.723   8.241 -0.0024 -0.0488  0.0233
   30loPI   C4B  480   9.272  11.824   7.768  0.3623 -0.2312  0.0111
   31loPI    C1  481   0.684  11.935  11.241 -0.1570  0.2212 -0.1487
   31loPI    C2  482   0.739  12.180  11.553  0.1155  0.1043 -0.1020
   31loPI    C3  483   0.799  11.786  11.594 -0.1187  0.0528 -0.2312
   31loPI   PO4  484   0.841  12.060  11.044  0.1090  0.0493 -0.1551
   31loPI   GL1  485   0.896  12.159  10.683  0.1067 -0.1908 -0.1956
   31loPI   GL2  486   1.182  12.217  10.598 -0.2367 -0.1013 -0.1510
   31loPI   C1A  487   0.867  12.429  10.325  0.1756 -0.0773 -0.1985
   31loPI   C2A  488   0.847  12.457   9.890  0.2569 -0.2793  0.3327
   31loPI   C3A  489   0.915  12.456   9.486  0.1530 -0.0225 -0.1169
   31loPI   C4A  490   0.781  12.539   9.103  0.0221 -0.1303  0.0156
   31loPI   C5A  491   0.877  12.393   8.691  0.1082  0.1034 -0.2381
   31loPI   C6A  492   0.575  12.189   8.213  0.2636 -0.1425 -0.2377
   31loPI   C1B  493   1.434  12.446  10.278 -0.1384  0.2121  0.0210
   31loPI   C2B  494   1.323  12.460   9.809 -0.0198 -0.3084 -0.0810
   31loPI   C3B  495   1.390  12.445   9.346 -0.0175 -0.1732  0.2671
   31loPI   C4B  496   1.325  12.363   8.933 -0.0227 -0.0289  0.2194
   32loPI    C1  497   2.149   1.595  11.109 -0.0282 -0.1432 -0.0533
   32loPI    C2  498   2.478   1.467  11.297  0.0471 -0.0159 -0.0975
   32loPI    C3  499   2.191   1.654  11.502  0.0365 -0.0595 -0.0724
   32loPI   PO4  500   2.225   1.654  10.857  0.0478  0.2286 -0.2529
   32loPI   GL1  501   2.330   1.899  10.614 -0.0980  0.1693 -0.1424
   32loPI   GL2  502   2.608   2.018  10.537  0.3560  0.1188 -0.0367
   32loPI   C1A  503   2.037   2.048  10.412 -0.2977  0.0561  0.0718
   32loPI   C2A  504   2.045   2.125   9.949 -0.0541 -0.0837 -0.2659
   32loPI   C3A  505   1.871   2.129   9.408  0.3703 -0.1220 -0.2983
   32loPI   C4A  506   1.776   2.009   8.976 -0.2489 -0.1313 -0.0707
   32loPI   C5A  507   1.761   2.148   8.539 -0.2167  0.4128  0.1763
   32loPI   C6A  508   1.783   2.179   7.979  0.4835 -0.0549 -0.1988
   32loPI   C1B  509   2.569   2.120  10.084  0.3915 -0.3619 -0.1598
   32loPI   C2B  510   2.451   2.094   9.661 -0.0134  0.2237 -0.0579
   32loPI   C3B  511   2.317   2.089   9.239  0.1098  0.0588 -0.1108
   32loPI   C4B  512   2.296   2.120   8.726  0.2431  0.0875 -0.2450
   33loPI    C1  513  15.196   3.258  11.313 -0.0325  0.0093 -0.1885
   33loPI    C2  514  15.503   3.363  11.080 -0.0462  0.0073 -0.2076
   33loPI    C3  515  15.364   2.988  11.070 -0.1477  0.0471 -0.3121
   33loPI   PO4  516  15.072   3.425  11.296 -0.1031 -0.0384 -0.1909
   33loPI   GL1  517  15.062   3.581  10.860  0.3194  0.1791 -0.0006
   33loPI   GL2  518  15.316   3.776  10.704  0.0769  0.0821  0.0330
   33loPI   C1A  519  15.048   3.417  10.437  0.0326  0.0038  0.1754
   33loPI   C2A  520  15.091   3.428   9.962  0.4023 -0.1052  0.0253
   33loPI   C3A  521  15.062   3.316   9.502 -0.2088  0.1315 -0.0741
   33loPI   C4A  522  15.068   3.385   9.079 -0.1705 -0.1445 -0.2638
   33loPI   C5A  523  14.939   3.644   8.751 -0.1961 -0.0384  0.0504
   33loPI   C6A  524  15.141   3.813   8.433 -0.2178  0.2754 -0.1817
   33loPI   C1B  525  15.452   3.761  10.198  0.1033  0.1380  0.0500
   33loPI   C2B  526  15.474   3.820   9.785 -0.1037  0.3596 -0.0454
   33loPI   C3B  527  15.356   3.736   9.404 -0.1882 -0.0629 -0.0325
   33loPI   C4B  528  15.369   3.722   8.930 -0.1721  0.0550  0.0290
   34loPI    C1  529  11.199  16.730  11.140 -0.0977 -0.2953 -0.0551
   34loPI    C2  530  11.551  16.605  11.283  0.2045  0.4710 -0.0804
   34loPI    C3  531  11.221  16.574  11.507  0.3317 -0.0001  0.0526
   34loPI   PO4  532  11.143  16.622  10.919 -0.1426  0.1482 -0.3875
   34loPI   GL1  533  11.257  16.626  10.568  0.2305 -0.1648  0.1535
   34loPI   GL2  534  11.087  16.779  10.407  0.1200  0.2230 -0.0994
   34loPI   C1A  535  11.522  16.429  10.139 -0.1901  0.0006  0.2958
   34loPI   C2A  536  11.566  16.497   9.674  0.2705  0.0048  0.0882
   34loPI   C3A  537  11.548  16.560   9.254  0.3792 -0.0172 -0.4413
   34loPI   C4A  538  11.569  16.576   8.759 -0.1681  0.0418  0.2343
   34loPI   C5A  539  11.811  16.713   8.277 -0.2259 -0.0301  0.3498
   34loPI   C6A  540  12.197  16.561   7.974  0.3425  0.0324 -0.4513
   34loPI   C1B  541  11.219  16.815  10.018 -0.0466  0.1010  0.0631
   34loPI   C2B  542  11.391  16.984   9.745 -0.0958 -0.0459 -0.3925
   34loPI   C3B  543  11.352  17.167   9.283  0.0102  0.1517  0.0025
   34loPI   C4B  544  11.412  17.065   8.846 -0.2759  0.1562 -0.0832
   35loPI    C1  545  14.230  12.287  11.011 -0.1826  0.0375  0.1067
   35loPI    C2  546  14.283  12.599  11.256  0.1101  0.0215  0.0665
   35loPI    C3  547  14.040  12.300  11.363  0.0390  0.1347  0.2246
   35loPI   PO4  548  14.185  12.416  10.747 -0.0130 -0.1451 -0.1733
   35loPI   GL1  549  14.133  12.275  10.413 -0.1102  0.2102  0.1264
   35loPI   GL2  550  14.476  12.315  10.222  0.0244 -0.3144 -0.0691
   35loPI   C1A  551  14.049  12.353   9.996  0.2094 -0.0265  0.1424
   35loPI   C2A  552  14.046  12.278   9.598  0.1612  0.1781 -0.1940
   35loPI   C3A  553  14.080  12.282   9.163 -0.1121  0.1526 -0.0694
   35loPI   C4A  554  14.032  12.575   8.868  0.0119  0.1361 -0.3645
   35loPI   C5A  555  14.278  12.639   8.597 -0.1953  0.0687 -0.0350
   35loPI   C6A  556  14.444  12.865   8.223 -0.0873 -0.1501 -0.0785
   35loPI   C1B  557  14.562  12.229   9.817 -0.2641  0.0742  0.1960
   35loPI   C2B  558  14.606  12.164   9.364 -0.1843  0.0670  0.2062
   35loPI   C3B  559  14.616  12.268   8.873 -0.0154  0.1088  0.3210
   35loPI   C4B  560  14.717  12.369   8.411 -0.1076 -0.0512 -0.0974
   36loPI    C1  561  12.756  13.818  10.602 -0.1129 -0.0747 -0.0627
   36loPI    C2  562  12.521  13.809  10.925  0.0712 -0.0256  0.0740
   36loPI    C3  563  12.647  13.467  10.760  0.0432 -0.0500  0.1029
   36loPI   PO4  564  12.825  14.046  10.583  0.2189 -0.0019  0.0748
   36loPI   GL1  565  13.096  14.250  10.285  0.0193 -0.1245 -0.2016
   36loPI   GL2  566  13.136  14.608  10.221 -0.0621  0.0697 -0.3571
   36loPI   C1A  567  13.107  14.306   9.867 -0.0078  0.0103 -0.1874
   36loPI   C2A  568  13.252  14.377   9.544 -0.0971 -0.0326  0.0460
   36loPI   C3A  569  13.298  14.416   9.189 -0.3743 -0.3325 -0.1579
   36loPI   C4A  570  13.443  14.535   8.763  0.0852  0.1432 -0.0281
   36loPI   C5A  571  13.709  14.453   8.401  0.0100 -0.2554 -0.0494
   36loPI   C6A  572  14.076  14.707   8.272  0.0702  0.1781 -0.3809
   36loPI   C1B  573  13.440  14.717   9.980 -0.4052 -0.1529 -0.1087
   36loPI   C2B  574  13.596  14.716   9.600 -0.1306 -0.1104  0.0574
   36loPI   C3B  575  13.640  14.887   9.207  0.0772 -0.2703 -0.0750
   36loPI   C4B  576  13.772  14.875   8.686  0.1494  0.0760 -0.2637
   37loPI    C1  577  17.290   3.929  11.328 -0.3290  0.1744  0.2380
   37loPI    C2  578  17.413   4.310  11.323  0.1438  0.0262 -0.0214
   37loPI    C3  579  17.571   4.052  11.585 -0.0342 -0.0386  0.0238
   37loPI   PO4  580  17.164   3.943  11.124  0.0471  0.0888 -0.0654
   37loPI   GL1  581  17.110   3.765  10.778 -0.2320 -0.0338 -0.0807
   37loPI   GL2  582  16.993   3.531  10.569  0.0271  0.1885 -0.1322
   37loPI   C1A  583  17.344   3.828  10.488 -0.0327  0.0495 -0.1203
   37loPI   C2A  584  17.344   3.875  10.128 -0.2102  0.1058  0.1461
   37loPI   C3A  585  17.364   3.833   9.791  0.1949  0.0835  0.1365
   37loPI   C4A  586  17.272   3.915   9.376 -0.3458  0.2931 -0.1020
   37loPI   C5A  587  17.333   3.990   8.951 -0.1192  0.1750 -0.0590
   37loPI   C6A  588  17.483   3.949   8.532  0.2233 -0.0320  0.1372
   37loPI   C1B  589  16.981   3.468  10.115  0.0945  0.1460  0.0902
   37loPI   C2B  590  16.973   3.519   9.594 -0.0914 -0.0633  0.0487
   37loPI   C3B  591  16.861   3.576   9.165  0.2546  0.1407 -0.3734
   37loPI   C4B  592  16.983   3.697   8.740  0.0560 -0.0995  0.1102
   38loPI    C1  593  16.030   2.620  11.314 -0.0682  0.1415  0.0629
   38loPI    C2  594  15.892   2.596  11.689  0.1148  0.2225  0.1366
   38loPI    C3  595  16.285   2.567  11.618  0.0629 -0.0021 -0.0706
   38loPI   PO4  596  15.870   2.724  11.194 -0.0919  0.0026  0.0722
   38loPI   GL1  597  15.738   2.826  10.785 -0.3485  0.3730 -0.0734
   38loPI   GL2  598  15.928   2.639  10.664 -0.0386 -0.1835 -0.1196
   38loPI   C1A  599  15.475   3.259  10.630 -0.3538 -0.1697 -0.1044
   38loPI   C2A  600  15.539   3.260  10.174 -0.1330 -0.0111  0.0996
   38loPI   C3A  601  15.525   3.343   9.698 -0.2157  0.0607 -0.2155
   38loPI   C4A  602  15.604   3.348   9.206 -0.1406 -0.1105 -0.1650
   38loPI   C5A  603  15.609   3.201   8.805  0.1105  0.3808 -0.3257
   38loPI   C6A  604  15.756   3.096   8.365 -0.1143  0.1813 -0.1465
   38loPI   C1B  605  15.741   2.821  10.281 -0.1039 -0.4224  0.0547
   38loPI   C2B  606  15.742   2.894   9.814  0.3046 -0.0148 -0.1634
   38loPI   C3B  607  15.742   2.856   9.387  0.2039  0.0625  0.0111
   38loPI   C4B  608  15.819   2.738   8.928 -0.3079  0.1497  0.1691
   39loPI    C1  609   0.958  17.081  11.118  0.2796  0.0455 -0.1051
   39loPI    C2  610   0.910  16.879  11.460 -0.1813 -0.0663 -0.2279
   39loPI    C3  611   1.142  17.205  11.451 -0.1544 -0.0685  0.1863
   39loPI   PO4  612   0.910  16.875  10.959  0.1769 -0.2225  0.2391
   39loPI   GL1  613   0.918  16.796  10.519 -0.1879  0.2114 -0.1756
   39loPI   GL2  614   1.063  17.035  10.331 -0.0424  0.0041  0.2327
   39loPI   C1A  615   0.780  16.714  10.150  0.1183 -0.2181  0.4817
   39loPI   C2A  616   0.718  16.535   9.729  0.1160  0.3598 -0.1342
   39loPI   C3A  617   0.671  16.655   9.290  0.1922 -0.1126 -0.2259
   39loPI   C4A  618   0.576  16.598   8.897  0.0053 -0.1206  0.1134
   39loPI   C5A  619   0.705  16.568   8.423 -0.0543  0.0136  0.0693
   39loPI   C6A  620   0.601  16.335   7.979 -0.0857  0.3407  0.2085
   39loPI   C1B  621   1.072  17.039   9.843 -0.0767 -0.3130 -0.0273
   39loPI   C2B  622   1.050  17.103   9.446 -0.3870  0.3045  0.2068
   39loPI   C3B  623   1.132  17.142   9.013  0.1759 -0.0488  0.0209
   39loPI   C4B  624   0.934  16.923   8.651 -0.1662 -0.1579 -0.0211
   40loPI    C1  625   5.633   2.733  10.719  0.0644  0.0118 -0.1162
   40loPI    C2  626   5.426   2.562  11.016 -0.0999  0.1916 -0.1251
   40loPI    C3  627   5.795   2.434  10.930 -0.0884  0.0734  0.0922
   40loPI   PO4  628   5.489   2.703  10.536 -0.1480  0.0330 -0.0742
   40loPI   GL1  629   5.387   2.409  10.221 -0.1189 -0.2049 -0.0419
   40loPI   GL2  630   5.681   2.379  10.054  0.1161  0.0944  0.3268
   40loPI   C1A  631   5.203   2.514   9.793 -0.1246  0.0465 -0.1438
   40loPI   C2A  632   5.169   2.464   9.320 -0.0022  0.1308  0.1203
   40loPI   C3A  633   5.270   2.342   8.930 -0.0499  0.0022  0.2706
   40loPI   C4A  634   5.423   2.263   8.451 -0.1469  0.1525  0.3859
   40loPI   C5A  635   5.749   2.007   8.286 -0.2952  0.1108  0.1057
   40loPI   C6A  636   6.105   1.900   8.194  0.2869  0.0043  0.4001
   40loPI   C1B  637   5.644   2.486   9.564  0.2003  0.0357 -0.0191
   40loPI   C2B  638   5.752   2.457   9.160 -0.0892 -0.1184 -0.0411
   40loPI   C3B  639   5.808   2.290   8.771 -0.5417  0.0252  0.1585
   40loPI   C4B  640   6.011   2.446   8.428 -0.2558 -0.0578  0.1856
   41loPI    C1  641   6.895  13.293  10.423  0.0376  0.1260 -0.0515
   41loPI    C2  642   6.803  13.476  10.766  0.0751  0.1959 -0.0785
   41loPI    C3  643   7.133  13.251  10.741 -0.0830 -0.0508  0.0167
   41loPI   PO4  644   6.614  13.160  10.305 -0.4934  0.3238  0.2991
   41loPI   GL1  645   6.177  13.233  10.204 -0.0986  0.4172  0.0613
   41loPI   GL2  646   5.887  13.399  10.099 -0.1055  0.2068  0.0935
   41loPI   C1A  647   6.366  13.285   9.722  0.2821  0.0459 -0.0452
   41loPI   C2A  648   6.283  13.327   9.275 -0.2621 -0.0630 -0.1850
   41loPI   C3A  649   6.315  13.402   8.906 -0.1154  0.0979  0.0256
   41loPI   C4A  650   6.360  13.352   8.433  0.1224 -0.2907  0.0569
   41loPI   C5A  651   6.372  13.392   7.989  0.0837 -0.0680  0.4159
   41loPI   C6A  652   6.755  13.498   7.893 -0.1046  0.0838 -0.1019
   41loPI   C1B  653   5.846  13.438   9.559 -0.2088  0.0144  0.1323
   41loPI   C2B  654   5.857  13.455   9.158 -0.0409  0.0560  0.2062
   41loPI   C3B  655   5.891  13.513   8.702  0.1613  0.0489 -0.1563
   41loPI   C4B  656   5.897  13.623   8.234  0.2184  0.0362 -0.1988
   42loPI    C1  657   3.699   1.079  11.002 -0.0333  0.0387 -0.0738
   42loPI    C2  658   3.863   1.344  11.253 -0.0033  0.0815 -0.1385
   42loPI    C3  659   3.498   1.197  11.327 -0.0570  0.2081 -0.1493
   42loPI   PO4  660   3.732   1.108  10.831 -0.1869  0.2471  0.1072
   42loPI   GL1  661   3.785   0.873  10.399 -0.0344  0.1050  0.1995
   42loPI   GL2  662   3.505   1.133  10.339 -0.1307 -0.0355 -0.2935
   42loPI   C1A  663   3.852   0.829   9.958  0.0412  0.1370  0.0823
   42loPI   C2A  664   3.948   0.716   9.527 -0.4598  0.3236 -0.2166
   42loPI   C3A  665   4.018   0.742   9.070 -0.0096  0.1715  0.3699
   42loPI   C4A  666   4.119   0.725   8.627 -0.1288 -0.0127  0.0694
   42loPI   C5A  667   4.043   0.467   8.270 -0.0314  0.1993  0.0701
   42loPI   C6A  668   3.654   0.279   8.125  0.2617 -0.1891  0.2270
   42loPI   C1B  669   3.380   1.000  10.094  0.2737  0.1068 -0.2134
   42loPI   C2B  670   3.393   0.894   9.722  0.0878  0.0310  0.4855
   42loPI   C3B  671   3.539   0.856   9.232 -0.0510 -0.0876  0.0414
   42loPI   C4B  672   3.542   0.753   8.750  0.2325  0.0941 -0.0086
   43loPI    C1  673   7.395  16.914  10.891 -0.0541 -0.0242  0.1360
   43loPI    C2  674   7.544  16.793  11.242 -0.0074  0.0674  0.1479
   43loPI    C3  675   7.174  16.945  11.223 -0.0461 -0.0267  0.1415
   43loPI   PO4  676   7.653  16.946  10.584 -0.1830  0.0439  0.0420
   43loPI   GL1  677   7.612  16.818  10.092 -0.1168  0.0094 -0.2470
   43loPI   GL2  678   7.282  16.756  10.138  0.0162 -0.1946 -0.0278
   43loPI   C1A  679   7.346  17.232   9.991 -0.1879  0.0856  0.0610
   43loPI   C2A  680   7.115  17.348   9.616  0.1578  0.0579  0.2445
   43loPI   C3A  681   6.974  17.401   9.286 -0.0930 -0.3419  0.1270
   43loPI   C4A  682   6.787  17.473   8.878  0.2673  0.3923 -0.0088
   43loPI   C5A  683   6.917  17.398   8.394  0.1717 -0.1582 -0.1044
   43loPI   C6A  684   7.088  17.724   8.072 -0.0050 -0.0549 -0.3009
   43loPI   C1B  685   7.218  16.839   9.680  0.1193  0.3353  0.1124
   43loPI   C2B  686   7.153  16.916   9.214  0.0587  0.0694  0.0085
   43loPI   C3B  687   7.183  17.092   8.835 -0.1468 -0.0914 -0.0411
   43loPI   C4B  688   7.422  17.350   8.654 -0.4078 -0.0877  0.1628
   44loPI    C1  689   0.458   8.271  10.883 -0.1340  0.0464  0.1874
   44loPI    C2  690   0.459   7.901  10.731 -0.1136  0.0895  0.0812
   44loPI    C3  691   0.366   7.959  11.116  0.1029 -0.0484  0.1564
   44loPI   PO4  692   0.461   8.413  10.660  0.1186 -0.2165  0.0877
   44loPI   GL1  693   0.136   8.307  10.338  0.2845  0.0079 -0.4747
   44loPI   GL2  694  -0.119   8.467  10.279 -0.0532  0.3393 -0.2110
   44loPI   C1A  695   0.285   7.991  10.039  0.4108  0.2028 -0.1017
   44loPI   C2A  696   0.249   8.041   9.624  0.3797  0.0462  0.1081
   44loPI   C3A  697   0.107   8.043   9.130 -0.0471  0.0622  0.0565
   44loPI   C4A  698   0.075   7.928   8.666  0.0810  0.2394  0.0506
   44loPI   C5A  699   0.271   7.639   8.226 -0.2683  0.0637 -0.0413
   44loPI   C6A  700   0.554   7.229   8.194  0.0354 -0.0310 -0.3745
   44loPI   C1B  701  -0.054   8.411   9.869  0.1716  0.1065 -0.0037
   44loPI   C2B  702  -0.052   8.451   9.384  0.2072 -0.2009 -0.0541
   44loPI   C3B  703  -0.114   8.465   8.985  0.0256  0.0654  0.0931
   44loPI   C4B  704  -0.174   8.502   8.567 -0.0650 -0.1109  0.0975
   45loPI    C1  705  17.364  13.575  11.373  0.0315 -0.1382  0.0002
   45loPI    C2  706  17.388  13.780  11.716  0.1014 -0.0914 -0.0326
   45loPI    C3  707  17.189  13.434  11.704  0.1398 -0.1173  0.0668
   45loPI   PO4  708  17.147  13.633  11.128  0.0815  0.0152  0.2212
   45loPI   GL1  709  17.204  13.774  10.657  0.1439 -0.0101 -0.1894
   45loPI   GL2  710  17.260  13.442  10.533  0.1871 -0.1578 -0.4450
   45loPI   C1A  711  16.902  13.764  10.301  0.1175 -0.1176  0.3689
   45loPI   C2A  712  16.814  13.730   9.850 -0.0210  0.0167 -0.0796
   45loPI   C3A  713  16.819  13.657   9.442 -0.1206 -0.2067  0.1226
   45loPI   C4A  714  16.954  13.650   9.061 -0.0526 -0.0677  0.2418
   45loPI   C5A  715  16.936  13.750   8.710 -0.1264  0.1926 -0.0219
   45loPI   C6A  716  17.069  13.527   8.335  0.0004  0.1208 -0.0475
   45loPI   C1B  717  17.043  13.273  10.152 -0.0566 -0.0709 -0.2289
   45loPI   C2B  718  17.009  13.203   9.670 -0.0470 -0.1139  0.1704
   45loPI   C3B  719  17.169  13.162   9.274 -0.1378 -0.1672 -0.1184
   45loPI   C4B  720  17.173  13.257   8.845  0.0449 -0.0702  0.0298
   46loPI    C1  721   4.886   0.985  10.951 -0.0221  0.1327 -0.3590
   46loPI    C2  722   4.735   1.330  11.088 -0.1658 -0.1039  0.0966
   46loPI    C3  723   5.088   1.198  11.224 -0.1756 -0.2032  0.0265
   46loPI   PO4  724   4.791   1.020  10.711 -0.0118 -0.0861 -0.2036
   46loPI   GL1  725   4.826   1.141  10.337 -0.2905  0.1635 -0.1498
   46loPI   GL2  726   5.173   1.180  10.269 -0.0522 -0.0320 -0.2869
   46loPI   C1A  727   4.672   1.221   9.993  0.1191 -0.2017 -0.2965
   46loPI   C2A  728   4.678   1.104   9.610  0.0433  0.0224 -0.4485
   46loPI   C3A  729   4.793   1.107   9.217  0.0624  0.1945  0.1514
   46loPI   C4A  730   4.937   1.038   8.760 -0.3352  0.0884  0.0133
   46loPI   C5A  731   4.953   1.153   8.339  0.0796  0.1203  0.3742
   46loPI   C6A  732   5.158   0.849   8.071  0.1749 -0.2689  0.0470
   46loPI   C1B  733   5.289   1.097   9.835  0.1064 -0.6575  0.2343
   46loPI   C2B  734   5.282   1.155   9.357  0.0206  0.2925 -0.4446
   46loPI   C3B  735   5.369   0.976   9.012  0.1049 -0.1669 -0.0329
   46loPI   C4B  736   5.488   0.981   8.550 -0.4554 -0.3308  0.3278
   47loPI    C1  737  15.570   2.238  11.476  0.3937  0.0294  0.0555
   47loPI    C2  738  15.576   1.932  11.733 -0.0243 -0.0019  0.0342
   47loPI    C3  739  15.486   2.299  11.862 -0.0614  0.0139 -0.0356
   47loPI   PO4  740  15.362   2.061  11.265 -0.1762 -0.0184 -0.0942
   47loPI   GL1  741  15.178   2.088  10.779  0.5477 -0.1690 -0.0679
   47loPI   GL2  742  15.442   1.921  10.763 -0.0365 -0.1734  0.3111
   47loPI   C1A  743  15.094   2.088  10.385  0.0853 -0.4516 -0.0773
   47loPI   C2A  744  15.090   1.988   9.934 -0.2689 -0.3341  0.0651
   47loPI   C3A  745  15.154   2.026   9.504 -0.4969  0.0374  0.1157
   47loPI   C4A  746  15.165   2.053   9.096 -0.0444  0.0716 -0.2313
   47loPI   C5A  747  14.982   1.912   8.705 -0.0170  0.4101  0.1362
   47loPI   C6A  748  14.844   1.549   8.414  0.3140 -0.2102 -0.2198
   47loPI   C1B  749  15.506   1.967  10.277 -0.4283  0.0944  0.2340
   47loPI   C2B  750  15.546   1.970   9.869 -0.0880  0.1099  0.1326
   47loPI   C3B  751  15.601   1.928   9.455  0.2404  0.0627  0.0103
   47loPI   C4B  752  15.657   1.977   9.080 -0.0771 -0.0591  0.2376
   48loPI    C1  753   9.741   9.120  10.527 -0.1710 -0.0751  0.0920
   48loPI    C2  754   9.588   9.238  10.878 -0.1552  0.1605  0.0217
   48loPI    C3  755   9.949   9.367  10.763 -0.0675 -0.0863  0.0131
   48loPI   PO4  756   9.618   9.244  10.334 -0.1440  0.0060 -0.0945
   48loPI   GL1  757   9.625   9.060  10.019 -0.0287 -0.2132 -0.0295
   48loPI   GL2  758   9.858   9.139   9.849  0.4108 -0.3886  0.0950
   48loPI   C1A  759   9.447   8.943   9.571 -0.2406  0.2613 -0.1480
   48loPI   C2A  760   9.586   8.922   9.190  0.2030 -0.0312  0.1226
   48loPI   C3A  761   9.671   8.941   8.825  0.0337  0.0002  0.1914
   48loPI   C4A  762   9.774   9.280   8.624 -0.0242 -0.0136  0.0045
   48loPI   C5A  763   9.953   9.433   8.207 -0.2815  0.0798  0.2903
   48loPI   C6A  764  10.162   9.290   7.877 -0.2787 -0.2637  0.1134
   48loPI   C1B  765  10.054   9.071   9.438 -0.0523 -0.2002 -0.2480
   48loPI   C2B  766  10.005   9.196   9.041 -0.3165  0.1561 -0.0596
   48loPI   C3B  767  10.218   9.026   8.616 -0.0863 -0.1859  0.1921
   48loPI   C4B  768  10.234   8.891   8.150  0.3502  0.0985 -0.1360
   49loPI    C1  769   7.171   3.413  10.342  0.1098  0.0840  0.0571
   49loPI    C2  770   7.526   3.298  10.485  0.0701  0.0930  0.1636
   49loPI    C3  771   7.276   3.508  10.716 -0.0303  0.0331  0.1100
   49loPI   PO4  772   7.319   3.692  10.221  0.0528 -0.5330  0.2100
   49loPI   GL1  773   7.369   3.856   9.875 -0.1815 -0.1094 -0.2355
   49loPI   GL2  774   7.119   3.559   9.744 -0.0041 -0.2232  0.1270
   49loPI   C1A  775   7.128   4.045   9.562  0.3192 -0.0638  0.0910
   49loPI   C2A  776   7.098   4.043   9.086  0.1312  0.1595  0.0973
   49loPI   C3A  777   7.011   4.153   8.703  0.1874  0.3837  0.0555
   49loPI   C4A  778   7.001   4.082   8.307  0.0770 -0.0358  0.1433
   49loPI   C5A  779   6.718   3.916   8.067  0.2426  0.1899 -0.0581
   49loPI   C6A  780   6.396   3.628   8.197 -0.1262 -0.1736 -0.1283
   49loPI   C1B  781   7.278   3.627   9.403 -0.3987 -0.3489  0.1275
   49loPI   C2B  782   7.272   3.590   8.908 -0.0857  0.3786 -0.0605
   49loPI   C3B  783   7.432   3.834   8.573  0.0031  0.1470  0.0587
   49loPI   C4B  784   7.522   4.035   8.083  0.1918  0.0669  0.0801
   50loPI    C1  785   9.422   6.729  10.456 -0.1054 -0.1673 -0.0952
   50loPI    C2  786   9.588   7.077  10.348  0.1027 -0.2448 -0.0297
   50loPI    C3  787   9.411   7.042  10.705 -0.0684 -0.1583 -0.1049
   50loPI   PO4  788   9.390   6.638  10.124  0.1079 -0.1920  0.2057
   50loPI   GL1  789   9.385   6.836   9.745 -0.2929  0.1383  0.1456
   50loPI   GL2  790   9.535   7.117   9.777 -0.2131  0.0992  0.3367
   50loPI   C1A  791   9.556   6.927   9.343  0.0677  0.0376 -0.1553
   50loPI   C2A  792   9.704   6.951   8.882 -0.0999  0.1526 -0.0410
   50loPI   C3A  793   9.766   6.930   8.536  0.0295 -0.1362 -0.1436
   50loPI   C4A  794   9.835   6.846   8.132 -0.2962  0.2265 -0.5073
   50loPI   C5A  795  10.062   6.638   7.789  0.0134 -0.0515 -0.0371
   50loPI   C6A  796  10.284   6.305   7.573  0.1912 -0.1455  0.0372
   50loPI   C1B  797   9.319   7.567   9.561  0.1550  0.1746  0.0870
   50loPI   C2B  798   9.372   7.945   9.248  0.0317  0.1062 -0.2451
   50loPI   C3B  799   9.391   7.936   8.846 -0.0529  0.1496 -0.1544
   50loPI   C4B  800   9.413   8.085   8.475  0.0507 -0.2988  0.1840
   51loPI    C1  801  10.127  14.500  10.356  0.1767 -0.0018 -0.3166
   51loPI    C2  802   9.902  14.212  10.193  0.1553 -0.3341  0.2704
   51loPI    C3  803   9.771  14.409  10.515  0.2350  0.2442 -0.0374
   51loPI   PO4  804  10.206  14.650  10.151  0.1253 -0.0801  0.1757
   51loPI   GL1  805  10.185  14.486   9.734  0.1948  0.0484  0.1330
   51loPI   GL2  806   9.889  14.344   9.738 -0.0415  0.0688  0.3672
   51loPI   C1A  807  10.452  14.737   9.429  0.0027 -0.2390  0.1930
   51loPI   C2A  808  10.710  14.898   9.038  0.0991 -0.1254 -0.2934
   51loPI   C3A  809  10.859  14.760   8.651 -0.2853  0.0348  0.2735
   51loPI   C4A  810  10.974  14.736   8.298  0.2859 -0.0007 -0.3865
   51loPI   C5A  811  11.101  14.972   7.943 -0.2125 -0.0883 -0.0466
   51loPI   C6A  812  11.492  15.198   7.648  0.1068  0.2360 -0.3076
   51loPI   C1B  813   9.951  14.422   9.351 -0.5027  0.1627 -0.0057
   51loPI   C2B  814  10.216  14.410   9.044 -0.0258  0.0255  0.2244
   51loPI   C3B  815  10.328  14.419   8.661 -0.3504 -0.2900 -0.2005
   51loPI   C4B  816  10.406  14.668   8.342 -0.3314  0.1179 -0.1616
   52loPI    C1  817   5.021  11.761  10.476 -0.1092  0.1062  0.0314
   52loPI    C2  818   4.851  11.457  10.673 -0.0131 -0.0421 -0.1119
   52loPI    C3  819   5.249  11.498  10.674 -0.0370  0.2094  0.0866
   52loPI   PO4  820   4.911  11.717  10.204  0.3455 -0.0049  0.1292
   52loPI   GL1  821   5.117  11.636   9.852 -0.2680 -0.1098 -0.2075
   52loPI   GL2  822   5.447  11.765   9.874 -0.4394  0.1100  0.1050
   52loPI   C1A  823   4.920  11.792   9.505  0.1530  0.1497 -0.1745
   52loPI   C2A  824   4.960  11.833   9.062  0.0408  0.1998 -0.1432
   52loPI   C3A  825   4.798  11.727   8.734 -0.0102 -0.0303 -0.2120
   52loPI   C4A  826   4.781  11.809   8.318  0.0025  0.0780  0.0036
   52loPI   C5A  827   4.856  11.643   7.914  0.3284 -0.0684 -0.0094
   52loPI   C6A  828   5.153  11.625   7.599 -0.3143 -0.0725 -0.0897
   52loPI   C1B  829   5.367  11.656   9.393 -0.0238  0.0811  0.0383
   52loPI   C2B  830   5.495  11.665   8.946  0.1650 -0.2233  0.1019
   52loPI   C3B  831   5.475  11.714   8.561 -0.1176 -0.1597 -0.1359
   52loPI   C4B  832   5.286  11.678   8.170  0.0903  0.0075 -0.2938
   53loPI    C1  833  11.264   0.223  11.133 -0.0486 -0.0350  0.0533
   53loPI    C2  834  11.405  -0.151  11.112 -0.0414 -0.0196 -0.2063
   53loPI    C3  835  11.479   0.073  11.436  0.0218 -0.2146 -0.0840
   53loPI   PO4  836  11.361   0.339  10.965  0.2622  0.1186  0.1160
   53loPI   GL1  837  11.642   0.454  10.616  0.0268 -0.2178 -0.1224
   53loPI   GL2  838  11.493   0.745  10.433  0.1878  0.3969 -0.0570
   53loPI   C1A  839  11.678   0.241  10.147 -0.1650  0.0387  0.0161
   53loPI   C2A  840  11.743   0.358   9.740 -0.1448  0.3410 -0.0458
   53loPI   C3A  841  11.924   0.360   9.382 -0.1532 -0.0358  0.0816
   53loPI   C4A  842  11.961   0.369   8.976 -0.1076 -0.2523  0.0018
   53loPI   C5A  843  11.977   0.349   8.436  0.2852 -0.2570  0.0055
   53loPI   C6A  844  11.715   0.423   8.019 -0.4975  0.2330  0.1715
   53loPI   C1B  845  11.574   0.748  10.024  0.0407 -0.4146  0.0714
   53loPI   C2B  846  11.564   0.836   9.575 -0.1274 -0.0038 -0.3234
   53loPI   C3B  847  11.703   0.788   9.205  0.1247 -0.2203 -0.0656
   53loPI   C4B  848  11.760   0.952   8.829 -0.3451 -0.1880 -0.0633
   54loPI    C1  849   0.240   5.513  11.642  0.1173 -0.0053  0.0320
   54loPI    C2  850  -0.079   5.708  11.783  0.0142  0.0555 -0.2775
   54loPI    C3  851   0.279   5.762  11.952 -0.1246  0.0414  0.0272
   54loPI   PO4  852   0.237   5.487  11.454 -0.1759  0.0368 -0.0250
   54loPI   GL1  853   0.267   5.161  11.163  0.3147 -0.0110 -0.2404
   54loPI   GL2  854   0.570   5.117  10.879  0.2686 -0.1354  0.0939
   54loPI   C1A  855   0.093   5.065  10.713 -0.0749 -0.1319  0.0264
   54loPI   C2A  856   0.056   4.987  10.414 -0.0959  0.1434  0.3629
   54loPI   C3A  857  -0.099   4.762   9.990 -0.0557  0.2562  0.3883
   54loPI   C4A  858  -0.159   4.762   9.518  0.0269 -0.1170 -0.0512
   54loPI   C5A  859  -0.081   4.742   9.072 -0.1262  0.2529 -0.0227
   54loPI   C6A  860  -0.340   4.435   8.825 -0.1226 -0.0188 -0.0017
   54loPI   C1B  861   0.476   5.192  10.413 -0.3767  0.2153  0.0668
   54loPI   C2B  862   0.304   5.162  10.052 -0.0376  0.4099 -0.1655
   54loPI   C3B  863   0.186   5.219   9.581  0.1748 -0.1604 -0.0397
   54loPI   C4B  864   0.245   5.130   9.132  0.2853 -0.0820  0.0093
   55loPI    C1  865   8.665   7.641  10.747  0.2539  0.0432 -0.0924
   55loPI    C2  866   8.651   7.243  10.773  0.0572  0.0477 -0.1158
   55loPI    C3  867   8.545   7.467  11.086 -0.0131  0.0825 -0.1640
   55loPI   PO4  868   8.728   7.689  10.521  0.2895  0.0432 -0.0140
   55loPI   GL1  869   8.857   7.645  10.091  0.1208  0.1325 -0.1386
   55loPI   GL2  870   8.962   7.788   9.810 -0.2045 -0.0876  0.0382
   55loPI   C1A  871   8.854   7.289   9.788  0.2471 -0.2479 -0.2437
   55loPI   C2A  872   9.094   7.076   9.451 -0.1836 -0.0620  0.1743
   55loPI   C3A  873   9.122   7.090   8.961  0.1908 -0.0848 -0.1890
   55loPI   C4A  874   9.231   6.939   8.467 -0.1758  0.1754 -0.0074
   55loPI   C5A  875   9.332   6.901   7.961 -0.1124  0.1196  0.1551
   55loPI   C6A  876   9.569   6.576   7.598  0.0341  0.0966 -0.0415
   55loPI   C1B  877   8.902   7.750   9.318 -0.1698 -0.0830 -0.5560
   55loPI   C2B  878   8.940   7.665   8.900 -0.0865  0.2061 -0.1639
   55loPI   C3B  879   9.122   7.507   8.517  0.1368 -0.2009 -0.0749
   55loPI   C4B  880   8.985   7.262   8.140 -0.0403 -0.0805  0.0510
   56loPI    C1  881   7.387  17.963  10.702 -0.2278  0.1520  0.0306
   56loPI    C2  882   7.214  18.004  11.060 -0.0262 -0.3695  0.1975
   56loPI    C3  883   7.569  18.174  10.989 -0.1116 -0.1837  0.2091
   56loPI   PO4  884   7.217  17.995  10.516 -0.2779  0.0594 -0.1589
   56loPI   GL1  885   6.841  18.048  10.332  0.1580  0.1095  0.1822
   56loPI   GL2  886   6.893  18.370  10.266  0.2534 -0.0389  0.0779
   56loPI   C1A  887   6.522  17.666  10.135 -0.2049 -0.1355  0.0332
   56loPI   C2A  888   6.467  17.443   9.786  0.1077 -0.2190 -0.0144
   56loPI   C3A  889   6.295  17.578   9.371 -0.1197 -0.4020 -0.0066
   56loPI   C4A  890   6.270  17.449   8.978  0.2333 -0.0648 -0.0572
   56loPI   C5A  891   6.407  17.539   8.561  0.1719  0.1816 -0.2097
   56loPI   C6A  892   6.656  17.847   8.357 -0.0269 -0.1817 -0.3715
   56loPI   C1B  893   6.918  18.255   9.828  0.0053 -0.1898  0.0375
   56loPI   C2B  894   7.122  18.247   9.311  0.2800  0.2275 -0.2750
   56loPI   C3B  895   7.024  18.282   8.884 -0.0138  0.3373 -0.1389
   56loPI   C4B  896   6.992  18.240   8.457 -0.0807 -0.2651 -0.1259
   57loPI    C1  897  14.680  17.556  11.159 -0.1967 -0.0926  0.1137
   57loPI    C2  898  14.716  17.924  11.311 -0.0566  0.0634 -0.2830
   57loPI    C3  899  14.489  17.652  11.497 -0.0767  0.3151  0.0706
   57loPI   PO4  900  14.565  17.589  10.965  0.2982  0.3186 -0.2010
   57loPI   GL1  901  14.469  17.591  10.574  0.0834  0.2127  0.2534
   57loPI   GL2  902  14.228  17.801  10.629  0.2666 -0.1762 -0.1146
   57loPI   C1A  903  14.611  17.375  10.231 -0.0511  0.1302  0.2094
   57loPI   C2A  904  14.607  17.418   9.781  0.2012  0.0343  0.0516
   57loPI   C3A  905  14.629  17.442   9.336 -0.2157  0.1211  0.0630
   57loPI   C4A  906  14.597  17.318   8.883 -0.1444  0.0771 -0.0490
   57loPI   C5A  907  14.730  17.427   8.533 -0.0736  0.1299 -0.2982
   57loPI   C6A  908  14.630  17.659   8.134 -0.3658 -0.3109  0.1359
   57loPI   C1B  909  14.317  17.879  10.235 -0.0672 -0.4013 -0.0511
   57loPI   C2B  910  14.414  17.857   9.913 -0.1225  0.0694 -0.0963
   57loPI   C3B  911  14.420  17.899   9.437 -0.1842 -0.3008  0.1483
   57loPI   C4B  912  14.422  17.778   9.021  0.0548  0.1814  0.1085
   58loPI    C1  913   7.028  12.682  10.781 -0.0126  0.1337  0.3249
   58loPI    C2  914   6.788  12.962  10.937 -0.1534  0.0209  0.3129
   58loPI    C3  915   6.768  12.585  11.069 -0.1795 -0.0478  0.1165
   58loPI   PO4  916   7.097  12.819  10.450  0.1029 -0.0167 -0.2181
   58loPI   GL1  917   7.048  12.798   9.961 -0.1039 -0.3828  0.3186
   58loPI   GL2  918   6.754  12.742  10.003 -0.2039 -0.1580 -0.2185
   58loPI   C1A  919   7.169  12.824   9.572  0.3410 -0.0541 -0.2644
   58loPI   C2A  920   7.010  12.726   9.127 -0.1074 -0.0646 -0.1502
   58loPI   C3A  921   7.002  12.773   8.695  0.1148  0.1268 -0.1181
   58loPI   C4A  922   7.009  12.771   8.333 -0.0754 -0.0932  0.1576
   58loPI   C5A  923   7.126  12.648   7.921 -0.1268  0.1312 -0.1099
   58loPI   C6A  924   7.257  12.650   7.503 -0.1853 -0.4001  0.2533
   58loPI   C1B  925   6.595  12.858   9.518 -0.0460 -0.2266 -0.0683
   58loPI   C2B  926   6.539  12.858   9.055 -0.1067 -0.1408  0.1768
   58loPI   C3B  927   6.457  12.863   8.644  0.2506 -0.2125 -0.0686
   58loPI   C4B  928   6.486  12.945   8.125 -0.0225 -0.0740 -0.3311
   59loPI    C1  929  14.074   0.309  11.387 -0.2326 -0.0700  0.1474
   59loPI    C2  930  14.311   0.559  11.591  0.0242 -0.0883 -0.1224
   59loPI    C3  931  14.381   0.165  11.599 -0.1977 -0.1258  0.0595
   59loPI   PO4  932  14.098   0.420  11.168 -0.5891 -0.2469 -0.1797
   59loPI   GL1  933  14.403   0.325  10.814  0.0395 -0.3154 -0.3303
   59loPI   GL2  934  14.653  -0.009  10.788  0.1696  0.1096  0.1230
   59loPI   C1A  935  14.321   0.698  10.636  0.2474 -0.0062 -0.0280
   59loPI   C2A  936  14.457   0.791  10.131  0.0591  0.1855 -0.3310
   59loPI   C3A  937  14.548   0.666   9.708  0.0166  0.3079  0.4344
   59loPI   C4A  938  14.605   0.717   9.354  0.0866 -0.0167  0.0206
   59loPI   C5A  939  14.618   0.810   8.930  0.1093 -0.0407 -0.1222
   59loPI   C6A  940  14.725   0.988   8.480 -0.2726  0.2444  0.3000
   59loPI   C1B  941  14.689   0.131  10.364 -0.0072  0.0805  0.1397
   59loPI   C2B  942  14.759   0.172   9.854  0.1021  0.1326  0.2844
   59loPI   C3B  943  14.871   0.279   9.430 -0.0723  0.1656 -0.4860
   59loPI   C4B  944  14.859   0.414   9.015  0.0733  0.0272  0.0399
   60loPI    C1  945  14.111   4.018  11.310  0.0801 -0.0729  0.0056
   60loPI    C2  946  14.001   4.314  11.065  0.2232 -0.1811 -0.1926
   60loPI    C3  947  14.379   4.290  11.192  0.1022  0.0006  0.2202
   60loPI   PO4  948  13.902   3.826  11.203 -0.2677 -0.0256  0.2094
   60loPI   GL1  949  13.757   3.584  10.862 -0.2840 -0.1167  0.1613
   60loPI   GL2  950  13.736   3.968  10.732  0.0177 -0.3420 -0.0256
   60loPI   C1A  951  13.979   3.565  10.495  0.0046 -0.0371 -0.1180
   60loPI   C2A  952  13.917   3.559  10.106 -0.1752  0.1311  0.3889
   60loPI   C3A  953  14.133   3.568   9.719  0.3594  0.1997  0.1042
   60loPI   C4A  954  14.056   3.595   9.281  0.0530  0.3239 -0.0102
   60loPI   C5A  955  14.103   3.495   8.982  0.0942 -0.2514  0.2368
   60loPI   C6A  956  13.676   3.288   8.688  0.1170  0.2544  0.2105
   60loPI   C1B  957  13.814   4.015  10.298  0.1351  0.1084 -0.1620
   60loPI   C2B  958  13.880   4.061   9.807  0.0098 -0.1788 -0.1064
   60loPI   C3B  959  13.899   4.130   9.411  0.2234  0.1521  0.0395
   60loPI   C4B  960  13.908   4.113   8.963 -0.0590  0.2358 -0.1450
   61loPI    C1  961   6.674   2.166  10.659 -0.1240  0.1922  0.0927
   61loPI    C2  962   6.471   2.084  10.994 -0.0288  0.2194  0.1575
   61loPI    C3  963   6.871   2.067  10.993 -0.0418 -0.2273 -0.0737
   61loPI   PO4  964   6.497   2.206  10.475  0.0810 -0.1783 -0.0852
   61loPI   GL1  965   6.543   2.364   9.989  0.0176 -0.1547 -0.2077
   61loPI   GL2  966   6.189   2.364   9.956  0.0173 -0.1570 -0.1822
   61loPI   C1A  967   6.587   2.683   9.728 -0.1464 -0.2514 -0.1955
   61loPI   C2A  968   6.700   2.770   9.440 -0.2075  0.1723  0.0130
   61loPI   C3A  969   6.701   2.524   9.141  0.1280 -0.0291  0.1150
   61loPI   C4A  970   6.764   2.430   8.750 -0.0285  0.0631 -0.3602
   61loPI   C5A  971   6.853   2.358   8.372  0.2209  0.0276  0.0194
   61loPI   C6A  972   6.715   2.267   7.901  0.2339  0.2344  0.0222
   61loPI   C1B  973   6.341   2.272   9.536  0.0176 -0.2537 -0.3193
   61loPI   C2B  974   6.258   2.215   9.243 -0.2043  0.0593  0.3016
   61loPI   C3B  975   6.374   2.171   8.921  0.2824 -0.0717  0.0185
   61loPI   C4B  976   6.410   2.109   8.482 -0.1235 -0.0029 -0.0152
   62loPI    C1  977   3.793  17.190  10.757 -0.0705 -0.1527  0.1908
   62loPI    C2  978   3.805  17.276  11.147  0.1884 -0.1155  0.1769
   62loPI    C3  979   3.487  17.381  10.928 -0.0259 -0.2714  0.4074
   62loPI   PO4  980   3.891  16.890  10.739  0.3098  0.3005  0.2332
   62loPI   GL1  981   3.949  16.671  10.342  0.0777 -0.0632  0.1086
   62loPI   GL2  982   4.060  17.010  10.248 -0.0040 -0.0386 -0.1788
   62loPI   C1A  983   3.846  16.507   9.969 -0.0728  0.0501  0.2534
   62loPI   C2A  984   3.794  16.502   9.510 -0.1369 -0.3618  0.2028
   62loPI   C3A  985   3.750  16.610   9.143 -0.0103  0.1073  0.0505
   62loPI   C4A  986   3.838  16.555   8.746  0.1112 -0.1621  0.0841
   62loPI   C5A  987   4.078  16.457   8.338 -0.0440  0.7012 -0.2767
   62loPI   C6A  988   4.449  16.491   8.025 -0.1022  0.1289  0.2164
   62loPI   C1B  989   4.221  16.954   9.890  0.3507 -0.0449 -0.3247
   62loPI   C2B  990   4.210  16.865   9.440 -0.0455 -0.0933 -0.1410
   62loPI   C3B  991   4.187  16.929   9.125 -0.0665  0.1032 -0.0136
   62loPI   C4B  992   4.196  16.995   8.725 -0.2748  0.0568 -0.1175
   63loPI    C1  993   4.725   9.511  10.603  0.2554  0.1872  0.0162
   63loPI    C2  994   4.542   9.185  10.745  0.1032  0.2223 -0.0961
   63loPI    C3  995   4.651   9.478  10.994 -0.2318  0.3184 -0.0584
   63loPI   PO4  996   4.896   9.389  10.419  0.0106  0.1977 -0.0564
   63loPI   GL1  997   5.077   9.480  10.013 -0.1793 -0.0855 -0.1649
   63loPI   GL2  998   5.347   9.669  10.065 -0.3870  0.2518  0.4006
   63loPI   C1A  999   4.962   9.509   9.597  0.3611  0.0363  0.0508
   63loPI   C2A 1000   4.852   9.401   9.189  0.1049  0.0010 -0.3227
   63loPI   C3A 1001   4.810   9.322   8.754 -0.0232  0.0057 -0.2058
   63loPI   C4A 1002   4.938   9.467   8.357  0.2705 -0.0319  0.5312
   63loPI   C5A 1003   5.153   9.541   7.956 -0.2070 -0.2095 -0.1896
   63loPI   C6A 1004   5.470   9.710   7.771 -0.2289 -0.2083  0.0257
   63loPI   C1B 1005   5.360   9.803   9.702 -0.2449 -0.0122  0.1961
   63loPI   C2B 1006   5.263   9.752   9.175 -0.0398 -0.0958 -0.2726
   63loPI   C3B 1007   5.217   9.892   8.816  0.1005 -0.1401 -0.0949
   63loPI   C4B 1008   5.317   9.872   8.274 -0.0539 -0.2259 -0.1243
   64loPI    C1 1009  11.957  16.289  11.136 -0.1759 -0.0243 -0.0475
   64loPI    C2 1010  12.054  15.951  11.325  0.3077  0.0385 -0.1699
   64loPI    C3 1011  11.826  16.224  11.508 -0.0656 -0.3349 -0.0603
   64loPI   PO4 1012  12.204  16.399  10.875 -0.1016 -0.1984 -0.0631
   64loPI   GL1 1013  12.295  16.349  10.360  0.0807 -0.1153  0.0352
   64loPI   GL2 1014  11.974  16.537  10.363  0.1773 -0.1794 -0.1189
   64loPI   C1A 1015  12.489  16.352   9.955  0.0443 -0.2722 -0.2760
   64loPI   C2A 1016  12.526  16.356   9.504 -0.1507  0.0858  0.1556
   64loPI   C3A 1017  12.579  16.467   9.098  0.1923 -0.1407  0.1677
   64loPI   C4A 1018  12.637  16.489   8.703 -0.0059  0.0870 -0.1606
   64loPI   C5A 1019  12.826  16.486   8.324  0.2567  0.4425  0.0418
   64loPI   C6A 1020  13.072  16.935   8.222 -0.2071 -0.1923 -0.0846
   64loPI   C1B 1021  11.805  16.785  10.014  0.4624 -0.0744 -0.0919
   64loPI   C2B 1022  11.860  16.872   9.596 -0.2051  0.0863  0.0588
   64loPI   C3B 1023  11.876  16.930   9.193 -0.0003 -0.1030  0.0380
   64loPI   C4B 1024  11.950  16.987   8.758  0.0517  0.0148  0.0209
   65loPI    C1 1025  10.720   2.900  11.247  0.0011 -0.0349  0.0654
   65loPI    C2 1026  10.322   2.903  11.288 -0.0045 -0.0824  0.0150
   65loPI    C3 1027  10.533   3.235  11.363 -0.0386 -0.0992  0.1888
   65loPI   PO4 1028  10.746   2.813  11.046 -0.1947  0.1629 -0.0532
   65loPI   GL1 1029  10.845   2.593  10.666 -0.1323 -0.0222 -0.0237
   65loPI   GL2 1030  11.122   2.662  10.456  0.0949 -0.1549 -0.0922
   65loPI   C1A 1031  10.488   2.556  10.254  0.0619  0.2903 -0.2505
   65loPI   C2A 1032  10.507   2.480   9.893  0.1111 -0.1622 -0.2051
   65loPI   C3A 1033  10.529   2.348   9.527  0.0370 -0.1151  0.2936
   65loPI   C4A 1034  10.529   2.324   9.098  0.0234  0.0297  0.0938
   65loPI   C5A 1035  10.699   2.270   8.666 -0.0978  0.1853  0.2820
   65loPI   C6A 1036  10.768   1.882   8.424  0.2992 -0.1473  0.1475
   65loPI   C1B 1037  11.358   2.632  10.030 -0.1448  0.0562  0.0370
   65loPI   C2B 1038  11.407   2.489   9.672  0.1829  0.0177 -0.0285
   65loPI   C3B 1039  11.563   2.663   9.263 -0.0526  0.0793 -0.2012
   65loPI   C4B 1040  11.724   2.559   8.843 -0.1683 -0.0784  0.1842
   66loPI    C1 1041  12.980   5.548  11.113  0.1428  0.3182  0.0200
   66loPI    C2 1042  12.969   5.780  11.439  0.0910 -0.2345  0.4256
   66loPI    C3 1043  12.789   5.423  11.442 -0.1323 -0.1427 -0.3042
   66loPI   PO4 1044  12.872   5.676  10.933 -0.2215 -0.2995  0.6623
   66loPI   GL1 1045  13.098   5.725  10.542  0.1259 -0.0372 -0.2235
   66loPI   GL2 1046  13.385   5.571  10.401  0.1238  0.0390  0.1890
   66loPI   C1A 1047  12.883   5.643  10.121 -0.0285  0.1926 -0.0335
   66loPI   C2A 1048  12.783   5.596   9.648 -0.2449 -0.1844  0.2852
   66loPI   C3A 1049  12.778   5.692   9.353 -0.1130 -0.2499 -0.0189
   66loPI   C4A 1050  12.791   5.679   8.965 -0.1760 -0.0529  0.1028
   66loPI   C5A 1051  12.726   5.628   8.498  0.1179 -0.1200  0.1044
   66loPI   C6A 1052  12.491   5.450   8.126 -0.0439 -0.2048  0.3100
   66loPI   C1B 1053  13.346   5.503   9.990 -0.0899 -0.2138  0.2344
   66loPI   C2B 1054  13.318   5.543   9.517  0.1560  0.0084  0.1385
   66loPI   C3B 1055  13.281   5.627   9.083 -0.1830 -0.2833 -0.2566
   66loPI   C4B 1056  13.346   5.506   8.636  0.1690 -0.0977 -0.1324
   67loPI    C1 1057  15.702  17.404  11.029 -0.0092 -0.1867  0.2100
   67loPI    C2 1058  15.572  17.658  11.310  0.1604  0.0291  0.0965
   67loPI    C3 1059  15.719  17.302  11.416 -0.0877 -0.0284  0.2563
   67loPI   PO4 1060  15.732  17.502  10.752 -0.1426 -0.0434  0.4572
   67loPI   GL1 1061  15.482  17.618  10.354 -0.0814  0.0995  0.2401
   67loPI   GL2 1062  15.892  17.554  10.220  0.2687 -0.1479 -0.4393
   67loPI   C1A 1063  15.499  17.706   9.987  0.2178  0.0323 -0.0320
   67loPI   C2A 1064  15.431  17.771   9.510 -0.1840 -0.1025 -0.0172
   67loPI   C3A 1065  15.435  17.721   9.060 -0.0588  0.0110 -0.1850
   67loPI   C4A 1066  15.465  17.796   8.658 -0.2803  0.1212  0.0058
   67loPI   C5A 1067  15.371  17.524   8.319 -0.0028 -0.0217 -0.1735
   67loPI   C6A 1068  15.096  17.330   8.221  0.1561 -0.2121  0.3084
   67loPI   C1B 1069  15.955  17.630   9.808  0.1573 -0.0100  0.2545
   67loPI   C2B 1070  15.890  17.719   9.409 -0.2427  0.3298  0.0091
   67loPI   C3B 1071  15.902  17.703   8.940 -0.0290  0.1755  0.0898
   67loPI   C4B 1072  15.916  17.793   8.509 -0.1834  0.0017  0.0120
   68loPI    C1 1073   0.526  17.269  10.979 -0.0234  0.2072  0.1720
   68loPI    C2 1074   0.418  16.973  11.225  0.4042 -0.0387  0.0736
   68loPI    C3 1075   0.565  17.314  11.374 -0.0180  0.1007  0.1837
   68loPI   PO4 1076   0.227  17.288  10.802  0.1280 -0.2894  0.2213
   68loPI   GL1 1077   0.022  17.004  10.425 -0.0052 -0.0464 -0.0036
   68loPI   GL2 1078  -0.042  17.324  10.400  0.2225 -0.2059  0.1070
   68loPI   C1A 1079   0.124  16.675  10.175 -0.1440  0.1817 -0.1842
   68loPI   C2A 1080   0.233  16.654   9.792 -0.0975 -0.0251  0.2441
   68loPI   C3A 1081   0.209  16.790   9.324  0.0560 -0.1356 -0.1327
   68loPI   C4A 1082   0.104  16.771   8.821  0.3049 -0.1952 -0.0725
   68loPI   C5A 1083   0.030  16.582   8.380 -0.0821 -0.1023 -0.1270
   68loPI   C6A 1084   0.103  16.378   7.937  0.0584  0.1689 -0.0283
   68loPI   C1B 1085  -0.100  17.250   9.931 -0.2265  0.2243  0.1517
   68loPI   C2B 1086   0.072  17.220   9.531  0.1091 -0.0752  0.1218
   68loPI   C3B 1087  -0.016  17.248   9.004 -0.0511 -0.3004  0.0863
   68loPI   C4B 1088   0.020  17.379   8.629  0.0911  0.1641 -0.1584
   69loPI    C1 1089   2.287   0.127  10.463  0.2752 -0.1185  0.1518
   69loPI    C2 1090   2.290   0.312  10.818 -0.0524 -0.0901  0.1434
   69loPI    C3 1091   2.157  -0.064  10.789  0.0124 -0.1069  0.0568
   69loPI   PO4 1092   2.216   0.284  10.304  0.1259  0.2362  0.0047
   69loPI   GL1 1093   2.324   0.378   9.907  0.0853  0.0026  0.1216
   69loPI   GL2 1094   2.539   0.575  10.043 -0.3561 -0.0029  0.0866
   69loPI   C1A 1095   2.457   0.357   9.551  0.1883 -0.1036  0.1555
   69loPI   C2A 1096   2.407   0.397   9.104  0.1472 -0.0282 -0.1097
   69loPI   C3A 1097   2.665   0.468   8.811  0.2633  0.2264  0.6039
   69loPI   C4A 1098   2.694   0.389   8.428  0.0405  0.4799  0.0017
   69loPI   C5A 1099   2.505   0.300   8.086 -0.0797 -0.1938  0.0793
   69loPI   C6A 1100   2.657   0.105   7.708 -0.1142  0.0324 -0.2401
   69loPI   C1B 1101   2.540   0.850   9.743  0.4439  0.2258 -0.1859
   69loPI   C2B 1102   2.576   0.876   9.283  0.2679 -0.0058 -0.0473
   69loPI   C3B 1103   2.518   0.954   8.883  0.0500  0.0222  0.5722
   69loPI   C4B 1104   2.557   1.077   8.496  0.1074 -0.1554  0.0541
   70loPI    C1 1105  15.335  15.435  11.528  0.0144 -0.2361  0.0519
   70loPI    C2 1106  15.732  15.393  11.535  0.0790  0.2638 -0.1678
   70loPI    C3 1107  15.552  15.633  11.799 -0.1077 -0.1374  0.0787
   70loPI   PO4 1108  15.253  15.232  11.236  0.1602 -0.0781 -0.3208
   70loPI   GL1 1109  15.219  15.216  10.754  0.1600  0.1659  0.1078
   70loPI   GL2 1110  14.933  15.513  10.594  0.0362  0.2253 -0.1755
   70loPI   C1A 1111  15.047  15.061  10.452 -0.0528  0.2296 -0.3120
   70loPI   C2A 1112  14.900  14.958  10.167 -0.0367  0.1691 -0.1097
   70loPI   C3A 1113  14.903  15.078   9.773  0.0419 -0.3920 -0.0351
   70loPI   C4A 1114  15.097  14.983   9.306 -0.1350 -0.4420  0.2562
   70loPI   C5A 1115  15.127  15.148   8.822 -0.1305  0.1040 -0.2853
   70loPI   C6A 1116  15.017  15.210   8.468  0.4346 -0.1980  0.3338
   70loPI   C1B 1117  14.671  15.524  10.221 -0.3799 -0.0987 -0.0845
   70loPI   C2B 1118  14.745  15.591   9.859  0.0127 -0.0922  0.1290
   70loPI   C3B 1119  14.864  15.535   9.444 -0.2992  0.1637  0.0787
   70loPI   C4B 1120  14.925  15.604   9.046  0.1633  0.2871 -0.0894
   71loPI    C1 1121  12.282   2.116  11.393  0.1043  0.1214 -0.0147
   71loPI    C2 1122  12.131   1.999  11.744 -0.1624  0.3851 -0.0376
   71loPI    C3 1123  12.508   2.131  11.723 -0.0171  0.0025  0.0750
   71loPI   PO4 1124  12.285   1.972  11.264 -0.2085  0.1664 -0.0986
   71loPI   GL1 1125  11.973   1.901  10.885 -0.0405  0.2478  0.0091
   71loPI   GL2 1126  12.316   1.909  10.767 -0.1473 -0.1466  0.0929
   71loPI   C1A 1127  11.797   1.733  10.493 -0.0625 -0.0012 -0.1384
   71loPI   C2A 1128  11.729   1.649  10.075  0.2914  0.2306 -0.0749
   71loPI   C3A 1129  11.837   1.651   9.662 -0.2325 -0.6266 -0.2361
   71loPI   C4A 1130  11.832   1.723   9.220  0.4331 -0.1944 -0.3142
   71loPI   C5A 1131  11.936   1.599   8.825  0.1395  0.1846  0.3621
   71loPI   C6A 1132  12.297   1.373   8.630 -0.0438  0.0210  0.1117
   71loPI   C1B 1133  12.350   1.741  10.321  0.2031 -0.2172  0.0227
   71loPI   C2B 1134  12.274   1.579   9.893  0.1691 -0.1641  0.3095
   71loPI   C3B 1135  12.378   1.480   9.500  0.2017 -0.0829 -0.0710
   71loPI   C4B 1136  12.425   1.559   9.105  0.6006  0.2468 -0.3722
   72loPI    C1 1137  14.627  10.262  10.847  0.2106  0.1263 -0.4280
   72loPI    C2 1138  14.477  10.530  10.591  0.1605  0.3554 -0.1647
   72loPI    C3 1139  14.494  10.615  10.981 -0.2070 -0.1719 -0.0226
   72loPI   PO4 1140  14.753  10.141  10.724 -0.2004 -0.2320 -0.2671
   72loPI   GL1 1141  14.922  10.295  10.400 -0.0446 -0.1460  0.0453
   72loPI   GL2 1142  14.779  10.427  10.249 -0.0533  0.0474 -0.1471
   72loPI   C1A 1143  14.904  10.010  10.053  0.2624 -0.1752 -0.1145
   72loPI   C2A 1144  14.904   9.812   9.652  0.1226  0.0559  0.1486
   72loPI   C3A 1145  15.017   9.882   9.264 -0.1156  0.2291 -0.0964
   72loPI   C4A 1146  15.087   9.829   8.788  0.0357  0.1608 -0.1698
   72loPI   C5A 1147  14.972   9.697   8.344 -0.1496  0.0600 -0.0236
   72loPI   C6A 1148  14.852  10.014   7.902  0.1723  0.0847  0.1046
   72loPI   C1B 1149  14.600  10.373   9.883 -0.0109 -0.0394 -0.2699
   72loPI   C2B 1150  14.714  10.330   9.437 -0.1196 -0.0063  0.0251
   72loPI   C3B 1151  14.904  10.317   8.985 -0.0802 -0.0806  0.1154
   72loPI   C4B 1152  14.922  10.474   8.601  0.0074  0.0719  0.1102
   73loPI    C1 1153   6.344   1.501  11.050  0.2305 -0.1243  0.0968
   73loPI    C2 1154   6.699   1.631  11.180  0.1670  0.2040 -0.0487
   73loPI    C3 1155   6.633   1.239  11.138  0.4193  0.1270  0.2377
   73loPI   PO4 1156   6.320   1.664  10.724  0.4119 -0.1128  0.0887
   73loPI   GL1 1157   6.331   1.771  10.312 -0.0886  0.0272 -0.0976
   73loPI   GL2 1158   6.481   1.546  10.243 -0.0249  0.1613 -0.0413
   73loPI   C1A 1159   6.407   1.902   9.903  0.1621  0.0283 -0.1976
   73loPI   C2A 1160   6.579   1.799   9.595 -0.1789  0.1545 -0.2133
   73loPI   C3A 1161   6.486   1.755   9.300  0.0780 -0.0554 -0.1485
   73loPI   C4A 1162   6.526   1.686   8.909 -0.1817  0.3237  0.2161
   73loPI   C5A 1163   6.745   1.650   8.511 -0.0359  0.0474  0.1321
   73loPI   C6A 1164   6.555   1.703   8.054 -0.0263 -0.1069 -0.1008
   73loPI   C1B 1165   6.665   1.435   9.887  0.2149 -0.3773  0.3782
   73loPI   C2B 1166   6.694   1.328   9.545 -0.0774 -0.0350  0.4126
   73loPI   C3B 1167   6.681   1.211   9.128 -0.0377  0.0248 -0.2023
   73loPI   C4B 1168   6.770   1.176   8.649  0.0402 -0.1869  0.0113
   74loPI    C1 1169   3.047  13.051  11.037 -0.0868 -0.1273 -0.0006
   74loPI    C2 1170   3.098  12.910  11.408  0.3204 -0.1052 -0.0434
   74loPI    C3 1171   3.073  13.304  11.346 -0.3112 -0.1259  0.0183
   74loPI   PO4 1172   3.221  12.901  10.897 -0.0043  0.1463  0.2986
   74loPI   GL1 1173   3.045  12.671  10.652  0.0876  0.1501 -0.1443
   74loPI   GL2 1174   3.440  12.533  10.549 -0.2185  0.0283  0.1706
   74loPI   C1A 1175   2.925  12.657  10.213  0.3092 -0.2440  0.0095
   74loPI   C2A 1176   2.702  12.656   9.895  0.1965  0.2931  0.0811
   74loPI   C3A 1177   2.631  12.719   9.462 -0.1387  0.1117  0.0090
   74loPI   C4A 1178   2.650  12.675   9.029 -0.0848 -0.0208  0.1107
   74loPI   C5A 1179   2.613  12.651   8.539  0.1633  0.0937 -0.0115
   74loPI   C6A 1180   2.269  12.503   8.275  0.3710  0.1012  0.3508
   74loPI   C1B 1181   3.445  12.645  10.085  0.0224  0.0548  0.3292
   74loPI   C2B 1182   3.229  12.668   9.686 -0.0159 -0.0759 -0.1095
   74loPI   C3B 1183   3.152  12.649   9.300 -0.0623  0.1843 -0.2242
   74loPI   C4B 1184   3.187  12.522   8.874 -0.3477 -0.0207  0.1695
   75loPI    C1 1185  12.750   6.227  11.308 -0.1301  0.0780 -0.1693
   75loPI    C2 1186  12.431   6.466  11.337 -0.1715 -0.0018  0.0473
   75loPI    C3 1187  12.787   6.590  11.472 -0.1158  0.0756 -0.1670
   75loPI   PO4 1188  12.756   6.165  11.123 -0.1177  0.2860  0.1692
   75loPI   GL1 1189  12.604   6.013  10.660 -0.3593 -0.0399  0.1086
   75loPI   GL2 1190  12.940   6.211  10.649  0.1429 -0.0143  0.5197
   75loPI   C1A 1191  12.622   6.040  10.289 -0.1148 -0.0181 -0.4208
   75loPI   C2A 1192  12.641   6.003   9.939  0.0094 -0.0343 -0.0441
   75loPI   C3A 1193  12.565   6.102   9.544 -0.0184 -0.2079 -0.0527
   75loPI   C4A 1194  12.557   6.194   9.258 -0.0208  0.1658  0.1006
   75loPI   C5A 1195  12.529   6.058   8.833  0.1941  0.0761  0.1442
   75loPI   C6A 1196  12.639   6.229   8.478  0.2639 -0.2613 -0.0928
   75loPI   C1B 1197  13.116   6.138  10.205 -0.3536 -0.0293  0.1516
   75loPI   C2B 1198  13.146   5.943   9.767 -0.0932 -0.0660 -0.1140
   75loPI   C3B 1199  13.169   6.164   9.384 -0.0105 -0.2092  0.1077
   75loPI   C4B 1200  13.096   6.086   8.912  0.0632  0.0477 -0.2384
   76loPI    C1 1201   8.586  14.000  10.323 -0.0130  0.0001 -0.0799
   76loPI    C2 1202   8.782  13.695  10.153 -0.0037  0.0810 -0.2163
   76loPI    C3 1203   8.880  13.815  10.522 -0.1212 -0.1900 -0.0937
   76loPI   PO4 1204   8.579  14.185  10.077  0.1465  0.2301 -0.0669
   76loPI   GL1 1205   8.522  14.466   9.726 -0.3805  0.1734  0.4170
   76loPI   GL2 1206   8.491  14.701   9.479 -0.4462  0.2014  0.2510
   76loPI   C1A 1207   8.561  14.220   9.215 -0.1145 -0.2352  0.0694
   76loPI   C2A 1208   8.598  14.117   8.847  0.2547  0.2907  0.0324
   76loPI   C3A 1209   8.461  14.110   8.378 -0.0428  0.0131  0.1195
   76loPI   C4A 1210   8.061  14.017   8.216  0.0538  0.0391 -0.1884
   76loPI   C5A 1211   7.842  13.991   7.888 -0.0518  0.2468  0.3587
   76loPI   C6A 1212   7.819  13.793   7.469 -0.0260 -0.4302  0.1697
   76loPI   C1B 1213   8.854  14.721   9.157 -0.2912 -0.0866  0.0614
   76loPI   C2B 1214   8.804  14.653   8.632 -0.1348 -0.3366  0.0974
   76loPI   C3B 1215   8.932  14.409   8.319  0.1729 -0.4573  0.1016
   76loPI   C4B 1216   9.210  14.335   7.998  0.0448 -0.0993  0.1019
   77loPI    C1 1217   4.529  10.077  10.853 -0.0772 -0.2426  0.0161
   77loPI    C2 1218   4.293   9.889  11.115 -0.1099 -0.1690  0.0398
   77loPI    C3 1219   4.219  10.270  11.017  0.1524 -0.0614  0.2470
   77loPI   PO4 1220   4.501   9.933  10.626  0.0790 -0.1338 -0.2209
   77loPI   GL1 1221   4.402   9.911  10.181  0.0059  0.4019 -0.0245
   77loPI   GL2 1222   4.468   9.580  10.085 -0.1364  0.0507 -0.0466
   77loPI   C1A 1223   4.232   9.974   9.786  0.1373 -0.2255  0.0059
   77loPI   C2A 1224   4.189  10.055   9.335  0.0275 -0.1617  0.1726
   77loPI   C3A 1225   4.156  10.007   8.889  0.0869 -0.3325  0.0731
   77loPI   C4A 1226   4.047   9.949   8.482  0.1927  0.1900 -0.3130
   77loPI   C5A 1227   4.025  10.217   8.202 -0.0195  0.0496 -0.0057
   77loPI   C6A 1228   3.937  10.593   7.836 -0.1450 -0.0438  0.2246
   77loPI   C1B 1229   4.396   9.534   9.642  0.0667  0.0636 -0.0686
   77loPI   C2B 1230   4.241   9.534   9.188 -0.0918 -0.0461 -0.1079
   77loPI   C3B 1231   4.273   9.584   8.735 -0.0833  0.1463  0.0355
   77loPI   C4B 1232   4.384   9.615   8.319 -0.0703  0.1764  0.0530
   78loPI    C1 1233  13.851  13.005  11.104 -0.4048  0.1253  0.2396
   78loPI    C2 1234  13.802  12.615  11.032 -0.0957  0.1266  0.0012
   78loPI    C3 1235  13.821  12.747  11.409 -0.0957 -0.1026  0.0832
   78loPI   PO4 1236  14.037  13.048  11.023 -0.0082 -0.1138  0.2972
   78loPI   GL1 1237  14.134  13.285  10.566 -0.0298  0.1988 -0.1239
   78loPI   GL2 1238  14.046  12.936  10.531  0.0309  0.3392 -0.0479
   78loPI   C1A 1239  14.139  13.296  10.140 -0.0683 -0.3082  0.2634
   78loPI   C2A 1240  14.169  13.227   9.712 -0.1702 -0.2419 -0.3230
   78loPI   C3A 1241  14.139  13.296   9.264  0.3175 -0.2432  0.0682
   78loPI   C4A 1242  14.311  13.235   8.795 -0.2391 -0.0201  0.0350
   78loPI   C5A 1243  14.265  13.348   8.365 -0.2114 -0.2698  0.0369
   78loPI   C6A 1244  13.827  13.447   8.190  0.1744 -0.0670  0.2095
   78loPI   C1B 1245  14.242  12.793  10.235 -0.1478  0.0491 -0.0076
   78loPI   C2B 1246  14.325  12.761   9.844  0.0094 -0.0958 -0.1095
   78loPI   C3B 1247  14.401  12.627   9.466  0.3783 -0.1473  0.2060
   78loPI   C4B 1248  14.413  12.774   9.056  0.2646  0.4234  0.0149
   79loPI    C1 1249  11.788   8.856  10.798 -0.0515 -0.1341  0.0899
   79loPI    C2 1250  12.128   9.065  10.822 -0.0460 -0.1145 -0.1419
   79loPI    C3 1251  12.046   8.785  11.095 -0.0689  0.2102  0.1920
   79loPI   PO4 1252  11.757   8.780  10.491  0.1889  0.0619 -0.0016
   79loPI   GL1 1253  11.821   8.863  10.083  0.2641 -0.1929 -0.2471
   79loPI   GL2 1254  11.562   9.113  10.071  0.3222  0.0995  0.0246
   79loPI   C1A 1255  11.835   8.852   9.588  0.2060  0.0917 -0.0212
   79loPI   C2A 1256  11.730   8.827   9.216 -0.1785  0.2243 -0.3139
   79loPI   C3A 1257  11.500   8.798   8.895 -0.2024  0.1500 -0.0054
   79loPI   C4A 1258  11.311   8.679   8.562 -0.0052 -0.0114 -0.1616
   79loPI   C5A 1259  10.907   8.780   8.413 -0.1008  0.1727  0.0346
   79loPI   C6A 1260  10.584   8.646   8.542 -0.2572 -0.0174  0.0244
   79loPI   C1B 1261  11.465   9.193   9.759 -0.1154 -0.1687  0.0425
   79loPI   C2B 1262  11.461   9.216   9.406  0.3730 -0.1231  0.1543
   79loPI   C3B 1263  11.567   9.285   9.038  0.6581  0.3338  0.0774
   79loPI   C4B 1264  11.792   9.214   8.655 -0.0179 -0.0229 -0.1047
   80loPI    C1 1265   6.951   8.362  10.724 -0.1939  0.2075 -0.1561
   80loPI    C2 1266   7.165   8.370  11.062 -0.2525  0.1318 -0.1169
   80loPI    C3 1267   6.770   8.432  11.074 -0.2761 -0.0072 -0.1543
   80loPI   PO4 1268   7.133   8.399  10.515  0.0057  0.1100  0.4011
   80loPI   GL1 1269   7.158   8.654  10.110 -0.2188 -0.2160  0.1874
   80loPI   GL2 1270   7.398   8.748   9.987  0.1173 -0.4808  0.0714
   80loPI   C1A 1271   7.192   8.725   9.561  0.1556  0.0199 -0.2042
   80loPI   C2A 1272   7.152   8.842   9.132  0.0504 -0.0791 -0.2578
   80loPI   C3A 1273   7.021   8.601   8.773 -0.0396  0.0407  0.3724
   80loPI   C4A 1274   7.013   8.596   8.269 -0.1141  0.2261  0.3216
   80loPI   C5A 1275   6.602   8.774   8.050  0.3242 -0.0692 -0.2387
   80loPI   C6A 1276   6.501   9.151   7.914 -0.1471  0.0938  0.2004
   80loPI   C1B 1277   7.703   8.793   9.603 -0.1292 -0.2719  0.0528
   80loPI   C2B 1278   7.967   8.974   9.419  0.0230  0.0958 -0.1403
   80loPI   C3B 1279   8.240   9.144   9.088  0.0242  0.0279 -0.1219
   80loPI   C4B 1280   8.311   9.068   8.652 -0.1276 -0.0769  0.3958
   81loPI    C1 1281   3.226   2.409  11.357  0.0046  0.2377  0.0179
   81loPI    C2 1282   3.139   2.661  11.655  0.1272 -0.1126  0.3579
   81loPI    C3 1283   3.511   2.518  11.616  0.1205 -0.0450  0.0127
   81loPI   PO4 1284   3.119   2.421  11.176 -0.2203 -0.3865 -0.1483
   81loPI   GL1 1285   3.103   2.446  10.771  0.3101  0.3147  0.0351
   81loPI   GL2 1286   3.389   2.449  10.577  0.0806 -0.0270  0.1666
   81loPI   C1A 1287   2.942   2.349  10.373 -0.2385 -0.1715 -0.1131
   81loPI   C2A 1288   2.871   2.495   9.940  0.1547 -0.1694  0.0842
   81loPI   C3A 1289   2.777   2.455   9.509  0.1798  0.1520 -0.2701
   81loPI   C4A 1290   2.778   2.413   9.064  0.3691  0.2991 -0.1509
   81loPI   C5A 1291   2.649   2.466   8.599 -0.2444 -0.0058 -0.0427
   81loPI   C6A 1292   2.583   2.739   8.261 -0.0645  0.1014  0.2918
   81loPI   C1B 1293   3.530   2.405  10.184  0.2377 -0.2090  0.0482
   81loPI   C2B 1294   3.300   2.345   9.699 -0.1413  0.2109  0.1011
   81loPI   C3B 1295   3.224   2.311   9.329 -0.2442 -0.0059 -0.1063
   81loPI   C4B 1296   3.364   2.192   8.980 -0.4300 -0.2738 -0.0725
   82loPI    C1 1297   2.364   0.936  10.823 -0.1888  0.1068 -0.3095
   82loPI    C2 1298   2.031   0.786  10.985  0.1008 -0.1504  0.0627
   82loPI    C3 1299   2.223   1.087  11.165  0.0562  0.0176 -0.1667
   82loPI   PO4 1300   2.200   0.866  10.547 -0.2319 -0.2556 -0.1766
   82loPI   GL1 1301   1.898   0.961  10.253  0.2055  0.0472 -0.1097
   82loPI   GL2 1302   2.038   0.737  10.109  0.1256 -0.1342  0.1063
   82loPI   C1A 1303   1.765   1.104   9.805  0.0359 -0.0744 -0.1649
   82loPI   C2A 1304   1.729   1.063   9.421 -0.0531 -0.2522  0.2042
   82loPI   C3A 1305   1.772   1.121   8.984  0.0728 -0.2217  0.0123
   82loPI   C4A 1306   1.823   1.123   8.532  0.1885 -0.1690 -0.1276
   82loPI   C5A 1307   2.132   1.335   8.314 -0.0199  0.0178 -0.1117
   82loPI   C6A 1308   2.374   1.190   7.956 -0.0294  0.3082  0.1658
   82loPI   C1B 1309   2.075   0.709   9.706 -0.0072 -0.2639 -0.0169
   82loPI   C2B 1310   2.110   0.815   9.312 -0.0837 -0.2243  0.0357
   82loPI   C3B 1311   2.004   0.726   8.946  0.0607  0.0120  0.0367
   82loPI   C4B 1312   1.741   0.610   8.597  0.2327 -0.1995 -0.0761
   83loPI    C1 1313  15.340   6.642  11.305 -0.2030  0.0502 -0.0003
   83loPI    C2 1314  15.475   6.955  11.515  0.1986 -0.1108 -0.0102
   83loPI    C3 1315  15.625   6.590  11.580 -0.0951 -0.2632 -0.1665
   83loPI   PO4 1316  15.471   6.657  11.045 -0.1504 -0.3586  0.0825
   83loPI   GL1 1317  15.472   6.486  10.551  0.0553 -0.2938 -0.1007
   83loPI   GL2 1318  15.174   6.589  10.556  0.0776 -0.1581  0.0612
   83loPI   C1A 1319  15.787   6.478  10.272 -0.2200 -0.0769  0.1185
   83loPI   C2A 1320  15.892   6.479   9.851  0.2694  0.1510 -0.0049
   83loPI   C3A 1321  15.876   6.379   9.340 -0.0310 -0.0345 -0.0685
   83loPI   C4A 1322  15.869   6.493   9.009  0.1129  0.2061 -0.0799
   83loPI   C5A 1323  15.992   6.518   8.625  0.3793 -0.1619 -0.1832
   83loPI   C6A 1324  16.208   6.792   8.360  0.4844 -0.1324  0.1726
   83loPI   C1B 1325  15.202   6.580  10.114 -0.0069  0.2281  0.0977
   83loPI   C2B 1326  15.269   6.520   9.696  0.1073 -0.2114  0.0666
   83loPI   C3B 1327  15.369   6.622   9.249 -0.1910 -0.0935 -0.0091
   83loPI   C4B 1328  15.473   6.770   8.808 -0.1066  0.2009  0.0449
   84loPI    C1 1329   7.102   2.959  10.521 -0.1225 -0.0173  0.1196
   84loPI    C2 1330   7.212   2.700  10.806  0.0591  0.2685  0.3147
   84loPI    C3 1331   7.135   3.081  10.901  0.2146  0.3904 -0.0330
   84loPI   PO4 1332   7.263   2.869  10.330 -0.1417 -0.3044  0.4116
   84loPI   GL1 1333   7.392   3.049  10.049  0.2079 -0.0440 -0.0890
   84loPI   GL2 1334   7.701   2.992  10.115  0.0614 -0.1856  0.1483
   84loPI   C1A 1335   7.301   3.166   9.590  0.1189 -0.4752  0.1420
   84loPI   C2A 1336   7.444   3.152   9.238 -0.1060 -0.2577 -0.2367
   84loPI   C3A 1337   7.408   3.049   8.752  0.0756 -0.0047 -0.3044
   84loPI   C4A 1338   7.463   3.277   8.333 -0.4567  0.2174  0.0682
   84loPI   C5A 1339   7.733   3.346   7.914  0.1676 -0.0793 -0.0788
   84loPI   C6A 1340   8.207   3.377   7.820 -0.0905 -0.0687 -0.0596
   84loPI   C1B 1341   7.739   3.054   9.671 -0.2518  0.0249 -0.5694
   84loPI   C2B 1342   7.836   2.932   9.146  0.2066 -0.1238  0.1377
   84loPI   C3B 1343   7.960   2.798   8.729  0.0528 -0.1427 -0.1289
   84loPI   C4B 1344   8.175   2.599   8.329  0.0350 -0.2390 -0.2299
   85loPI    C1 1345   8.254   9.773  10.481  0.1323  0.1551  0.0857
   85loPI    C2 1346   8.349   9.902  10.847 -0.0954 -0.0691  0.2270
   85loPI    C3 1347   8.060   9.630  10.800  0.1582 -0.2907 -0.0913
   85loPI   PO4 1348   8.229   9.946  10.338  0.0525 -0.3700 -0.0288
   85loPI   GL1 1349   8.448  10.066  10.112 -0.1818 -0.0435 -0.0266
   85loPI   GL2 1350   8.309  10.305   9.832 -0.0949  0.2518  0.1078
   85loPI   C1A 1351   8.503   9.771   9.688 -0.2930 -0.1679 -0.0811
   85loPI   C2A 1352   8.449   9.590   9.348  0.2315  0.1852 -0.1279
   85loPI   C3A 1353   8.430   9.593   8.925  0.1141  0.0565 -0.2245
   85loPI   C4A 1354   8.466   9.509   8.547 -0.2854 -0.0883 -0.0416
   85loPI   C5A 1355   8.232   9.737   8.142 -0.1770 -0.2219  0.0171
   85loPI   C6A 1356   8.231   9.847   7.774 -0.0387  0.3332 -0.3739
   85loPI   C1B 1357   8.179  10.422   9.469 -0.1419 -0.0294 -0.2651
   85loPI   C2B 1358   8.111  10.431   9.078 -0.2792  0.2541  0.0620
   85loPI   C3B 1359   8.207  10.636   8.618  0.1571  0.1441 -0.2612
   85loPI   C4B 1360   8.240  10.997   8.519 -0.1545 -0.0752  0.1675
   86loPI    C1 1361   8.756   4.693  10.512  0.1159 -0.1877  0.0670
   86loPI    C2 1362   8.432   4.514  10.360 -0.2101  0.3516  0.1007
   86loPI    C3 1363   8.499   4.505  10.755 -0.0565  0.0481  0.0707
   86loPI   PO4 1364   8.977   4.614  10.416  0.0626 -0.2870 -0.2272
   86loPI   GL1 1365   9.132   4.534  10.079  0.0911 -0.5852  0.0861
   86loPI   GL2 1366   9.205   4.832   9.871 -0.4140  0.0616  0.4773
   86loPI   C1A 1367   9.359   4.195   9.861  0.0366 -0.1025  0.2556
   86loPI   C2A 1368   9.469   3.947   9.389 -0.1924 -0.0469 -0.0715
   86loPI   C3A 1369   9.519   3.987   8.930  0.0974 -0.0457 -0.4032
   86loPI   C4A 1370   9.452   3.962   8.525 -0.0508  0.0792  0.1694
   86loPI   C5A 1371   9.483   4.201   8.107 -0.2983  0.0459  0.1161
   86loPI   C6A 1372   9.441   3.817   7.825  0.1501 -0.1123  0.0896
   86loPI   C1B 1373   9.297   4.526   9.497 -0.3365 -0.2506 -0.0186
   86loPI   C2B 1374   9.362   4.440   9.082  0.1593 -0.2109 -0.1882
   86loPI   C3B 1375   9.307   4.381   8.625 -0.2008 -0.0197  0.2363
   86loPI   C4B 1376   9.120   4.528   8.243 -0.1184  0.2346 -0.0421
   87loPI    C1 1377  14.488   1.721  11.586  0.0045 -0.0035  0.1489
   87loPI    C2 1378  14.726   1.467  11.783  0.0214 -0.0984  0.0073
   87loPI    C3 1379  14.565   1.779  11.974  0.1425 -0.1157  0.1390
   87loPI   PO4 1380  14.481   1.700  11.314 -0.1734  0.0110 -0.0382
   87loPI   GL1 1381  14.164   1.782  11.014 -0.1299  0.0069  0.1892
   87loPI   GL2 1382  14.076   2.071  11.007 -0.4827 -0.0740  0.0499
   87loPI   C1A 1383  14.193   1.768  10.650  0.3387  0.0700 -0.1830
   87loPI   C2A 1384  14.217   1.732  10.256  0.2209 -0.2457 -0.0230
   87loPI   C3A 1385  14.229   1.755   9.817 -0.1184 -0.0648  0.0400
   87loPI   C4A 1386  14.218   1.654   9.336  0.1080  0.1066 -0.1409
   87loPI   C5A 1387  13.968   1.659   8.935 -0.4204  0.1181 -0.1555
   87loPI   C6A 1388  13.888   1.266   8.654  0.0757 -0.3024 -0.2273
   87loPI   C1B 1389  14.020   2.196  10.513  0.3223 -0.1727  0.1038
   87loPI   C2B 1390  14.054   2.194   9.994 -0.1790  0.0795 -0.0518
   87loPI   C3B 1391  14.040   2.254   9.600 -0.0009 -0.2613  0.1473
   87loPI   C4B 1392  14.039   2.181   9.177  0.0061 -0.1336 -0.1710
   88loPI    C1 1393   0.758  15.022  10.921 -0.0301 -0.2580 -0.0260
   88loPI    C2 1394   0.881  14.818  11.242 -0.0115 -0.1030  0.0665
   88loPI    C3 1395   1.094  15.129  11.109 -0.0157 -0.1707 -0.1006
   88loPI   PO4 1396   0.729  14.922  10.740  0.2264 -0.0611 -0.0232
   88loPI   GL1 1397   0.939  14.935  10.400  0.1160  0.0035 -0.1471
   88loPI   GL2 1398   0.749  15.255  10.382 -0.1431  0.3243  0.2622
   88loPI   C1A 1399   0.934  14.788  10.020 -0.1242  0.0456  0.1975
   88loPI   C2A 1400   0.937  14.777   9.605  0.0344  0.1022 -0.1949
   88loPI   C3A 1401   1.004  14.814   9.229 -0.0430 -0.2558 -0.4816
   88loPI   C4A 1402   0.919  14.770   8.709 -0.1806  0.0709 -0.1456
   88loPI   C5A 1403   0.718  14.578   8.343  0.0757 -0.1615 -0.0133
   88loPI   C6A 1404   0.298  14.492   8.208 -0.0736  0.3366  0.0276
   88loPI   C1B 1405   0.741  15.212   9.888  0.0912  0.0387 -0.1281
   88loPI   C2B 1406   0.764  15.269   9.462 -0.0820 -0.0715 -0.1760
   88loPI   C3B 1407   0.759  15.223   9.034 -0.1551  0.4096 -0.0996
   88loPI   C4B 1408   0.788  15.254   8.558 -0.1992  0.1638  0.0788
   89loPI    C1 1409  11.757   0.535  11.239  0.1813  0.1394 -0.0705
   89loPI    C2 1410  11.849   0.822  11.502  0.0122  0.0131  0.1299
   89loPI    C3 1411  11.835   0.440  11.620 -0.0517 -0.0467 -0.0672
   89loPI   PO4 1412  11.885   0.656  11.029  0.4014 -0.1746 -0.0254
   89loPI   GL1 1413  12.106   0.527  10.694  0.2986  0.5554 -0.3391
   89loPI   GL2 1414  12.453   0.689  10.759  0.0484  0.1212 -0.0403
   89loPI   C1A 1415  11.993   0.838  10.335 -0.1863  0.1491  0.0052
   89loPI   C2A 1416  12.173   0.772  10.018  0.2096 -0.4569 -0.0762
   89loPI   C3A 1417  12.123   0.730   9.589 -0.0688 -0.0357 -0.1018
   89loPI   C4A 1418  12.289   0.685   9.143 -0.0084  0.4418 -0.0534
   89loPI   C5A 1419  12.254   0.762   8.724  0.2990 -0.0869  0.1888
   89loPI   C6A 1420  11.958   0.858   8.374 -0.1364  0.3756  0.2696
   89loPI   C1B 1421  12.515   0.579  10.345  0.3840  0.0132 -0.0156
   89loPI   C2B 1422  12.607   0.566   9.855 -0.0016 -0.0411 -0.2554
   89loPI   C3B 1423  12.653   0.547   9.486  0.1738 -0.0511  0.4997
   89loPI   C4B 1424  12.837   0.710   9.084 -0.0660 -0.1615 -0.1133
   90loPI    C1 1425   7.104   9.779  10.727 -0.1360  0.0440  0.0329
   90loPI    C2 1426   6.767   9.663  10.907 -0.2555  0.0918 -0.1573
   90loPI    C3 1427   7.113   9.656  11.107 -0.3162 -0.2586 -0.0575
   90loPI   PO4 1428   7.010   9.690  10.456  0.2475 -0.4306  0.0429
   90loPI   GL1 1429   7.228   9.657  10.022  0.2567 -0.1648  0.0482
   90loPI   GL2 1430   7.453   9.813   9.845 -0.2187 -0.0795 -0.2462
   90loPI   C1A 1431   7.100   9.647   9.501 -0.0970 -0.1406 -0.1540
   90loPI   C2A 1432   6.964   9.731   9.122 -0.1313  0.3606 -0.0408
   90loPI   C3A 1433   6.867   9.606   8.763  0.1526  0.1185 -0.0387
   90loPI   C4A 1434   6.714   9.651   8.328  0.0674  0.0573  0.0191
   90loPI   C5A 1435   6.687   9.596   7.931 -0.2166  0.0944  0.1709
   90loPI   C6A 1436   6.737   9.385   7.534 -0.0126 -0.0028 -0.0435
   90loPI   C1B 1437   7.587   9.694   9.530  0.0572 -0.2206  0.2642
   90loPI   C2B 1438   7.487   9.672   9.154 -0.2958 -0.0518  0.0330
   90loPI   C3B 1439   7.342   9.416   8.810 -0.0559 -0.0748 -0.1787
   90loPI   C4B 1440   7.260   9.021   8.541 -0.2040 -0.1412  0.1174
   91loPI    C1 1441  10.358   8.186  10.508  0.0729  0.0589  0.2311
   91loPI    C2 1442  10.185   8.470  10.731 -0.3290 -0.0009  0.0045
   91loPI    C3 1443  10.262   8.111  10.890  0.0132  0.1708  0.2387
   91loPI   PO4 1444  10.223   8.234  10.254 -0.2918 -0.2405 -0.0908
   91loPI   GL1 1445  10.187   8.159   9.860 -0.1621  0.0381  0.3279
   91loPI   GL2 1446  10.231   7.794   9.847  0.1452 -0.2872 -0.1483
   91loPI   C1A 1447  10.249   8.013   9.423 -0.4800 -0.0384 -0.0025
   91loPI   C2A 1448  10.315   7.910   8.980 -0.0703 -0.1385 -0.1349
   91loPI   C3A 1449  10.451   7.749   8.586 -0.1857 -0.3311  0.1585
   91loPI   C4A 1450  10.445   7.483   8.230  0.0227 -0.1371  0.0462
   91loPI   C5A 1451  10.333   7.081   8.266  0.0507  0.2394  0.0471
   91loPI   C6A 1452  10.702   6.844   8.123 -0.0630 -0.2287  0.1615
   91loPI   C1B 1453  10.406   7.481   9.478  0.2638 -0.1477  0.2313
   91loPI   C2B 1454  10.535   7.444   8.996  0.1262  0.1347  0.0590
   91loPI   C3B 1455  10.678   7.280   8.624 -0.2307 -0.1708  0.5583
   91loPI   C4B 1456  10.887   7.299   8.301  0.1008  0.1309  0.0931
   92loPI    C1 1457   5.190  13.059  10.652  0.0341  0.1818  0.1241
   92loPI    C2 1458   5.299  12.747  10.878 -0.0452 -0.0051 -0.0915
   92loPI    C3 1459   5.350  13.120  11.014  0.2737 -0.1040  0.0702
   92loPI   PO4 1460   4.910  13.050  10.634 -0.3421 -0.1048  0.1028
   92loPI   GL1 1461   4.582  12.957  10.378 -0.0155 -0.4350 -0.0674
   92loPI   GL2 1462   4.632  12.666  10.222 -0.1913 -0.1635  0.1450
   92loPI   C1A 1463   4.188  12.832   9.941  0.0985 -0.0789  0.0117
   92loPI   C2A 1464   4.147  12.858   9.605  0.0073  0.2138  0.2489
   92loPI   C3A 1465   4.074  12.818   9.155 -0.1790 -0.3476 -0.2869
   92loPI   C4A 1466   4.017  12.793   8.708  0.0477 -0.2102 -0.0521
   92loPI   C5A 1467   3.999  12.873   8.284 -0.1266  0.0348  0.3320
   92loPI   C6A 1468   4.261  12.841   7.920 -0.1232 -0.0814 -0.3157
   92loPI   C1B 1469   4.632  12.794   9.720  0.0425  0.0878 -0.0201
   92loPI   C2B 1470   4.589  12.705   9.373  0.1993 -0.0286  0.1788
   92loPI   C3B 1471   4.495  12.702   8.814  0.0547 -0.2567  0.1336
   92loPI   C4B 1472   4.447  12.758   8.399 -0.0378 -0.3657 -0.2004
   93loPI    C1 1473   5.466   7.999  10.667  0.2259 -0.1194 -0.0920
   93loPI    C2 1474   5.721   8.264  10.825  0.0413 -0.0433  0.0823
   93loPI    C3 1475   5.658   7.914  11.007 -0.0225 -0.0379  0.0708
   93loPI   PO4 1476   5.439   8.095  10.464 -0.2257  0.1936  0.2342
   93loPI   GL1 1477   5.544   8.023  10.140  0.1884  0.0433  0.0557
   93loPI   GL2 1478   5.823   8.282  10.006 -0.1488  0.2440  0.0623
   93loPI   C1A 1479   5.615   7.922   9.731  0.2360  0.0105  0.2581
   93loPI   C2A 1480   5.404   7.996   9.298  0.1196 -0.1213  0.1948
   93loPI   C3A 1481   5.401   8.038   8.892  0.1219  0.5051 -0.1148
   93loPI   C4A 1482   5.419   7.801   8.499  0.0760 -0.1522  0.2261
   93loPI   C5A 1483   5.460   7.548   8.053 -0.2121 -0.1419  0.0702
   93loPI   C6A 1484   5.786   7.775   7.780 -0.5770 -0.1160  0.0568
   93loPI   C1B 1485   5.784   8.383   9.564  0.1182  0.0409  0.0314
   93loPI   C2B 1486   5.671   8.398   9.070 -0.1687 -0.0014  0.2184
   93loPI   C3B 1487   5.694   8.343   8.593 -0.2538 -0.3036  0.1348
   93loPI   C4B 1488   5.431   8.296   8.275  0.4513  0.0452 -0.0258
   94loPI    C1 1489  12.179  12.762  10.664 -0.0103 -0.1781  0.1689
   94loPI    C2 1490  12.424  13.049  10.532 -0.3674 -0.0581 -0.2561
   94loPI    C3 1491  12.190  13.117  10.849 -0.3006  0.0463 -0.2284
   94loPI   PO4 1492  12.071  12.602  10.445 -0.2035 -0.1555 -0.2246
   94loPI   GL1 1493  12.033  12.607  10.024 -0.0029 -0.2516 -0.1067
   94loPI   GL2 1494  12.396  12.586  10.097  0.0141  0.2056  0.0070
   94loPI   C1A 1495  11.939  12.582   9.591  0.1747  0.2752 -0.1253
   94loPI   C2A 1496  11.956  12.675   9.147  0.0227  0.1307 -0.0381
   94loPI   C3A 1497  11.871  12.535   8.741  0.0508  0.2328 -0.3660
   94loPI   C4A 1498  12.040  12.508   8.418  0.2740 -0.0652  0.1275
   94loPI   C5A 1499  12.227  12.699   8.008 -0.2353  0.0728  0.0453
   94loPI   C6A 1500  12.648  12.918   8.096 -0.0566 -0.2319 -0.1821
   94loPI   C1B 1501  12.437  12.587   9.652 -0.1202 -0.2626  0.0957
   94loPI   C2B 1502  12.447  12.623   9.294 -0.0109  0.4064  0.5074
   94loPI   C3B 1503  12.420  12.572   8.809  0.1272 -0.0062 -0.0498
   94loPI   C4B 1504  12.671  12.486   8.353  0.0173  0.0178  0.1477
   95loPI    C1 1505   5.522  10.026  10.989  0.4107  0.0884  0.2757
   95loPI    C2 1506   5.535   9.722  11.248  0.2145  0.0185  0.2048
   95loPI    C3 1507   5.286  10.028  11.312 -0.1356 -0.1915 -0.1055
   95loPI   PO4 1508   5.468   9.994  10.632  0.2956 -0.1689 -0.1273
   95loPI   GL1 1509   5.568  10.111  10.220 -0.0815  0.0250 -0.0444
   95loPI   GL2 1510   5.288  10.280  10.130  0.0469  0.2841  0.1511
   95loPI   C1A 1511   5.823   9.875   9.907 -0.0829 -0.0387  0.1049
   95loPI   C2A 1512   5.821   9.794   9.473  0.0833 -0.0464 -0.1897
   95loPI   C3A 1513   5.852   9.772   9.133 -0.2276 -0.0945  0.0082
   95loPI   C4A 1514   5.743   9.721   8.740 -0.2724 -0.1115 -0.0373
   95loPI   C5A 1515   5.818   9.765   8.316 -0.0144  0.1560  0.0730
   95loPI   C6A 1516   5.865   9.947   7.921  0.4390  0.1124  0.0432
   95loPI   C1B 1517   5.117  10.290   9.731  0.2067 -0.1829  0.0863
   95loPI   C2B 1518   5.113  10.344   9.291  0.3160 -0.1378 -0.3154
   95loPI   C3B 1519   5.006  10.396   8.915 -0.0343  0.1810  0.1334
   95loPI   C4B 1520   5.041  10.397   8.502  0.0745  0.0319  0.1642
   96loPI    C1 1521   6.551   2.760  10.614  0.0786  0.1831  0.1595
   96loPI    C2 1522   6.280   2.560  10.831  0.1316 -0.1251 -0.0529
   96loPI    C3 1523   6.667   2.549  10.933  0.1183 -0.0250  0.0093
   96loPI   PO4 1524   6.445   2.716  10.357 -0.1822  0.0348 -0.0083
   96loPI   GL1 1525   6.434   3.093  10.091 -0.0062  0.1620 -0.1116
   96loPI   GL2 1526   6.830   3.057  10.062 -0.1178  0.0556 -0.2706
   96loPI   C1A 1527   6.373   3.208   9.739  0.3399 -0.0222  0.2262
   96loPI   C2A 1528   6.451   3.195   9.318  0.0850  0.2826 -0.3677
   96loPI   C3A 1529   6.395   3.310   8.893  0.2712 -0.1106  0.0369
   96loPI   C4A 1530   6.513   3.285   8.558  0.0283  0.1691  0.1416
   96loPI   C5A 1531   6.873   3.417   8.326  0.1369  0.0448  0.0984
   96loPI   C6A 1532   7.191   3.665   8.176 -0.1992  0.2499  0.2138
   96loPI   C1B 1533   6.820   3.182   9.620  0.1478 -0.0028  0.2333
   96loPI   C2B 1534   6.958   3.231   9.183 -0.0007  0.0397  0.3964
   96loPI   C3B 1535   6.905   3.116   8.793  0.0321 -0.0361  0.3806
   96loPI   C4B 1536   7.108   2.938   8.408 -0.0704  0.3586  0.0189
   97loPI    C1 1537  12.452  14.967  10.614  0.1813  0.0065 -0.1469
   97loPI    C2 1538  12.519  14.931  11.007  0.1177 -0.0907 -0.1446
   97loPI    C3 1539  12.819  15.030  10.762  0.1397  0.0518 -0.0619
   97loPI   PO4 1540  12.183  15.152  10.567 -0.1628 -0.0293 -0.3505
   97loPI   GL1 1541  12.102  15.302  10.218 -0.1046  0.0371  0.1915
   97loPI   GL2 1542  12.210  15.626  10.337  0.0298 -0.1558 -0.3085
   97loPI   C1A 1543  12.215  15.233   9.825  0.0600 -0.0476  0.1488
   97loPI   C2A 1544  12.439  15.470   9.525 -0.0470 -0.0290  0.0149
   97loPI   C3A 1545  12.301  15.556   9.146  0.2195  0.0514  0.1134
   97loPI   C4A 1546  12.322  15.399   8.800  0.0634  0.1342 -0.0858
   97loPI   C5A 1547  12.400  15.520   8.420 -0.1609 -0.1280  0.1126
   97loPI   C6A 1548  12.421  15.146   8.158 -0.2339 -0.0058 -0.3402
   97loPI   C1B 1549  12.250  15.780   9.920  0.0028 -0.1150 -0.3118
   97loPI   C2B 1550  12.203  15.995   9.519 -0.1786 -0.3857  0.1127
   97loPI   C3B 1551  12.306  16.016   9.056  0.0859 -0.1316  0.1158
   97loPI   C4B 1552  12.244  15.887   8.681 -0.3293  0.1065 -0.1626
   98loPI    C1 1553  10.382   6.047  11.019  0.2403  0.1855  0.1189
   98loPI    C2 1554  10.644   6.021  11.320  0.2013 -0.0764  0.1325
   98loPI    C3 1555  10.277   5.867  11.361  0.1557 -0.0055 -0.0061
   98loPI   PO4 1556  10.580   6.116  10.793  0.5172  0.2938 -0.1432
   98loPI   GL1 1557  10.643   6.140  10.410 -0.0808 -0.2364 -0.2690
   98loPI   GL2 1558  10.381   6.261  10.218  0.1277  0.2091 -0.0090
   98loPI   C1A 1559  10.795   6.051  10.033 -0.1270 -0.1018  0.0184
   98loPI   C2A 1560  10.793   6.386   9.694 -0.1679 -0.0057 -0.0924
   98loPI   C3A 1561  10.791   6.653   9.316 -0.3509  0.1413 -0.7243
   98loPI   C4A 1562  10.777   6.632   8.891 -0.2532 -0.1318  0.0983
   98loPI   C5A 1563  10.775   6.450   8.402 -0.0525  0.2072 -0.0453
   98loPI   C6A 1564  10.803   6.073   8.250 -0.2767 -0.2260 -0.0060
   98loPI   C1B 1565  10.314   6.200   9.805  0.1991 -0.0492 -0.1108
   98loPI   C2B 1566  10.072   6.217   9.536  0.1705 -0.0335 -0.2771
   98loPI   C3B 1567  10.158   5.980   9.164  0.5277 -0.0852 -0.0255
   98loPI   C4B 1568  10.182   5.702   8.804  0.0772 -0.1809  0.2569
   99loPI    C1 1569   4.737   3.202  11.169  0.0661  0.1985  0.0156
   99loPI    C2 1570   4.875   3.031  11.503 -0.0519  0.1269  0.0278
   99loPI    C3 1571   4.640   3.354  11.526  0.2475  0.3504  0.0022
   99loPI   PO4 1572   4.623   3.039  11.032  0.0515 -0.2932  0.0510
   99loPI   GL1 1573   4.205   3.003  10.568  0.0061 -0.1013  0.1978
   99loPI   GL2 1574   4.054   3.291  10.437 -0.4055  0.0355 -0.0871
   99loPI   C1A 1575   4.465   2.988  10.231  0.2321  0.0447 -0.3373
   99loPI   C2A 1576   4.491   3.099   9.757  0.1191  0.0164 -0.2322
   99loPI   C3A 1577   4.518   3.096   9.324  0.0927 -0.0041  0.2499
   99loPI   C4A 1578   4.570   2.933   8.921 -0.0662  0.2165 -0.0972
   99loPI   C5A 1579   4.551   2.864   8.573 -0.2869 -0.0790 -0.3917
   99loPI   C6A 1580   4.538   2.755   8.164 -0.4953  0.2941  0.0991
   99loPI   C1B 1581   4.031   3.302  10.009 -0.0445 -0.3632 -0.1651
   99loPI   C2B 1582   3.979   3.206   9.609  0.1048 -0.0053  0.1637
   99loPI   C3B 1583   3.962   3.005   9.202  0.0947 -0.3262 -0.2676
   99loPI   C4B 1584   3.959   3.080   8.756  0.0889 -0.2765 -0.0856
  100loPI    C1 1585  12.890   3.680  11.360 -0.0107  0.1843  0.0817
  100loPI    C2 1586  12.579   3.443  11.276 -0.1397  0.4547 -0.2290
  100loPI    C3 1587  12.564   3.689  11.590  0.0101  0.0349  0.1178
  100loPI   PO4 1588  12.965   3.655  10.968 -0.2402  0.1586  0.5163
  100loPI   GL1 1589  13.297   3.460  10.767  0.2044 -0.0157 -0.1595
  100loPI   GL2 1590  13.507   3.219  10.657  0.0013  0.1470  0.0300
  100loPI   C1A 1591  13.488   3.611  10.347  0.0985  0.0204 -0.3870
  100loPI   C2A 1592  13.483   3.573   9.886 -0.1828 -0.2008  0.2401
  100loPI   C3A 1593  13.579   3.669   9.485  0.1830  0.2838 -0.0905
  100loPI   C4A 1594  13.608   3.759   9.028  0.1381  0.2409 -0.3980
  100loPI   C5A 1595  13.687   3.811   8.652 -0.0633 -0.2095 -0.0086
  100loPI   C6A 1596  14.156   3.868   8.518  0.1145  0.1474  0.4077
  100loPI   C1B 1597  13.690   3.125  10.381  0.4281 -0.1291  0.1284
  100loPI   C2B 1598  13.674   3.097   9.953  0.0144 -0.2820  0.0027
  100loPI   C3B 1599  13.732   3.209   9.574  0.1021  0.1046  0.3622
  100loPI   C4B 1600  13.778   3.198   9.185 -0.0188  0.0562 -0.0829
  101loPI    C1 1601   3.357   8.322  10.795 -0.0650 -0.0532  0.1315
  101loPI    C2 1602   3.600   8.631  10.869 -0.2452  0.1001  0.0944
  101loPI    C3 1603   3.361   8.492  11.157 -0.2269  0.0507  0.0859
  101loPI   PO4 1604   3.303   8.461  10.511 -0.3521  0.1838 -0.1241
  101loPI   GL1 1605   3.267   8.764  10.095  0.2795  0.2398 -0.1296
  101loPI   GL2 1606   3.364   8.514  10.012 -0.0490 -0.0487 -0.0573
  101loPI   C1A 1607   3.195   8.910   9.682 -0.0157 -0.1812 -0.2262
  101loPI   C2A 1608   3.198   8.872   9.185 -0.0150  0.1296 -0.0422
  101loPI   C3A 1609   3.040   8.896   8.661 -0.2687 -0.1354  0.1454
  101loPI   C4A 1610   2.918   9.060   8.237 -0.0154  0.0302  0.2677
  101loPI   C5A 1611   2.907   9.566   8.201  0.0492  0.2977  0.1271
  101loPI   C6A 1612   3.184   9.853   8.081  0.1949 -0.1953 -0.1557
  101loPI   C1B 1613   3.427   8.346   9.621  0.2119  0.0841 -0.1664
  101loPI   C2B 1614   3.391   8.272   9.145 -0.0224 -0.0436 -0.0008
  101loPI   C3B 1615   3.207   8.253   8.749  0.3121  0.3161 -0.2934
  101loPI   C4B 1616   3.215   8.389   8.327 -0.0820  0.0981  0.2016
  102loPI    C1 1617  17.611   8.377  10.768 -0.0467  0.0382  0.1032
  102loPI    C2 1618  17.318   8.233  10.998 -0.0227 -0.1507  0.0174
  102loPI    C3 1619  17.666   8.342  11.162 -0.1235  0.0319  0.1135
  102loPI   PO4 1620  17.441   8.522  10.576 -0.0739 -0.0561 -0.1179
  102loPI   GL1 1621  17.456   8.555  10.111 -0.1747  0.0772  0.0105
  102loPI   GL2 1622  17.207   8.267  10.232  0.0973  0.1391 -0.2104
  102loPI   C1A 1623  17.407   8.419   9.777  0.4319 -0.6181  0.0486
  102loPI   C2A 1624  17.476   8.517   9.403 -0.0387  0.0130  0.2108
  102loPI   C3A 1625  17.436   8.514   8.834 -0.0663  0.1592 -0.1746
  102loPI   C4A 1626  17.407   8.738   8.439  0.0778  0.0382 -0.0674
  102loPI   C5A 1627  17.752   8.946   8.279  0.2209 -0.0490  0.0282
  102loPI   C6A 1628  17.961   9.044   7.906  0.0098 -0.0094 -0.1275
  102loPI   C1B 1629  17.096   8.118   9.877  0.3865  0.2351 -0.0562
  102loPI   C2B 1630  17.180   8.096   9.396  0.1720 -0.0741  0.4808
  102loPI   C3B 1631  17.115   8.074   8.933  0.0043 -0.1185 -0.1293
  102loPI   C4B 1632  16.998   8.016   8.530  0.2042  0.1496 -0.0385
  103loPI    C1 1633  13.922  15.251  10.828  0.1688  0.0351  0.0096
  103loPI    C2 1634  13.788  15.242  11.205  0.2449 -0.0264  0.0354
  103loPI    C3 1635  13.898  15.589  11.040  0.1727  0.0064  0.0560
  103loPI   PO4 1636  13.671  15.071  10.667 -0.5184  0.1389  0.1252
  103loPI   GL1 1637  13.202  15.190  10.389  0.1829  0.0636 -0.2184
  103loPI   GL2 1638  13.061  15.492  10.360  0.0463  0.0897  0.0561
  103loPI   C1A 1639  13.380  15.320  10.022  0.1194 -0.3357 -0.1503
  103loPI   C2A 1640  13.331  15.221   9.621 -0.0801  0.0018 -0.1066
  103loPI   C3A 1641  13.424  15.337   9.289  0.1112  0.0869 -0.2508
  103loPI   C4A 1642  13.446  15.411   8.782 -0.1028  0.2155 -0.1044
  103loPI   C5A 1643  13.689  15.374   8.495 -0.3763 -0.0551  0.0668
  103loPI   C6A 1644  13.969  15.411   8.145  0.5171 -0.3616 -0.0008
  103loPI   C1B 1645  13.108  15.742  10.041  0.2593  0.1885 -0.1108
  103loPI   C2B 1646  13.196  15.704   9.612  0.2133 -0.2605 -0.1982
  103loPI   C3B 1647  13.308  15.831   9.207 -0.1329  0.5438 -0.0982
  103loPI   C4B 1648  13.266  15.876   8.823 -0.1587  0.0454 -0.3448
  104loPI    C1 1649   7.300   2.185  10.686 -0.1250 -0.0271  0.1346
  104loPI    C2 1650   7.654   2.113  10.857 -0.0530 -0.0625 -0.0278
  104loPI    C3 1651   7.368   2.301  11.063  0.0833  0.0275  0.0817
  104loPI   PO4 1652   7.189   2.034  10.628  0.1152 -0.0938 -0.2155
  104loPI   GL1 1653   7.192   1.744  10.286 -0.1372  0.0589  0.3114
  104loPI   GL2 1654   6.972   2.014  10.211  0.2386 -0.1095  0.1709
  104loPI   C1A 1655   7.189   1.354   9.978  0.3795  0.0290  0.0327
  104loPI   C2A 1656   7.163   1.267   9.567  0.2358 -0.1514  0.2242
  104loPI   C3A 1657   7.177   1.102   9.247 -0.1657  0.1326 -0.2402
  104loPI   C4A 1658   7.277   1.079   8.900  0.0119  0.2006 -0.1433
  104loPI   C5A 1659   7.146   1.025   8.375 -0.0254  0.1000 -0.0446
  104loPI   C6A 1660   6.918   1.284   8.103 -0.1546  0.0892 -0.1694
  104loPI   C1B 1661   7.024   1.764   9.768  0.0276 -0.0751 -0.1843
  104loPI   C2B 1662   6.974   1.618   9.324  0.0331 -0.3606 -0.0863
  104loPI   C3B 1663   7.036   1.529   8.890  0.0931  0.0114 -0.1281
  104loPI   C4B 1664   7.170   1.557   8.609  0.1153 -0.0130  0.3130
  105loPI    C1 1665  16.916   6.845  11.087 -0.0639  0.0840  0.1119
  105loPI    C2 1666  17.005   7.208  11.230 -0.0038  0.0850  0.0723
  105loPI    C3 1667  16.689   7.009  11.373 -0.0468  0.1601  0.0822
  105loPI   PO4 1668  16.915   6.831  10.750 -0.0986  0.2124 -0.2641
  105loPI   GL1 1669  17.125   6.749  10.257 -0.0566 -0.3414 -0.0760
  105loPI   GL2 1670  16.910   6.520  10.280  0.4019 -0.2096 -0.0180
  105loPI   C1A 1671  17.124   6.803   9.839  0.1947 -0.1702  0.1767
  105loPI   C2A 1672  17.208   6.775   9.469  0.0135  0.0037  0.0550
  105loPI   C3A 1673  17.164   6.729   9.045 -0.1389 -0.1469  0.2218
  105loPI   C4A 1674  17.333   6.804   8.593 -0.1681 -0.2480  0.2789
  105loPI   C5A 1675  17.058   6.891   8.235 -0.2573  0.0383 -0.0097
  105loPI   C6A 1676  16.768   7.061   7.874 -0.1000  0.3765  0.2041
  105loPI   C1B 1677  16.841   6.428   9.801  0.1119 -0.0430 -0.2940
  105loPI   C2B 1678  16.856   6.308   9.439  0.1677  0.1327  0.1647
  105loPI   C3B 1679  16.934   6.237   9.058 -0.4245  0.1575  0.2902
  105loPI   C4B 1680  16.962   6.272   8.571  0.1942 -0.1114  0.3903
  106loPI    C1 1681  17.281  11.153  11.243  0.1684  0.1313  0.0280
  106loPI    C2 1682  17.262  11.135  11.643  0.2385 -0.3685  0.0161
  106loPI    C3 1683  17.617  11.167  11.461  0.1889  0.1541 -0.0050
  106loPI   PO4 1684  17.278  11.356  11.091  0.1812  0.1254  0.0427
  106loPI   GL1 1685  17.412  11.481  10.785 -0.0242  0.0434  0.0237
  106loPI   GL2 1686  17.557  11.760  10.654  0.1592  0.3170  0.0375
  106loPI   C1A 1687  17.364  11.384  10.330 -0.2954  0.0788 -0.1836
  106loPI   C2A 1688  17.336  11.405   9.881  0.0421  0.0847  0.4138
  106loPI   C3A 1689  17.245  11.320   9.608 -0.1003  0.1058  0.0233
  106loPI   C4A 1690  17.221  11.313   9.140 -0.2312 -0.0328  0.1459
  106loPI   C5A 1691  17.279  11.367   8.819 -0.0678  0.0173 -0.0780
  106loPI   C6A 1692  17.139  11.508   8.371  0.0552  0.1390  0.1121
  106loPI   C1B 1693  17.827  11.732  10.293  0.1015 -0.2613  0.2811
  106loPI   C2B 1694  17.646  11.830   9.940  0.2888 -0.0128 -0.2423
  106loPI   C3B 1695  17.610  11.765   9.380 -0.1500  0.1825 -0.2175
  106loPI   C4B 1696  17.574  11.749   8.872 -0.0388 -0.1532 -0.1530
  107loPI    C1 1697   2.883   4.132  10.901  0.1077  0.0694 -0.0426
  107loPI    C2 1698   2.938   3.815  11.139 -0.0136 -0.1711 -0.3286
  107loPI    C3 1699   3.047   4.179  11.263 -0.1675 -0.2750  0.1333
  107loPI   PO4 1700   2.874   3.946  10.642  0.0195 -0.0511  0.0721
  107loPI   GL1 1701   2.461   3.909  10.369  0.0090 -0.2114  0.0330
  107loPI   GL2 1702   2.739   3.810  10.181  0.2277  0.2753  0.0238
  107loPI   C1A 1703   2.147   3.832  10.040 -0.0295  0.3014 -0.0874
  107loPI   C2A 1704   2.222   3.835   9.544  0.0530  0.2340 -0.4231
  107loPI   C3A 1705   2.249   3.902   9.149  0.3184  0.2719 -0.2738
  107loPI   C4A 1706   2.244   4.018   8.743 -0.0598 -0.2437  0.1317
  107loPI   C5A 1707   2.231   4.320   8.444 -0.1749 -0.0370 -0.1845
  107loPI   C6A 1708   2.255   4.358   7.961 -0.2027 -0.4393 -0.0739
  107loPI   C1B 1709   2.740   3.785   9.652  0.0341 -0.1039 -0.0990
  107loPI   C2B 1710   2.759   3.779   9.236  0.0170 -0.0288  0.0841
  107loPI   C3B 1711   2.630   3.663   8.709  0.0055 -0.1303  0.4689
  107loPI   C4B 1712   2.475   3.938   8.276  0.1591 -0.4397  0.0473
  108loPI    C1 1713   4.093   8.787  10.875 -0.1702 -0.0107  0.0604
  108loPI    C2 1714   4.231   8.988  11.192 -0.3444 -0.1035  0.1962
  108loPI    C3 1715   4.428   8.667  11.058 -0.1351  0.0805  0.0568
  108loPI   PO4 1716   4.067   9.005  10.661  0.5073  0.1709  0.0549
  108loPI   GL1 1717   4.313   9.013  10.281 -0.6629  0.1079 -0.1037
  108loPI   GL2 1718   4.684   8.941  10.251  0.0150 -0.1963  0.0821
  108loPI   C1A 1719   4.298   8.697   9.822 -0.2025 -0.0718 -0.1036
  108loPI   C2A 1720   4.218   8.673   9.334  0.0314 -0.1369 -0.0763
  108loPI   C3A 1721   4.220   8.609   8.928  0.0450  0.3497 -0.0846
  108loPI   C4A 1722   4.174   8.610   8.526 -0.0548 -0.0814 -0.1890
  108loPI   C5A 1723   4.455   8.361   8.143 -0.0905  0.1172  0.0758
  108loPI   C6A 1724   4.541   7.946   8.027 -0.3613  0.0036  0.3105
  108loPI   C1B 1725   4.649   9.084   9.834 -0.1615  0.0491  0.1540
  108loPI   C2B 1726   4.501   9.066   9.428  0.1099  0.1628  0.1845
  108loPI   C3B 1727   4.392   9.103   8.999 -0.2194  0.1731 -0.1775
  108loPI   C4B 1728   4.266   9.108   8.543 -0.2275  0.0290 -0.0385
  109loPI    C1 1729  14.668  11.126  11.207  0.0834 -0.1249 -0.1396
  109loPI    C2 1730  14.296  11.234  11.305  0.0943 -0.1657 -0.0524
  109loPI    C3 1731  14.592  11.503  11.319  0.1232 -0.2074  0.1739
  109loPI   PO4 1732  14.670  11.069  10.997 -0.1371 -0.1401  0.0653
  109loPI   GL1 1733  14.835  11.188  10.586  0.3558 -0.2103 -0.1021
  109loPI   GL2 1734  14.643  10.992  10.523  0.0572 -0.0696  0.1139
  109loPI   C1A 1735  14.815  11.264  10.073  0.0570  0.0362  0.2099
  109loPI   C2A 1736  14.919  11.256   9.609  0.0128 -0.2778 -0.0335
  109loPI   C3A 1737  15.056  11.294   9.158 -0.0504  0.3094 -0.1106
  109loPI   C4A 1738  15.081  11.171   8.752 -0.0137  0.0229  0.1308
  109loPI   C5A 1739  14.870  11.361   8.409  0.0794 -0.1047 -0.0870
  109loPI   C6A 1740  15.136  11.704   8.147 -0.1141 -0.2451  0.1699
  109loPI   C1B 1741  14.435  10.879  10.205 -0.1746 -0.1009 -0.2244
  109loPI   C2B 1742  14.511  10.955   9.861 -0.2941  0.2808  0.3843
  109loPI   C3B 1743  14.573  10.834   9.422  0.1696 -0.3253 -0.1595
  109loPI   C4B 1744  14.649  10.802   8.998 -0.4534  0.0440 -0.0278
  110loPI    C1 1745   5.762   4.720  10.712  0.0064 -0.1958  0.2004
  110loPI    C2 1746   5.790   4.683  11.109  0.0172 -0.2069  0.1986
  110loPI    C3 1747   5.961   4.412  10.870  0.1723 -0.0980  0.1845
  110loPI   PO4 1748   5.506   4.682  10.623 -0.0207 -0.0513 -0.1889
  110loPI   GL1 1749   5.372   4.812  10.149  0.1302  0.1619  0.1838
  110loPI   GL2 1750   5.125   4.699  10.240  0.2730  0.1180  0.4719
  110loPI   C1A 1751   5.366   4.857   9.689 -0.0458  0.5624  0.1096
  110loPI   C2A 1752   5.376   4.837   9.286  0.1797  0.3181 -0.1482
  110loPI   C3A 1753   5.237   4.812   8.902 -0.1554  0.1011  0.1647
  110loPI   C4A 1754   5.158   4.640   8.431 -0.2579 -0.0363 -0.2407
  110loPI   C5A 1755   5.320   4.517   8.046  0.1060 -0.2511 -0.2226
  110loPI   C6A 1756   5.756   4.418   8.018 -0.1849  0.1398 -0.1314
  110loPI   C1B 1757   5.010   4.469   9.836  0.1855 -0.1812  0.1758
  110loPI   C2B 1758   4.977   4.490   9.368 -0.0847  0.0689  0.0714
  110loPI   C3B 1759   4.930   4.344   8.861 -0.2066 -0.1730  0.2103
  110loPI   C4B 1760   4.661   4.216   8.526 -0.1793 -0.1532  0.2483
  111loPI    C1 1761  12.239  17.870  11.158  0.0208  0.0138 -0.3487
  111loPI    C2 1762  12.044  18.106  11.415  0.2894 -0.1473  0.0114
  111loPI    C3 1763  11.903  17.741  11.332  0.1489 -0.0576 -0.1516
  111loPI   PO4 1764  12.307  17.964  10.954  0.3052  0.1806 -0.2308
  111loPI   GL1 1765  12.521  18.184  10.654 -0.1263 -0.3518  0.1556
  111loPI   GL2 1766  12.704  18.306  10.848  0.1100 -0.1001 -0.2135
  111loPI   C1A 1767  12.873  18.138  10.322  0.3550 -0.0661 -0.2743
  111loPI   C2A 1768  12.799  18.156   9.964  0.0073  0.0478 -0.0167
  111loPI   C3A 1769  12.879  18.156   9.548 -0.1203  0.1335  0.0439
  111loPI   C4A 1770  12.925  18.260   9.174 -0.0825  0.0030  0.1292
  111loPI   C5A 1771  12.905  18.303   8.778  0.0466 -0.2042  0.4175
  111loPI   C6A 1772  13.020  18.149   8.415 -0.2142 -0.0743 -0.3032
  111loPI   C1B 1773  12.968  18.649  10.521  0.2734 -0.2079  0.2455
  111loPI   C2B 1774  13.125  18.540  10.187  0.1422 -0.1711 -0.2999
  111loPI   C3B 1775  13.150  18.481   9.815  0.0322 -0.0556  0.0063
  111loPI   C4B 1776  13.194  18.625   9.390 -0.1578 -0.1791 -0.2859
  112loPI    C1 1777   0.706   6.093  11.299 -0.0055 -0.2376 -0.0351
  112loPI    C2 1778   0.358   5.956  11.441 -0.1357  0.0256 -0.0937
  112loPI    C3 1779   0.583   6.200  11.664  0.1252 -0.3254  0.0351
  112loPI   PO4 1780   0.619   6.110  10.924  0.1351  0.2305 -0.1378
  112loPI   GL1 1781   0.521   5.878  10.632 -0.0670 -0.2231 -0.0282
  112loPI   GL2 1782   0.285   5.591  10.712  0.1755 -0.1882 -0.1125
  112loPI   C1A 1783   0.432   6.045  10.308 -0.1751  0.0663 -0.3930
  112loPI   C2A 1784   0.369   5.989   9.863  0.0035 -0.4447 -0.2866
  112loPI   C3A 1785   0.330   6.034   9.432 -0.1069  0.1946 -0.0633
  112loPI   C4A 1786   0.348   6.170   8.941  0.1602  0.2420 -0.0093
  112loPI   C5A 1787   0.338   5.919   8.618  0.2024  0.0268  0.1142
  112loPI   C6A 1788   0.582   5.808   8.267  0.1033 -0.2296 -0.1148
  112loPI   C1B 1789   0.089   5.584  10.340  0.2487 -0.0563  0.4101
  112loPI   C2B 1790   0.053   5.661   9.997  0.2025  0.1346 -0.3932
  112loPI   C3B 1791  -0.016   5.668   9.514  0.2091 -0.2017 -0.0325
  112loPI   C4B 1792   0.100   5.683   9.163  0.0556 -0.0177  0.2235
  113loPI    C1 1793  15.329  16.642  11.190 -0.1344  0.0241  0.0711
  113loPI    C2 1794  15.277  16.977  11.404 -0.1647 -0.0110  0.1189
  113loPI    C3 1795  15.251  16.619  11.582 -0.3786 -0.0465  0.0194
  113loPI   PO4 1796  15.113  16.702  10.950  0.2954 -0.1097  0.1310
  113loPI   GL1 1797  14.869  16.391  10.711 -0.0652 -0.2902 -0.0449
  113loPI   GL2 1798  14.644  16.649  10.903 -0.0557  0.1820 -0.0491
  113loPI   C1A 1799  14.874  16.414  10.335  0.1771 -0.2547  0.0591
  113loPI   C2A 1800  14.828  16.393   9.901  0.0424 -0.2193 -0.0874
  113loPI   C3A 1801  14.974  16.436   9.526 -0.1221 -0.2504  0.0994
  113loPI   C4A 1802  15.053  16.462   9.099 -0.2428  0.0988 -0.2577
  113loPI   C5A 1803  15.189  16.489   8.739 -0.0465 -0.3403  0.2686
  113loPI   C6A 1804  15.349  16.549   8.427  0.3358  0.0235  0.1236
  113loPI   C1B 1805  14.617  16.894  10.511  0.0694 -0.1935  0.3972
  113loPI   C2B 1806  14.717  16.891  10.117  0.2738  0.1788  0.2002
  113loPI   C3B 1807  14.689  16.921   9.625  0.2377  0.0595 -0.0077
  113loPI   C4B 1808  14.778  16.981   9.196  0.1333 -0.1062  0.0871
  114loPI    C1 1809  15.297  14.785  11.020  0.3212 -0.1832  0.1644
  114loPI    C2 1810  15.028  14.496  10.960  0.0082  0.1498 -0.0810
  114loPI    C3 1811  15.173  14.560  11.327 -0.0320 -0.2154  0.0029
  114loPI   PO4 1812  15.540  14.751  10.865 -0.0710 -0.0041 -0.1010
  114loPI   GL1 1813  15.693  14.548  10.538 -0.1757 -0.1137 -0.1241
  114loPI   GL2 1814  15.965  14.745  10.481  0.1030 -0.1160  0.0548
  114loPI   C1A 1815  15.541  14.403  10.117 -0.0789  0.4423 -0.0886
  114loPI   C2A 1816  15.588  14.306   9.760 -0.0548 -0.1743  0.2028
  114loPI   C3A 1817  15.748  14.443   9.388 -0.0475  0.0102 -0.2796
  114loPI   C4A 1818  15.724  14.392   8.888  0.1299  0.1501 -0.0445
  114loPI   C5A 1819  15.784  14.618   8.521  0.1308 -0.0525  0.0039
  114loPI   C6A 1820  15.992  14.883   8.304  0.0920 -0.2529 -0.2953
  114loPI   C1B 1821  15.977  14.753  10.182  0.0676  0.0309  0.2130
  114loPI   C2B 1822  16.015  14.721   9.690 -0.5134  0.0519 -0.1985
  114loPI   C3B 1823  16.121  14.850   9.286  0.1212 -0.3395  0.1929
  114loPI   C4B 1824  16.069  14.887   8.891 -0.0512  0.4464  0.0368
  115loPI    C1 1825  17.533   2.926  11.575 -0.2022 -0.0511  0.0449
  115loPI    C2 1826  17.226   2.872  11.825 -0.0769  0.2213  0.2636
  115loPI    C3 1827  17.527   3.115  11.928  0.1902 -0.0037  0.0315
  115loPI   PO4 1828  17.457   3.003  11.367 -0.3712 -0.1164  0.4170
  115loPI   GL1 1829  17.373   2.879  10.943 -0.1378  0.1549 -0.2867
  115loPI   GL2 1830  17.404   2.537  10.999 -0.4834  0.0922 -0.0224
  115loPI   C1A 1831  17.186   2.925  10.579 -0.3345  0.0608  0.0115
  115loPI   C2A 1832  17.080   2.935  10.051 -0.3249  0.0761 -0.1822
  115loPI   C3A 1833  17.153   3.072   9.556  0.1732  0.2734  0.1846
  115loPI   C4A 1834  17.173   3.041   9.063  0.2555 -0.3036 -0.2784
  115loPI   C5A 1835  17.316   3.263   8.740  0.0181 -0.1274 -0.1046
  115loPI   C6A 1836  17.380   3.372   8.323 -0.0797  0.3172 -0.1289
  115loPI   C1B 1837  17.382   2.421  10.637 -0.2005 -0.0723 -0.2893
  115loPI   C2B 1838  17.302   2.559  10.266 -0.2888 -0.1444  0.0192
  115loPI   C3B 1839  17.351   2.508   9.875  0.0321 -0.1178 -0.1482
  115loPI   C4B 1840  17.331   2.617   9.493  0.0104  0.1286  0.2117
  116loPI    C1 1841   1.279   3.401  11.291  0.2267 -0.1953  0.1430
  116loPI    C2 1842   1.152   3.381  11.670  0.1959  0.0038  0.1443
  116loPI    C3 1843   1.017   3.671  11.430  0.1278 -0.1888 -0.0528
  116loPI   PO4 1844   1.199   3.247  11.135 -0.1286  0.0408 -0.1282
  116loPI   GL1 1845   1.019   3.121  10.766  0.0620  0.2918 -0.2237
  116loPI   GL2 1846   1.230   3.015  10.563  0.0225 -0.0365 -0.2238
  116loPI   C1A 1847   0.843   3.440  10.513  0.1010 -0.1852  0.0295
  116loPI   C2A 1848   0.876   3.637  10.120  0.0522  0.0218  0.1198
  116loPI   C3A 1849   0.897   3.680   9.603  0.1395  0.0937  0.1277
  116loPI   C4A 1850   0.725   3.723   9.173  0.1565  0.1033  0.0284
  116loPI   C5A 1851   0.821   3.632   8.782 -0.0896 -0.0321 -0.1723
  116loPI   C6A 1852   1.167   3.685   8.423  0.3128 -0.1645  0.1140
  116loPI   C1B 1853   1.088   3.084  10.271 -0.0999  0.0393 -0.1167
  116loPI   C2B 1854   1.130   3.200   9.775  0.4080 -0.2858  0.1196
  116loPI   C3B 1855   1.051   3.250   9.268 -0.0209  0.0518 -0.0529
  116loPI   C4B 1856   0.837   3.131   8.872  0.2842  0.1881 -0.1013
  117loPI    C1 1857  15.452   8.538  10.821 -0.1969 -0.1779  0.0628
  117loPI    C2 1858  15.369   8.268  11.104 -0.2524 -0.2181  0.0084
  117loPI    C3 1859  15.311   8.657  11.176  0.0542 -0.1994  0.1725
  117loPI   PO4 1860  15.698   8.457  10.731 -0.2919 -0.1666  0.0089
  117loPI   GL1 1861  15.757   8.368  10.438 -0.0499 -0.1103 -0.0693
  117loPI   GL2 1862  15.553   8.484  10.243  0.1646  0.1668  0.1650
  117loPI   C1A 1863  16.101   8.298  10.093 -0.0851 -0.0396  0.1480
  117loPI   C2A 1864  16.100   8.247   9.708 -0.0290  0.2264  0.1997
  117loPI   C3A 1865  16.076   8.272   9.342 -0.0261 -0.0772  0.0658
  117loPI   C4A 1866  16.137   8.345   8.903  0.0025  0.0380 -0.0912
  117loPI   C5A 1867  16.056   8.392   8.412  0.1208  0.0738 -0.0010
  117loPI   C6A 1868  15.911   8.608   8.102 -0.0029 -0.3385  0.1404
  117loPI   C1B 1869  15.565   8.390   9.822  0.0521 -0.2248 -0.0432
  117loPI   C2B 1870  15.571   8.425   9.338 -0.2035  0.2753  0.0354
  117loPI   C3B 1871  15.571   8.328   8.947 -0.0138 -0.0276 -0.1046
  117loPI   C4B 1872  15.592   8.147   8.497  0.4227 -0.1743 -0.0364
  118loPI    C1 1873   8.248   4.997  10.146 -0.0678 -0.0054  0.1425
  118loPI    C2 1874   8.092   5.049  10.511  0.0054  0.1977  0.1466
  118loPI    C3 1875   8.471   5.154  10.439  0.0631 -0.0549  0.0701
  118loPI   PO4 1876   8.090   5.076  10.004  0.2473 -0.1318  0.3607
  118loPI   GL1 1877   8.214   5.426   9.702  0.0522  0.1011 -0.0602
  118loPI   GL2 1878   8.419   5.325   9.651  0.4920 -0.1776  0.0300
  118loPI   C1A 1879   8.358   5.859   9.541  0.2661 -0.1841 -0.2416
  118loPI   C2A 1880   8.315   5.970   9.164  0.0403  0.4149  0.0280
  118loPI   C3A 1881   8.308   6.289   8.846 -0.0136  0.1873  0.0133
  118loPI   C4A 1882   8.384   6.517   8.595 -0.1721 -0.2456  0.3516
  118loPI   C5A 1883   8.398   6.522   8.188  0.0224  0.1393  0.1691
  118loPI   C6A 1884   8.037   6.432   7.884 -0.0274  0.0331 -0.1634
  118loPI   C1B 1885   8.579   5.498   9.335 -0.0152  0.1803  0.0281
  118loPI   C2B 1886   8.750   5.730   9.027  0.3078 -0.1498 -0.1844
  118loPI   C3B 1887   8.749   6.097   8.766 -0.1552  0.4432  0.3517
  118loPI   C4B 1888   8.644   6.160   8.373 -0.0213  0.3314 -0.0626
  119loPI    C1 1889   5.098  13.512  10.797 -0.1052 -0.1816 -0.1428
  119loPI    C2 1890   4.775  13.411  11.011 -0.3090  0.5523 -0.0733
  119loPI    C3 1891   5.109  13.530  11.197 -0.0172 -0.1032 -0.1483
  119loPI   PO4 1892   5.025  13.690  10.662  0.1479  0.0122  0.0946
  119loPI   GL1 1893   4.922  13.747  10.254 -0.1744 -0.1364  0.0597
  119loPI   GL2 1894   4.963  13.377  10.251 -0.1521  0.3102 -0.2351
  119loPI   C1A 1895   4.763  13.644   9.824 -0.4022  0.1046  0.0079
  119loPI   C2A 1896   4.717  13.609   9.392  0.1987 -0.2383  0.1030
  119loPI   C3A 1897   4.709  13.553   9.062 -0.2471 -0.3001 -0.1985
  119loPI   C4A 1898   4.898  13.579   8.685 -0.0990  0.0238 -0.2164
  119loPI   C5A 1899   4.952  13.438   8.168  0.1705 -0.0429 -0.1015
  119loPI   C6A 1900   5.038  12.953   8.072  0.0948 -0.1210 -0.1896
  119loPI   C1B 1901   4.853  13.179   9.955 -0.1867  0.2944 -0.1050
  119loPI   C2B 1902   4.950  13.160   9.542 -0.0558 -0.0360 -0.3732
  119loPI   C3B 1903   5.004  13.083   9.056  0.1617 -0.1994 -0.0806
  119loPI   C4B 1904   4.901  13.082   8.649 -0.0174  0.2207  0.0415
  120loPI    C1 1905  14.049   5.556  10.963 -0.0981 -0.0616  0.0604
  120loPI    C2 1906  13.873   5.905  11.048 -0.0374  0.0090 -0.0981
  120loPI    C3 1907  13.850   5.600  11.307 -0.1854  0.0945 -0.0091
  120loPI   PO4 1908  14.266   5.576  10.853  0.1768 -0.1092  0.1899
  120loPI   GL1 1909  14.495   5.405  10.582 -0.1159  0.0029 -0.1791
  120loPI   GL2 1910  14.571   5.148  10.666  0.0188  0.3651  0.2345
  120loPI   C1A 1911  14.342   5.436  10.257  0.1297  0.1698  0.0283
  120loPI   C2A 1912  14.326   5.343   9.782  0.0876  0.1042 -0.1025
  120loPI   C3A 1913  14.370   5.323   9.334  0.0504 -0.0052 -0.1088
  120loPI   C4A 1914  14.295   5.510   8.875  0.0787  0.2573 -0.3091
  120loPI   C5A 1915  14.297   5.588   8.453  0.1227  0.1757 -0.1014
  120loPI   C6A 1916  14.303   5.663   7.989 -0.2459  0.3058  0.1650
  120loPI   C1B 1917  14.562   4.872  10.294 -0.0872  0.2432  0.3221
  120loPI   C2B 1918  14.506   4.815   9.845 -0.2000 -0.2837  0.0551
  120loPI   C3B 1919  14.501   4.791   9.511  0.1762 -0.2197  0.4333
  120loPI   C4B 1920  14.566   4.978   9.075  0.1512 -0.0056 -0.0495
  121loPI    C1 1921  12.993   4.190  11.247 -0.1354 -0.0386  0.1801
  121loPI    C2 1922  13.110   4.498  11.474  0.1733 -0.0000 -0.0254
  121loPI    C3 1923  12.868   4.218  11.626 -0.1040  0.3357  0.1665
  121loPI   PO4 1924  12.944   4.275  11.048  0.0665  0.2885 -0.1281
  121loPI   GL1 1925  13.204   4.019  10.669 -0.5796 -0.1711  0.1738
  121loPI   GL2 1926  12.926   3.793  10.489  0.1166 -0.3154 -0.2497
  121loPI   C1A 1927  13.314   4.079  10.186  0.0282  0.0014 -0.0656
  121loPI   C2A 1928  13.415   4.114   9.746  0.3393 -0.0525 -0.0687
  121loPI   C3A 1929  13.439   4.177   9.299  0.3078  0.1720  0.1437
  121loPI   C4A 1930  13.340   4.273   8.855 -0.1365 -0.2180  0.0940
  121loPI   C5A 1931  13.354   4.222   8.381 -0.1318 -0.2474  0.1067
  121loPI   C6A 1932  13.508   3.985   8.003 -0.0005  0.1045 -0.3698
  121loPI   C1B 1933  12.897   3.650  10.022  0.2967 -0.0320 -0.4079
  121loPI   C2B 1934  12.992   3.817   9.660  0.0965  0.2992 -0.4012
  121loPI   C3B 1935  13.115   3.810   9.264 -0.3032 -0.4338  0.3293
  121loPI   C4B 1936  13.134   3.842   8.750  0.0018 -0.0389 -0.0252
  122loPI    C1 1937  11.675  17.462  10.859  0.1151  0.0888  0.1349
  122loPI    C2 1938  11.845  17.238  11.143 -0.0113 -0.2199 -0.0282
  122loPI    C3 1939  11.461  17.181  11.046 -0.0643  0.1156 -0.0272
  122loPI   PO4 1940  11.807  17.694  10.813  0.1296 -0.2236 -0.0741
  122loPI   GL1 1941  12.068  18.015  10.505 -0.2970 -0.0209  0.0381
  122loPI   GL2 1942  11.972  17.804  10.282  0.1398 -0.1105  0.2045
  122loPI   C1A 1943  12.211  18.269  10.176  0.0813  0.0963 -0.3062
  122loPI   C2A 1944  12.344  18.247   9.835 -0.0036 -0.0223 -0.3024
  122loPI   C3A 1945  12.367  18.193   9.488  0.1452  0.0726 -0.0032
  122loPI   C4A 1946  12.418  18.212   9.036  0.1947 -0.1136 -0.1028
  122loPI   C5A 1947  12.385  18.339   8.685 -0.0593  0.2417  0.0506
  122loPI   C6A 1948  12.441  18.157   8.309 -0.1733  0.3395 -0.0619
  122loPI   C1B 1949  11.858  17.840   9.942 -0.0732  0.1261  0.1315
  122loPI   C2B 1950  11.956  17.966   9.547 -0.2746  0.1912 -0.2162
  122loPI   C3B 1951  12.027  17.907   9.082 -0.2125  0.1243  0.0025
  122loPI   C4B 1952  12.148  17.806   8.682  0.1220 -0.1282  0.0770
  123loPI    C1 1953  14.347  15.063  11.161 -0.2783 -0.0475  0.0260
  123loPI    C2 1954  14.279  15.436  11.291  0.1597  0.0431  0.0123
  123loPI    C3 1955  14.289  15.132  11.551  0.0460  0.0762  0.0559
  123loPI   PO4 1956  14.407  15.147  10.874 -0.0786 -0.0159 -0.0282
  123loPI   GL1 1957  14.460  15.157  10.499  0.3946 -0.0392  0.0856
  123loPI   GL2 1958  14.089  15.150  10.395 -0.2429 -0.1749  0.2069
  123loPI   C1A 1959  14.423  15.171   9.971 -0.2428 -0.1483 -0.1873
  123loPI   C2A 1960  14.499  15.189   9.461 -0.1187 -0.1040  0.1812
  123loPI   C3A 1961  14.605  15.237   9.023  0.4765 -0.1219  0.0181
  123loPI   C4A 1962  14.617  15.489   8.679 -0.4350 -0.0379  0.1215
  123loPI   C5A 1963  14.854  15.699   8.407 -0.1813 -0.1314  0.1298
  123loPI   C6A 1964  15.063  16.048   8.416 -0.1291  0.2106 -0.1814
  123loPI   C1B 1965  13.832  15.174   9.996  0.3039  0.0211 -0.1425
  123loPI   C2B 1966  13.928  15.186   9.500  0.0133  0.1066 -0.0868
  123loPI   C3B 1967  13.949  15.266   9.047  0.2130  0.0897 -0.1496
  123loPI   C4B 1968  14.190  15.170   8.602  0.0219 -0.1847 -0.4654
  124loPI    C1 1969   2.203   9.356  11.029 -0.3767  0.2846  0.1695
  124loPI    C2 1970   1.937   9.069  11.111 -0.1682  0.0037 -0.1131
  124loPI    C3 1971   2.085   9.295  11.406 -0.0825 -0.4047  0.1641
  124loPI   PO4 1972   2.201   9.332  10.713  0.1068 -0.0843 -0.0148
  124loPI   GL1 1973   2.039   9.320  10.479  0.0449 -0.1720 -0.1478
  124loPI   GL2 1974   1.826   9.130  10.299 -0.2809  0.0948 -0.0593
  124loPI   C1A 1975   2.098   9.572  10.080  0.4803 -0.0083  0.0377
  124loPI   C2A 1976   1.965   9.529   9.624 -0.0573 -0.3847 -0.1752
  124loPI   C3A 1977   1.891   9.496   9.123 -0.1695 -0.0547  0.2496
  124loPI   C4A 1978   1.599   9.444   8.656 -0.2234 -0.3249 -0.0768
  124loPI   C5A 1979   1.318   9.434   8.304  0.1316 -0.0222  0.0628
  124loPI   C6A 1980   1.298   9.632   7.968  0.1235 -0.0426  0.1684
  124loPI   C1B 1981   1.728   9.092   9.783 -0.2610 -0.1368 -0.0695
  124loPI   C2B 1982   1.693   9.184   9.346  0.0223  0.2346 -0.0340
  124loPI   C3B 1983   1.493   9.006   8.980 -0.3975 -0.3228 -0.0226
  124loPI   C4B 1984   1.448   8.975   8.557  0.2016 -0.4555  0.0443
  125loPI    C1 1985   2.745  11.230  11.112  0.1030 -0.0320 -0.0419
  125loPI    C2 1986   2.407  11.282  11.320  0.0307 -0.2396 -0.1046
  125loPI    C3 1987   2.761  11.291  11.507  0.0100  0.2348 -0.0773
  125loPI   PO4 1988   2.731  11.315  10.864  0.3400 -0.0298 -0.4054
  125loPI   GL1 1989   2.418  11.389  10.474 -0.1204  0.2985 -0.2428
  125loPI   GL2 1990   2.192  11.645  10.418 -0.1220  0.3681 -0.0088
  125loPI   C1A 1991   2.345  11.336  10.052 -0.3373  0.0286 -0.1902
  125loPI   C2A 1992   2.357  11.285   9.655 -0.1041  0.1653 -0.1122
  125loPI   C3A 1993   2.165  11.378   9.273 -0.1240  0.0768  0.1159
  125loPI   C4A 1994   2.290  11.450   8.815 -0.0414  0.0480 -0.0043
  125loPI   C5A 1995   2.354  11.204   8.424  0.1657 -0.0424  0.1340
  125loPI   C6A 1996   2.379  11.206   8.002 -0.1895 -0.2898  0.3198
  125loPI   C1B 1997   2.173  11.925  10.021  0.1664  0.0351 -0.2187
  125loPI   C2B 1998   2.102  11.880   9.570 -0.2014  0.1892 -0.0380
  125loPI   C3B 1999   2.023  11.967   9.136 -0.2195  0.0437  0.1055
  125loPI   C4B 2000   2.034  11.813   8.694 -0.0392  0.3567  0.1549
  126loPI    C1 2001  14.333   2.912  11.638 -0.1836 -0.0984 -0.0397
  126loPI    C2 2002  14.146   2.564  11.701  0.0670 -0.1697  0.3468
  126loPI    C3 2003  14.071   2.877  11.938 -0.1095  0.0260  0.0402
  126loPI   PO4 2004  14.264   3.015  11.299  0.2685  0.2455  0.0672
  126loPI   GL1 2005  14.515   2.863  10.872  0.2676  0.3256 -0.3793
  126loPI   GL2 2006  14.274   2.584  10.733  0.0655 -0.1249  0.1038
  126loPI   C1A 2007  14.613   2.884  10.495  0.1423  0.2862  0.0760
  126loPI   C2A 2008  14.714   3.051  10.126 -0.0346 -0.0514 -0.1510
  126loPI   C3A 2009  14.679   2.890   9.666  0.0416 -0.0921  0.1176
  126loPI   C4A 2010  14.727   2.964   9.271  0.0902 -0.3262  0.1666
  126loPI   C5A 2011  14.822   3.025   8.843 -0.2250  0.0151 -0.0497
  126loPI   C6A 2012  14.883   2.873   8.558  0.1560  0.2419 -0.1206
  126loPI   C1B 2013  14.322   2.631  10.256 -0.0046 -0.1449 -0.1833
  126loPI   C2B 2014  14.357   2.562   9.890  0.3809  0.2575  0.3537
  126loPI   C3B 2015  14.416   2.521   9.410  0.0068  0.0086  0.2903
  126loPI   C4B 2016  14.431   2.551   9.074  0.0515 -0.4445  0.2275
  127loPI    C1 2017  17.900   2.316  11.326 -0.1165  0.1254  0.0392
  127loPI    C2 2018  17.642   2.079  11.133 -0.0127  0.1886 -0.1796
  127loPI    C3 2019  17.843   1.940  11.450  0.0305 -0.0100 -0.2922
  127loPI   PO4 2020  17.868   2.634  11.310  0.1317 -0.0092  0.2723
  127loPI   GL1 2021  17.976   2.635  10.892  0.0894  0.1538  0.1161
  127loPI   GL2 2022  17.956   2.376  10.771  0.1215 -0.0497 -0.1229
  127loPI   C1A 2023  17.688   2.815  10.575 -0.1831  0.1985  0.3546
  127loPI   C2A 2024  17.662   2.903  10.186 -0.0436  0.0167  0.1065
  127loPI   C3A 2025  17.654   2.930   9.685 -0.0405  0.0383 -0.0082
  127loPI   C4A 2026  17.578   2.937   9.247  0.0266  0.1325 -0.0030
  127loPI   C5A 2027  17.449   2.605   9.013 -0.1226 -0.1764  0.4224
  127loPI   C6A 2028  17.155   2.346   8.805  0.1310 -0.0436  0.2366
  127loPI   C1B 2029  17.813   2.399  10.310 -0.0787  0.1445  0.1868
  127loPI   C2B 2030  17.827   2.494   9.903  0.0089  0.1329  0.3042
  127loPI   C3B 2031  17.914   2.447   9.494  0.0954 -0.0255  0.0629
  127loPI   C4B 2032  17.908   2.521   8.976 -0.2691 -0.2941  0.2198
  128loPI    C1 2033  16.726  16.454  11.387  0.0430 -0.1028  0.1093
  128loPI    C2 2034  16.565  16.780  11.553  0.0097 -0.0565 -0.0123
  128loPI    C3 2035  16.880  16.603  11.724 -0.0367 -0.0212  0.1102
  128loPI   PO4 2036  16.667  16.566  11.113 -0.2037  0.0922  0.0978
  128loPI   GL1 2037  16.625  16.722  10.687 -0.1426  0.2931  0.0100
  128loPI   GL2 2038  16.304  16.752  10.548 -0.3196  0.2366 -0.0647
  128loPI   C1A 2039  16.654  16.889  10.246  0.0427 -0.4351 -0.3462
  128loPI   C2A 2040  16.706  16.875   9.817  0.0029  0.3696 -0.0058
  128loPI   C3A 2041  16.809  16.939   9.432  0.0205  0.0251  0.0349
  128loPI   C4A 2042  16.751  17.028   8.984  0.0210  0.2053  0.0147
  128loPI   C5A 2043  16.726  17.095   8.585  0.3339  0.0371 -0.0082
  128loPI   C6A 2044  16.548  17.137   8.310  0.2529  0.0525 -0.3285
  128loPI   C1B 2045  16.264  16.570  10.088 -0.1991  0.2393 -0.0942
  128loPI   C2B 2046  16.343  16.631   9.626  0.0185  0.2165  0.2613
  128loPI   C3B 2047  16.393  16.629   9.212 -0.1878 -0.0898 -0.0310
  128loPI   C4B 2048  16.375  16.711   8.798 -0.1834  0.0862 -0.2459
  129loPI    C1 2049  14.392  13.834  11.339 -0.0530  0.0131  0.1175
  129loPI    C2 2050  14.159  13.511  11.383 -0.0346  0.0089  0.1846
  129loPI    C3 2051  14.470  13.568  11.628  0.0038  0.0420  0.1287
  129loPI   PO4 2052  14.602  13.758  11.136  0.0872 -0.1956 -0.5448
  129loPI   GL1 2053  14.613  14.014  10.773  0.1164 -0.0765 -0.0029
  129loPI   GL2 2054  14.427  13.844  10.556  0.0188 -0.0691  0.2115
  129loPI   C1A 2055  14.782  14.145  10.289 -0.1618  0.2567  0.2464
  129loPI   C2A 2056  14.815  14.136   9.810 -0.1690  0.2418  0.0024
  129loPI   C3A 2057  14.790  14.163   9.383  0.0323 -0.0063  0.0934
  129loPI   C4A 2058  14.918  14.192   8.915 -0.1705  0.0539 -0.1638
  129loPI   C5A 2059  15.145  14.109   8.532  0.0692  0.0501 -0.0830
  129loPI   C6A 2060  15.307  13.820   8.189  0.1056  0.0766  0.1708
  129loPI   C1B 2061  14.424  13.773  10.090 -0.2624  0.0883 -0.1439
  129loPI   C2B 2062  14.491  13.796   9.681 -0.2036 -0.1516  0.0756
  129loPI   C3B 2063  14.485  13.683   9.203 -0.1379 -0.3536 -0.0315
  129loPI   C4B 2064  14.580  13.708   8.805  0.0680  0.0335  0.0986
  130loPI    C1 2065   0.941   5.272  11.318 -0.1404  0.0143 -0.0094
  130loPI    C2 2066   0.949   4.986  11.597 -0.3457 -0.1529 -0.1715
  130loPI    C3 2067   0.611   5.188  11.527 -0.1790  0.1963  0.0044
  130loPI   PO4 2068   0.962   5.241  11.118  0.0497 -0.0877  0.1433
  130loPI   GL1 2069   1.194   5.096  10.788 -0.0850  0.1529  0.0034
  130loPI   GL2 2070   1.438   5.099  10.704 -0.0228 -0.3780  0.0269
  130loPI   C1A 2071   0.936   4.937  10.504  0.0292  0.0684  0.4399
  130loPI   C2A 2072   0.866   5.057  10.094 -0.0869  0.3426  0.5418
  130loPI   C3A 2073   0.734   5.057   9.640 -0.0087  0.2388 -0.0701
  130loPI   C4A 2074   0.811   5.021   9.249 -0.2218 -0.1378  0.0376
  130loPI   C5A 2075   0.778   4.942   8.728 -0.2218 -0.5393  0.1498
  130loPI   C6A 2076   0.828   4.782   8.250  0.0249 -0.0055 -0.1784
  130loPI   C1B 2077   1.381   4.979  10.217  0.0604 -0.0389  0.4100
  130loPI   C2B 2078   1.289   5.041   9.818  0.1150  0.1794 -0.2689
  130loPI   C3B 2079   1.284   4.937   9.377 -0.1735  0.0595 -0.0425
  130loPI   C4B 2080   1.353   5.011   9.015  0.0982 -0.1191 -0.0471
  131loPI    C1 2081  17.106  14.119  11.274 -0.0175  0.0635  0.0987
  131loPI    C2 2082  17.093  14.255  11.650  0.2349 -0.2942  0.2416
  131loPI    C3 2083  17.415  14.325  11.423  0.0015  0.0936  0.0184
  131loPI   PO4 2084  16.900  14.189  11.050 -0.2650 -0.3738  0.0996
  131loPI   GL1 2085  17.025  14.201  10.573 -0.0224 -0.1280  0.0980
  131loPI   GL2 2086  16.684  14.233  10.397 -0.0144 -0.0190  0.0510
  131loPI   C1A 2087  17.201  14.157  10.157  0.1143  0.1019 -0.1995
  131loPI   C2A 2088  17.211  14.154   9.731  0.0369  0.2125 -0.1749
  131loPI   C3A 2089  17.205  14.107   9.350 -0.1506  0.1324  0.1660
  131loPI   C4A 2090  17.198  14.188   8.945  0.0431 -0.1582 -0.4090
  131loPI   C5A 2091  17.344  14.061   8.540 -0.4499  0.0709 -0.0285
  131loPI   C6A 2092  17.528  14.425   8.223  0.0994  0.5201 -0.2943
  131loPI   C1B 2093  16.745  14.259   9.977 -0.1678 -0.1089 -0.0963
  131loPI   C2B 2094  16.674  14.146   9.627  0.1534  0.4792  0.3055
  131loPI   C3B 2095  16.737  14.270   9.193  0.0565 -0.0543  0.3684
  131loPI   C4B 2096  16.763  14.251   8.729 -0.3294  0.1634  0.1385
  132loPI    C1 2097   3.250   4.655  11.224 -0.0042  0.0731 -0.0609
  132loPI    C2 2098   2.950   4.831  11.422 -0.0502  0.2795 -0.3070
  132loPI    C3 2099   3.315   4.815  11.585 -0.1433  0.2214 -0.1001
  132loPI   PO4 2100   3.116   4.660  10.939  0.2288 -0.1757  0.0782
  132loPI   GL1 2101   3.187   4.975  10.604  0.0978 -0.3157  0.0142
  132loPI   GL2 2102   3.606   5.053  10.515  0.4588 -0.0505  0.0916
  132loPI   C1A 2103   2.862   4.788  10.286  0.1092  0.1245 -0.4413
  132loPI   C2A 2104   2.831   4.696   9.898 -0.0369  0.1539  0.1165
  132loPI   C3A 2105   2.915   4.711   9.476  0.0597 -0.0624  0.0825
  132loPI   C4A 2106   2.879   4.711   8.968 -0.1091 -0.2827 -0.0567
  132loPI   C5A 2107   2.731   4.560   8.553 -0.1795  0.1970  0.3947
  132loPI   C6A 2108   2.748   4.452   8.116  0.0562  0.0844  0.3006
  132loPI   C1B 2109   3.688   5.036  10.102  0.2380  0.1972 -0.4510
  132loPI   C2B 2110   3.776   5.095   9.685 -0.0874 -0.0903  0.0509
  132loPI   C3B 2111   3.646   5.088   9.240  0.0173  0.0062  0.0856
  132loPI   C4B 2112   3.596   4.952   8.796  0.0794 -0.1362  0.2313
  133loPI    C1 2113   0.686  16.487  11.257  0.1244  0.0199  0.0591
  133loPI    C2 2114   0.512  16.178  11.443 -0.0308  0.0602 -0.0178
  133loPI    C3 2115   0.759  16.420  11.645 -0.1242  0.0478  0.1120
  133loPI   PO4 2116   0.708  16.398  10.951 -0.0800  0.0567 -0.1802
  133loPI   GL1 2117   0.749  16.337  10.572 -0.0019 -0.3078 -0.0508
  133loPI   GL2 2118   0.693  15.990  10.579 -0.1655  0.2164  0.0980
  133loPI   C1A 2119   0.875  16.182  10.092  0.2769 -0.1495 -0.3672
  133loPI   C2A 2120   0.960  16.102   9.612  0.2454  0.0929  0.0044
  133loPI   C3A 2121   0.929  16.137   9.090 -0.1117 -0.3925 -0.1066
  133loPI   C4A 2122   0.901  16.193   8.643 -0.2942  0.2543 -0.0149
  133loPI   C5A 2123   1.047  16.258   8.261  0.3030  0.2378 -0.1785
  133loPI   C6A 2124   1.109  16.250   7.836  0.0327 -0.1257 -0.5158
  133loPI   C1B 2125   0.596  15.745  10.204  0.0657 -0.1749  0.0747
  133loPI   C2B 2126   0.629  15.687   9.757  0.1463  0.2205 -0.1333
  133loPI   C3B 2127   0.721  15.707   9.305  0.0562 -0.0471  0.1132
  133loPI   C4B 2128   0.513  15.773   8.891  0.3289  0.0778 -0.1308
  134loPI    C1 2129   4.189   2.097  10.948  0.0362  0.0106  0.0525
  134loPI    C2 2130   3.885   1.907  11.127 -0.1831  0.2829 -0.0227
  134loPI    C3 2131   4.196   2.035  11.344  0.0310 -0.2659  0.0110
  134loPI   PO4 2132   4.167   2.003  10.751  0.2211  0.2378  0.0895
  134loPI   GL1 2133   4.416   1.937  10.397  0.0772 -0.2246 -0.0053
  134loPI   GL2 2134   4.514   1.719  10.270 -0.2258  0.2347 -0.0290
  134loPI   C1A 2135   4.457   2.133  10.029  0.3771  0.3237 -0.0071
  134loPI   C2A 2136   4.385   2.171   9.537  0.0699 -0.0753  0.1178
  134loPI   C3A 2137   4.385   2.064   9.085  0.2506  0.0022  0.3377
  134loPI   C4A 2138   4.439   1.947   8.669  0.0146 -0.0931 -0.1009
  134loPI   C5A 2139   4.574   1.835   8.206  0.0744 -0.3113  0.1326
  134loPI   C6A 2140   4.817   1.818   7.926  0.0158 -0.1974 -0.2041
  134loPI   C1B 2141   4.554   1.732   9.838 -0.2073  0.2672 -0.0286
  134loPI   C2B 2142   4.471   1.569   9.444  0.2889  0.1116 -0.0993
  134loPI   C3B 2143   4.567   1.549   9.064  0.2294  0.3765  0.1070
  134loPI   C4B 2144   4.709   1.486   8.643 -0.0054  0.0645 -0.2347
  135loPI    C1 2145   4.745  15.057  10.926  0.2888 -0.0387  0.0331
  135loPI    C2 2146   4.931  14.808  11.179  0.1182 -0.1100  0.0895
  135loPI    C3 2147   4.727  15.122  11.321  0.3356  0.0661  0.0183
  135loPI   PO4 2148   4.776  14.972  10.742  0.0795  0.0128  0.0433
  135loPI   GL1 2149   4.679  15.065  10.300 -0.3428 -0.1200  0.2421
  135loPI   GL2 2150   4.402  15.138  10.147  0.0609  0.0988 -0.0591
  135loPI   C1A 2151   4.781  14.951   9.818  0.2931  0.0659 -0.0577
  135loPI   C2A 2152   4.703  14.848   9.404  0.4378 -0.0868  0.1775
  135loPI   C3A 2153   4.837  14.930   8.913 -0.1371 -0.2143  0.1049
  135loPI   C4A 2154   4.771  15.081   8.581 -0.2275 -0.3653 -0.0962
  135loPI   C5A 2155   4.587  15.129   8.147 -0.1000 -0.3743  0.2755
  135loPI   C6A 2156   4.412  14.936   7.808  0.1542 -0.0133 -0.1831
  135loPI   C1B 2157   4.213  15.067   9.841  0.0257 -0.0742  0.2239
  135loPI   C2B 2158   4.245  15.021   9.414  0.0880 -0.0043 -0.0285
  135loPI   C3B 2159   4.342  15.039   9.018 -0.4081 -0.0226 -0.0362
  135loPI   C4B 2160   4.271  15.123   8.630 -0.0055 -0.3321  0.2553
  136loPI    C1 2161  14.963  11.483  11.022 -0.2832 -0.1414  0.1439
  136loPI    C2 2162  15.203  11.163  11.015 -0.2430 -0.1105  0.1095
  136loPI    C3 2163  15.078  11.312  11.365 -0.1357 -0.0698  0.1308
  136loPI   PO4 2164  15.058  11.566  10.769  0.0251 -0.2249  0.0041
  136loPI   GL1 2165  15.192  11.482  10.379  0.1523 -0.0708  0.1761
  136loPI   GL2 2166  15.316  11.762  10.290  0.0512  0.0395 -0.2073
  136loPI   C1A 2167  15.457  11.278  10.005  0.0023  0.0217  0.1465
  136loPI   C2A 2168  15.446  11.188   9.550  0.1397  0.0037  0.2797
  136loPI   C3A 2169  15.515  11.169   9.035  0.1805 -0.1573  0.0792
  136loPI   C4A 2170  15.562  11.137   8.566 -0.2390 -0.0661 -0.0102
  136loPI   C5A 2171  15.485  11.190   8.199 -0.1225  0.0057 -0.0317
  136loPI   C6A 2172  15.640  11.498   7.915  0.2252  0.5759  0.1646
  136loPI   C1B 2173  15.191  11.665   9.884  0.0731 -0.1889 -0.0812
  136loPI   C2B 2174  15.235  11.664   9.434 -0.2751  0.3128  0.0212
  136loPI   C3B 2175  15.309  11.753   9.032 -0.1306  0.1560 -0.0124
  136loPI   C4B 2176  15.256  11.639   8.676 -0.3486  0.2100  0.1492
  137loPI    C1 2177   5.346  16.669  11.121  0.4014 -0.0855 -0.0648
  137loPI    C2 2178   5.505  16.935  11.373  0.2032 -0.1062  0.0834
  137loPI    C3 2179   5.607  16.549  11.400  0.0904 -0.1277  0.2127
  137loPI   PO4 2180   5.371  16.829  10.846 -0.1154  0.1825 -0.1501
  137loPI   GL1 2181   5.232  16.954  10.455  0.1408  0.1103 -0.1322
  137loPI   GL2 2182   5.214  17.300  10.345 -0.2286 -0.1592 -0.2271
  137loPI   C1A 2183   5.233  16.881  10.054  0.1982  0.0600 -0.2878
  137loPI   C2A 2184   5.194  16.729   9.572 -0.0695 -0.1306  0.0953
  137loPI   C3A 2185   5.175  16.723   9.137 -0.0981 -0.0393 -0.1894
  137loPI   C4A 2186   5.139  16.744   8.661 -0.0165  0.1428 -0.1454
  137loPI   C5A 2187   5.462  16.735   8.313  0.1311 -0.0578 -0.3962
  137loPI   C6A 2188   5.517  17.093   8.272  0.0202  0.1180 -0.0355
  137loPI   C1B 2189   5.013  17.363   9.845  0.3573  0.5027 -0.1486
  137loPI   C2B 2190   5.029  17.199   9.418 -0.2203  0.2861  0.3448
  137loPI   C3B 2191   5.041  17.205   9.022  0.0138  0.1948  0.3277
  137loPI   C4B 2192   5.068  17.203   8.608  0.2055 -0.0341  0.2453
  138loPI    C1 2193  17.850  10.260  11.020  0.1099 -0.0056 -0.1114
  138loPI    C2 2194  17.707   9.911  11.154  0.0088  0.0447 -0.0867
  138loPI    C3 2195  17.952  10.129  11.384  0.1266 -0.0417 -0.1291
  138loPI   PO4 2196  17.868  10.235  10.786  0.3393  0.0563  0.1950
  138loPI   GL1 2197  17.786  10.409  10.492  0.3361 -0.1874 -0.2898
  138loPI   GL2 2198  17.919  10.715  10.554 -0.5287  0.2685  0.2338
  138loPI   C1A 2199  18.099  10.374  10.084 -0.0888  0.0495  0.0918
  138loPI   C2A 2200  18.038  10.431   9.649 -0.3274 -0.0691  0.3045
  138loPI   C3A 2201  18.053  10.342   9.176 -0.0036 -0.3894  0.1870
  138loPI   C4A 2202  17.770  10.211   8.863  0.1739 -0.1438  0.2098
  138loPI   C5A 2203  17.521  10.262   8.502  0.0051 -0.3026  0.1244
  138loPI   C6A 2204  17.046  10.003   8.306 -0.2105  0.0366 -0.2169
  138loPI   C1B 2205  18.059  10.871  10.162  0.2524  0.1132 -0.2199
  138loPI   C2B 2206  18.106  10.917   9.748 -0.2662  0.3003 -0.2375
  138loPI   C3B 2207  17.919  10.806   9.320 -0.0702 -0.0734 -0.1612
  138loPI   C4B 2208  18.031  10.778   8.909  0.3402  0.1330 -0.2423
  139loPI    C1 2209   1.277   8.878  10.901 -0.2057  0.5313  0.0271
  139loPI    C2 2210   1.289   8.671  11.244 -0.1166  0.0220 -0.2724
  139loPI    C3 2211   1.342   9.068  11.247 -0.1951  0.0359  0.3065
  139loPI   PO4 2212   1.374   8.630  10.658 -0.1339  0.0576 -0.4665
  139loPI   GL1 2213   1.102   8.613  10.273 -0.1229  0.0468  0.0574
  139loPI   GL2 2214   1.173   8.276  10.230 -0.2323 -0.1339 -0.0182
  139loPI   C1A 2215   1.231   8.566   9.816 -0.3427 -0.3870 -0.0846
  139loPI   C2A 2216   1.278   8.667   9.283 -0.5491  0.0342 -0.2850
  139loPI   C3A 2217   1.202   8.615   8.892 -0.0493  0.1113 -0.1623
  139loPI   C4A 2218   1.216   8.528   8.384  0.2106 -0.1952 -0.1219
  139loPI   C5A 2219   1.195   8.587   8.033 -0.0320 -0.0273 -0.1231
  139loPI   C6A 2220   1.245   8.727   7.634 -0.0701  0.1395 -0.1096
  139loPI   C1B 2221   1.460   8.173   9.942  0.0347  0.2666  0.0991
  139loPI   C2B 2222   1.492   8.152   9.484 -0.1790 -0.2394 -0.0497
  139loPI   C3B 2223   1.493   8.147   9.042 -0.2027 -0.0138 -0.2708
  139loPI   C4B 2224   1.352   8.197   8.648  0.2460 -0.2397 -0.0286
  140loPI    C1 2225   0.329   6.445  11.159  0.0554 -0.2138 -0.0304
  140loPI    C2 2226  -0.004   6.306  11.332  0.0766 -0.1560  0.0578
  140loPI    C3 2227   0.193   6.612  11.496  0.1382 -0.1487 -0.0290
  140loPI   PO4 2228   0.230   6.434  10.917  0.1385 -0.1141 -0.0496
  140loPI   GL1 2229   0.402   6.477  10.498 -0.0487 -0.0094  0.0381
  140loPI   GL2 2230   0.699   6.427  10.519 -0.1542 -0.2867 -0.3211
  140loPI   C1A 2231   0.249   6.582  10.094 -0.2150  0.2034 -0.0010
  140loPI   C2A 2232   0.159   6.555   9.587 -0.2525 -0.2971  0.0249
  140loPI   C3A 2233   0.133   6.592   9.155 -0.0431 -0.0923  0.0354
  140loPI   C4A 2234   0.184   6.548   8.740 -0.0433  0.3445  0.1013
  140loPI   C5A 2235  -0.042   6.369   8.384  0.2996  0.0116  0.2784
  140loPI   C6A 2236  -0.231   6.055   8.615  0.0581 -0.0165  0.1962
  140loPI   C1B 2237   0.708   6.438  10.072 -0.1364 -0.2420 -0.0943
  140loPI   C2B 2238   0.695   6.408   9.580 -0.1256 -0.1248 -0.1017
  140loPI   C3B 2239   0.716   6.533   9.135  0.1958 -0.5289  0.0261
  140loPI   C4B 2240   0.730   6.517   8.672  0.1947 -0.2303  0.2905
  141loPI    C1 2241  14.735   3.715  11.417 -0.0074  0.0702  0.2145
  141loPI    C2 2242  14.553   3.685  11.772 -0.0229 -0.2631  0.1809
  141loPI    C3 2243  14.652   3.355  11.568  0.0171 -0.0754 -0.1102
  141loPI   PO4 2244  14.622   3.870  11.272  0.1320  0.0177  0.1349
  141loPI   GL1 2245  14.401   3.782  10.978 -0.0256 -0.2010  0.2405
  141loPI   GL2 2246  14.187   3.934  10.824  0.1317 -0.1904 -0.2111
  141loPI   C1A 2247  14.430   3.479  10.618 -0.4741  0.1600  0.0244
  141loPI   C2A 2248  14.594   3.525  10.301  0.2543  0.0499  0.0528
  141loPI   C3A 2249  14.592   3.498   9.898 -0.2091  0.0487  0.2893
  141loPI   C4A 2250  14.574   3.427   9.485 -0.2227  0.2050 -0.0274
  141loPI   C5A 2251  14.610   3.461   9.093 -0.0196 -0.2336  0.1622
  141loPI   C6A 2252  14.486   3.484   8.618  0.1169  0.0009 -0.2402
  141loPI   C1B 2253  14.342   3.959  10.354  0.0039  0.3103  0.0027
  141loPI   C2B 2254  14.366   3.946   9.848  0.0142 -0.0314 -0.0680
  141loPI   C3B 2255  14.343   3.958   9.379  0.1121 -0.0632 -0.0349
  141loPI   C4B 2256  14.458   3.874   8.925 -0.1241 -0.2452  0.0018
  142loPI    C1 2257  12.879   8.852  10.966  0.0359  0.1550  0.1029
  142loPI    C2 2258  12.611   8.914  10.676  0.2560  0.1736 -0.1001
  142loPI    C3 2259  12.583   9.115  11.021 -0.2029 -0.0934  0.0272
  142loPI   PO4 2260  13.064   8.664  10.738  0.1063  0.2371 -0.0300
  142loPI   GL1 2261  13.129   8.803  10.329  0.1173  0.2866 -0.0632
  142loPI   GL2 2262  13.009   9.086  10.327  0.4214 -0.0493 -0.1395
  142loPI   C1A 2263  13.314   8.783   9.913 -0.5263 -0.1185  0.0481
  142loPI   C2A 2264  13.401   8.728   9.436  0.3563  0.2675 -0.0520
  142loPI   C3A 2265  13.520   8.754   9.076  0.2044 -0.1281 -0.0843
  142loPI   C4A 2266  13.635   8.733   8.615  0.2018 -0.1101  0.2071
  142loPI   C5A 2267  13.846   8.814   8.179 -0.1690  0.3829  0.3931
  142loPI   C6A 2268  13.699   8.788   7.750 -0.0773 -0.0440  0.1828
  142loPI   C1B 2269  13.100   9.247   9.891  0.1904 -0.0765  0.0476
  142loPI   C2B 2270  13.218   9.180   9.539  0.0059  0.1446 -0.1579
  142loPI   C3B 2271  13.339   9.274   9.045 -0.1502 -0.1068  0.1291
  142loPI   C4B 2272  13.422   9.250   8.664  0.0495  0.0114  0.3661
  143loPI    C1 2273  10.921  15.327  10.945  0.2695 -0.0219 -0.0078
  143loPI    C2 2274  11.197  15.597  11.052  0.0807  0.0920  0.2004
  143loPI    C3 2275  10.935  15.461  11.322  0.1935 -0.3272  0.1060
  143loPI   PO4 2276  10.787  15.339  10.644  0.2436 -0.2585 -0.2398
  143loPI   GL1 2277  10.735  15.483  10.168 -0.2161 -0.0851 -0.0619
  143loPI   GL2 2278  10.910  15.747  10.099  0.1893  0.1818 -0.0590
  143loPI   C1A 2279  10.568  15.619   9.738  0.1143  0.1792  0.0171
  143loPI   C2A 2280  10.632  15.746   9.356 -0.0681  0.0991  0.1463
  143loPI   C3A 2281  10.875  15.812   9.002 -0.1293 -0.2616  0.1356
  143loPI   C4A 2282  10.809  15.928   8.558  0.1528 -0.1958 -0.2179
  143loPI   C5A 2283  10.786  16.346   8.369  0.1153 -0.2555  0.1280
  143loPI   C6A 2284  10.489  16.494   8.038 -0.1742 -0.1751  0.0885
  143loPI   C1B 2285  11.066  15.887   9.649  0.0768  0.0116 -0.2683
  143loPI   C2B 2286  11.212  16.219   9.398 -0.0447  0.0984  0.1688
  143loPI   C3B 2287  11.205  16.222   8.977  0.0802 -0.4467 -0.2812
  143loPI   C4B 2288  11.270  16.234   8.509  0.0252 -0.2807  0.0096
  144loPI    C1 2289  14.523  16.178  11.115  0.1426  0.1575  0.1553
  144loPI    C2 2290  14.256  15.962  11.321 -0.0214 -0.1151 -0.3279
  144loPI    C3 2291  14.645  15.872  11.343 -0.0333 -0.1199 -0.1150
  144loPI   PO4 2292  14.431  16.177  10.891 -0.2009 -0.0305 -0.2583
  144loPI   GL1 2293  14.386  16.185  10.500  0.3282 -0.1011 -0.1073
  144loPI   GL2 2294  14.651  16.007  10.450  0.2696 -0.0149  0.1114
  144loPI   C1A 2295  14.339  16.471  10.196  0.0555  0.2051  0.4027
  144loPI   C2A 2296  14.389  16.564   9.747  0.0498  0.5587 -0.0674
  144loPI   C3A 2297  14.501  16.486   9.394 -0.0838 -0.2397  0.1270
  144loPI   C4A 2298  14.522  16.535   8.874 -0.2994 -0.0215 -0.2427
  144loPI   C5A 2299  14.685  16.469   8.389 -0.2793  0.3773 -0.5556
  144loPI   C6A 2300  14.972  16.318   8.001 -0.1093 -0.0344 -0.0307
  144loPI   C1B 2301  14.505  15.988  10.030  0.1770 -0.4462  0.3368
  144loPI   C2B 2302  14.635  15.979   9.618 -0.2425 -0.2826  0.0125
  144loPI   C3B 2303  14.784  16.062   9.187 -0.2505  0.1808 -0.0801
  144loPI   C4B 2304  14.763  16.074   8.802 -0.0962  0.2015  0.0026
  145loPI    C1 2305   7.978  16.740  10.996  0.0661  0.0809  0.0449
  145loPI    C2 2306   7.844  16.421  11.197 -0.2838  0.1293 -0.1036
  145loPI    C3 2307   8.094  16.679  11.374  0.2114 -0.3580 -0.0647
  145loPI   PO4 2308   8.032  16.612  10.754 -0.3320  0.1266  0.0013
  145loPI   GL1 2309   8.030  16.790  10.277 -0.1279 -0.0250 -0.1020
  145loPI   GL2 2310   8.052  16.596  10.065  0.0104  0.3700 -0.0541
  145loPI   C1A 2311   8.077  17.038   9.857 -0.0983  0.3428 -0.1453
  145loPI   C2A 2312   8.181  17.045   9.429  0.1048  0.2757 -0.1696
  145loPI   C3A 2313   7.942  17.122   9.031  0.0900 -0.1654 -0.1038
  145loPI   C4A 2314   7.726  17.533   8.994 -0.1614 -0.2682  0.0889
  145loPI   C5A 2315   7.687  17.770   8.721  0.0925  0.0434  0.2978
  145loPI   C6A 2316   7.554  17.688   8.305  0.3161 -0.1670 -0.1008
  145loPI   C1B 2317   8.026  16.564   9.659 -0.2990 -0.0870  0.0827
  145loPI   C2B 2318   7.964  16.662   9.244  0.2229 -0.0328 -0.2217
  145loPI   C3B 2319   8.143  16.594   8.881 -0.0124  0.3000 -0.1727
  145loPI   C4B 2320   8.276  16.961   8.627  0.0367  0.0377 -0.4917
  146loPI    C1 2321  12.697   2.137  11.061 -0.1108  0.0709  0.1132
  146loPI    C2 2322  12.729   1.741  11.109  0.4961  0.0979  0.0053
  146loPI    C3 2323  12.882   1.989  11.383 -0.1079  0.2683  0.2036
  146loPI   PO4 2324  12.778   2.121  10.764  0.2167  0.2015  0.2576
  146loPI   GL1 2325  12.806   1.984  10.343  0.0557  0.1202 -0.0758
  146loPI   GL2 2326  13.123   1.802  10.443 -0.1008 -0.0322 -0.1738
  146loPI   C1A 2327  12.676   1.886   9.956  0.0399  0.2663  0.0833
  146loPI   C2A 2328  12.659   1.912   9.487 -0.1060  0.0576 -0.0333
  146loPI   C3A 2329  12.693   2.073   9.085  0.0339  0.0361  0.0099
  146loPI   C4A 2330  12.648   2.268   8.736 -0.3709  0.2357  0.0422
  146loPI   C5A 2331  12.429   2.289   8.305 -0.2326 -0.0282 -0.3522
  146loPI   C6A 2332  12.151   2.136   8.043 -0.0918 -0.1813  0.0433
  146loPI   C1B 2333  13.127   1.905   9.982 -0.2121  0.0756  0.0679
  146loPI   C2B 2334  13.199   1.868   9.525 -0.0534  0.0506 -0.1507
  146loPI   C3B 2335  13.208   1.944   9.077  0.1229  0.0326 -0.1384
  146loPI   C4B 2336  13.112   2.018   8.603 -0.0254  0.0094  0.1004
  147loPI    C1 2337   3.435   1.632  11.123  0.0020  0.1423  0.0214
  147loPI    C2 2338   3.161   1.892  11.254 -0.0671  0.0379  0.0856
  147loPI    C3 2339   3.340   1.643  11.511  0.2039  0.2126  0.0702
  147loPI   PO4 2340   3.563   1.673  10.822  0.2239 -0.0662 -0.2395
  147loPI   GL1 2341   3.762   1.533  10.466  0.0332  0.0058  0.2428
  147loPI   GL2 2342   4.017   1.644  10.383 -0.1207 -0.2840 -0.1186
  147loPI   C1A 2343   3.746   1.377   9.980  0.0596 -0.1095 -0.1128
  147loPI   C2A 2344   3.740   1.238   9.542 -0.1831 -0.1878  0.3090
  147loPI   C3A 2345   3.815   1.188   9.032  0.3087 -0.1756  0.0505
  147loPI   C4A 2346   3.811   1.191   8.577  0.0795 -0.1393  0.0555
  147loPI   C5A 2347   3.479   0.829   8.262 -0.0153  0.1310  0.0632
  147loPI   C6A 2348   3.609   0.699   7.910 -0.0118  0.2203 -0.0450
  147loPI   C1B 2349   4.071   1.757  10.039 -0.1139  0.0773  0.1837
  147loPI   C2B 2350   4.062   1.732   9.656 -0.1234  0.2975 -0.0218
  147loPI   C3B 2351   4.032   1.700   9.134  0.0947  0.0824 -0.0499
  147loPI   C4B 2352   4.055   1.623   8.744 -0.2264  0.1788 -0.2538
  148loPI    C1 2353   1.039   1.921  11.123  0.1569 -0.2678 -0.1959
  148loPI    C2 2354   1.296   2.223  11.074 -0.1442 -0.0081 -0.2084
  148loPI    C3 2355   1.327   1.984  11.393 -0.0474  0.1821 -0.0727
  148loPI   PO4 2356   1.128   1.796  10.867  0.1274  0.0692  0.1565
  148loPI   GL1 2357   0.833   1.577  10.597 -0.0297 -0.0117  0.0920
  148loPI   GL2 2358   0.655   1.796  10.617  0.2747 -0.1966  0.0913
  148loPI   C1A 2359   0.728   1.327  10.195 -0.2519  0.1720 -0.2686
  148loPI   C2A 2360   0.688   1.296   9.881  0.1113 -0.2288 -0.1990
  148loPI   C3A 2361   0.628   1.380   9.423 -0.1601 -0.2576  0.2243
  148loPI   C4A 2362   0.657   1.394   9.011 -0.1604  0.3168 -0.1794
  148loPI   C5A 2363   0.586   1.623   8.728 -0.2279 -0.1133 -0.0914
  148loPI   C6A 2364   0.679   2.000   8.534 -0.3590 -0.1328  0.0647
  148loPI   C1B 2365   0.521   1.767  10.225 -0.0664 -0.1921  0.1099
  148loPI   C2B 2366   0.426   1.716   9.884 -0.0424  0.0512  0.3482
  148loPI   C3B 2367   0.490   1.930   9.384 -0.0458  0.0846  0.2396
  148loPI   C4B 2368   0.362   1.950   9.017  0.0835  0.1345  0.2674
  149loPI    C1 2369  11.398  14.682  10.891 -0.0062  0.0799  0.1348
  149loPI    C2 2370  11.096  14.846  11.095  0.0103  0.1533  0.1005
  149loPI    C3 2371  11.454  14.804  11.268  0.0421  0.2761  0.0649
  149loPI   PO4 2372  11.358  14.696  10.653  0.3568 -0.1090 -0.4247
  149loPI   GL1 2373  11.487  14.556  10.196 -0.0861  0.0541  0.1175
  149loPI   GL2 2374  11.203  14.542  10.065 -0.0294  0.0353 -0.2880
  149loPI   C1A 2375  11.849  14.722   9.916 -0.0844 -0.0281 -0.0590
  149loPI   C2A 2376  11.906  15.006   9.515 -0.0687  0.1932  0.1421
  149loPI   C3A 2377  12.077  15.102   9.133  0.2638 -0.1284  0.1534
  149loPI   C4A 2378  12.147  14.994   8.700 -0.3600 -0.0222 -0.3513
  149loPI   C5A 2379  11.941  15.068   8.313  0.0927 -0.6233  0.0396
  149loPI   C6A 2380  11.995  15.034   7.876 -0.2493  0.0428  0.2977
  149loPI   C1B 2381  11.345  14.814   9.786  0.1129 -0.0633  0.3452
  149loPI   C2B 2382  11.418  15.057   9.482 -0.0175  0.2536  0.3312
  149loPI   C3B 2383  11.610  15.288   9.168  0.0860 -0.1457 -0.1554
  149loPI   C4B 2384  11.623  15.285   8.649 -0.2524  0.2041 -0.0743
  150loPI    C1 2385   4.586  13.908  10.683 -0.1971  0.0919 -0.1652
  150loPI    C2 2386   4.385  14.058  10.995 -0.1678  0.0642 -0.1330
  150loPI    C3 2387   4.755  13.914  11.046 -0.0766  0.2640 -0.2234
  150loPI   PO4 2388   4.563  14.112  10.456 -0.3107  0.0815 -0.0456
  150loPI   GL1 2389   4.408  13.859  10.142  0.0969 -0.0318 -0.1761
  150loPI   GL2 2390   4.704  14.103   9.966  0.0301  0.3359 -0.1046
  150loPI   C1A 2391   4.223  13.689   9.742  0.0919 -0.0459  0.0366
  150loPI   C2A 2392   4.254  13.646   9.212 -0.0695 -0.0453 -0.0238
  150loPI   C3A 2393   4.238  13.669   8.749  0.1638 -0.1982  0.0957
  150loPI   C4A 2394   4.166  13.791   8.397  0.2142  0.1320 -0.1923
  150loPI   C5A 2395   4.321  13.699   8.067  0.2941 -0.0001  0.0335
  150loPI   C6A 2396   4.122  13.891   7.754  0.3217 -0.0675  0.0608
  150loPI   C1B 2397   4.487  14.082   9.547 -0.1804  0.1340 -0.1110
  150loPI   C2B 2398   4.587  14.097   9.113 -0.0900 -0.0206  0.1328
  150loPI   C3B 2399   4.604  14.071   8.663 -0.0841 -0.1020  0.1149
  150loPI   C4B 2400   4.620  14.303   8.292  0.1452  0.0261 -0.0841
  151loPI    C1 2401   8.890   8.753  10.507 -0.1518 -0.0376  0.1197
  151loPI    C2 2402   9.151   8.484  10.648 -0.1816 -0.0154  0.2178
  151loPI    C3 2403   9.214   8.875  10.707 -0.1384 -0.0003  0.0753
  151loPI   PO4 2404   8.849   8.648  10.216  0.0015  0.2555 -0.2488
  151loPI   GL1 2405   8.823   8.376   9.869 -0.0998  0.2134 -0.0320
  151loPI   GL2 2406   8.511   8.274   9.768  0.0023 -0.1263 -0.1571
  151loPI   C1A 2407   9.227   8.374   9.711 -0.0388  0.0392 -0.0892
  151loPI   C2A 2408   9.417   8.461   9.341  0.1008 -0.2625 -0.1958
  151loPI   C3A 2409   9.472   8.412   8.915 -0.0835  0.3794 -0.3696
  151loPI   C4A 2410   9.733   8.479   8.642  0.1236 -0.3183  0.1088
  151loPI   C5A 2411   9.753   8.588   8.342  0.1405  0.1043  0.2428
  151loPI   C6A 2412   9.746   8.921   8.164 -0.1702  0.3522  0.0716
  151loPI   C1B 2413   8.801   8.235   9.413 -0.0658 -0.0077  0.1704
  151loPI   C2B 2414   8.839   8.278   8.993 -0.1145  0.2439 -0.1475
  151loPI   C3B 2415   8.923   8.113   8.583 -0.1608 -0.3414 -0.3581
  151loPI   C4B 2416   8.963   7.903   8.140  0.2566  0.1368  0.0022
  152loPI    C1 2417   4.474   7.671  10.515  0.1282 -0.2118  0.0550
  152loPI    C2 2418   4.475   7.940  10.811 -0.1031 -0.2011  0.0482
  152loPI    C3 2419   4.219   7.633  10.821 -0.0954 -0.2144 -0.1281
  152loPI   PO4 2420   4.588   7.845  10.344  0.1906 -0.2349 -0.0774
  152loPI   GL1 2421   4.513   8.161  10.223  0.1277  0.0533 -0.0249
  152loPI   GL2 2422   4.162   8.308  10.151 -0.0565  0.0051 -0.0271
  152loPI   C1A 2423   4.544   8.136   9.823  0.0198  0.0545 -0.0833
  152loPI   C2A 2424   4.427   8.155   9.397 -0.0293 -0.1658 -0.0214
  152loPI   C3A 2425   4.389   8.072   9.024 -0.1342 -0.2997  0.2665
  152loPI   C4A 2426   4.307   8.100   8.547 -0.1405  0.2374  0.0466
  152loPI   C5A 2427   4.097   8.053   8.224  0.1667  0.0536  0.3656
  152loPI   C6A 2428   4.030   8.347   7.900  0.1320 -0.2387 -0.2392
  152loPI   C1B 2429   4.014   8.326   9.670  0.0340 -0.1071  0.1912
  152loPI   C2B 2430   3.934   8.257   9.250 -0.1293 -0.0311 -0.4902
  152loPI   C3B 2431   3.804   8.275   8.749  0.0690  0.0321 -0.0774
  152loPI   C4B 2432   3.763   8.528   8.337 -0.1752  0.2038 -0.6373
  153loPI    C1 2433  13.192   2.357  11.381  0.0494  0.1320  0.0291
  153loPI    C2 2434  13.525   2.564  11.305  0.0921  0.0283 -0.0698
  153loPI    C3 2435  13.381   2.547  11.677  0.2281  0.0282 -0.0166
  153loPI   PO4 2436  13.134   2.366  11.080 -0.1820 -0.1000  0.1057
  153loPI   GL1 2437  13.283   2.302  10.613  0.2262 -0.0001 -0.1615
  153loPI   GL2 2438  13.092   2.473  10.555 -0.1706  0.1340  0.0220
  153loPI   C1A 2439  13.536   2.252  10.204 -0.0725  0.1079 -0.1964
  153loPI   C2A 2440  13.523   2.334   9.859  0.0135  0.2769  0.3390
  153loPI   C3A 2441  13.553   2.246   9.465  0.2415  0.0420 -0.0087
  153loPI   C4A 2442  13.572   2.331   9.127 -0.1808 -0.0338  0.0544
  153loPI   C5A 2443  13.776   2.157   8.747 -0.0310 -0.0573  0.0210
  153loPI   C6A 2444  14.153   2.215   8.494 -0.2249 -0.2050 -0.1193
  153loPI   C1B 2445  13.020   2.364  10.079  0.2971 -0.1314 -0.0298
  153loPI   C2B 2446  13.002   2.328   9.686 -0.1473  0.1227 -0.1393
  153loPI   C3B 2447  13.076   2.481   9.302  0.3401 -0.0853  0.0575
  153loPI   C4B 2448  13.113   2.435   8.948 -0.3050  0.0306  0.0130
  154loPI    C1 2449   9.039   3.389  10.984 -0.0662  0.0035  0.0473
  154loPI    C2 2450   8.688   3.329  11.166 -0.0214 -0.2908  0.0421
  154loPI    C3 2451   9.027   3.217  11.345  0.0820  0.0872  0.0931
  154loPI   PO4 2452   9.047   3.584  10.830  0.2149 -0.2795 -0.2643
  154loPI   GL1 2453   9.022   3.696  10.366 -0.0550  0.1056 -0.1524
  154loPI   GL2 2454   9.326   3.585  10.423 -0.1072 -0.1766 -0.0404
  154loPI   C1A 2455   8.914   3.561   9.902  0.0115 -0.3407 -0.0362
  154loPI   C2A 2456   9.128   3.614   9.483 -0.1775 -0.0793  0.1869
  154loPI   C3A 2457   9.135   3.617   9.108 -0.1308 -0.2385 -0.1119
  154loPI   C4A 2458   9.208   3.562   8.719  0.2798  0.0083  0.0084
  154loPI   C5A 2459   9.105   3.488   8.327 -0.0530 -0.0017 -0.1177
  154loPI   C6A 2460   9.028   3.061   8.053  0.0349  0.1912 -0.1106
  154loPI   C1B 2461   9.401   3.633   9.956 -0.0307 -0.1017 -0.0964
  154loPI   C2B 2462   9.721   3.526   9.600 -0.0488 -0.3054  0.1032
  154loPI   C3B 2463   9.694   3.520   9.173  0.0266  0.1626  0.1827
  154loPI   C4B 2464   9.783   3.511   8.744  0.3081 -0.0631 -0.0577
  155loPI    C1 2465  10.830   8.238  10.635  0.3190 -0.0184 -0.2394
  155loPI    C2 2466  11.043   8.316  10.965 -0.1413 -0.0118  0.0663
  155loPI    C3 2467  10.657   8.419  10.947 -0.1547 -0.1191 -0.4343
  155loPI   PO4 2468  10.918   7.986  10.601 -0.3060 -0.0015  0.3101
  155loPI   GL1 2469  11.211   7.869  10.298  0.1051 -0.2520 -0.0996
  155loPI   GL2 2470  11.450   7.941  10.278 -0.4303  0.1307 -0.1164
  155loPI   C1A 2471  11.132   7.630   9.964 -0.1713  0.2059 -0.3339
  155loPI   C2A 2472  11.303   7.603   9.648  0.0419  0.0173 -0.1475
  155loPI   C3A 2473  11.360   7.671   9.212  0.3340  0.3597 -0.2603
  155loPI   C4A 2474  11.492   7.839   8.833 -0.0381  0.0734 -0.2237
  155loPI   C5A 2475  11.504   7.825   8.497  0.1806  0.1624  0.5189
  155loPI   C6A 2476  11.289   7.547   8.138  0.0854 -0.2801 -0.0071
  155loPI   C1B 2477  11.617   7.968   9.854  0.0334 -0.0926 -0.1409
  155loPI   C2B 2478  11.692   8.052   9.455  0.0066  0.0316  0.1647
  155loPI   C3B 2479  11.706   8.146   9.080  0.0179  0.0203 -0.2760
  155loPI   C4B 2480  11.960   8.094   8.634 -0.0983 -0.1050 -0.4103
  156loPI    C1 2481  16.393  10.259  11.132  0.1484  0.0093 -0.1733
  156loPI    C2 2482  16.578   9.909  11.187  0.0507 -0.0028  0.0938
  156loPI    C3 2483  16.330  10.050  11.467 -0.2163  0.0932 -0.1851
  156loPI   PO4 2484  16.478  10.265  10.838  0.1531 -0.3073  0.0774
  156loPI   GL1 2485  16.554  10.181  10.373  0.1174  0.1649 -0.3215
  156loPI   GL2 2486  16.679  10.499  10.226  0.0644  0.0867 -0.2444
  156loPI   C1A 2487  16.396  10.081   9.933  0.1552 -0.2737  0.2773
  156loPI   C2A 2488  16.336  10.129   9.507 -0.0745  0.0876 -0.0131
  156loPI   C3A 2489  16.343  10.055   9.180  0.1729  0.1018 -0.2332
  156loPI   C4A 2490  16.391   9.978   8.831  0.1263  0.0582  0.2447
  156loPI   C5A 2491  16.405   9.930   8.386  0.1284  0.3952 -0.0338
  156loPI   C6A 2492  16.395   9.699   7.938 -0.0454  0.0585 -0.2124
  156loPI   C1B 2493  16.629  10.537   9.712  0.0979 -0.1108  0.0550
  156loPI   C2B 2494  16.590  10.460   9.285  0.1406  0.0704  0.1305
  156loPI   C3B 2495  16.720  10.373   8.947  0.0770 -0.0732  0.2746
  156loPI   C4B 2496  16.673  10.326   8.425  0.1186 -0.0907 -0.2341
  157loPI    C1 2497   7.647   4.250  10.437  0.0981  0.0205 -0.0162
  157loPI    C2 2498   7.358   4.074  10.651  0.3283 -0.5769 -0.1754
  157loPI    C3 2499   7.664   4.253  10.837 -0.0256 -0.1259 -0.0090
  157loPI   PO4 2500   7.644   4.093  10.221 -0.0465  0.0842  0.1870
  157loPI   GL1 2501   7.741   4.194   9.815 -0.1530  0.2519 -0.1575
  157loPI   GL2 2502   7.919   4.307   9.714  0.0923  0.0763 -0.4299
  157loPI   C1A 2503   7.608   3.995   9.437  0.1212 -0.0421 -0.0114
  157loPI   C2A 2504   7.709   4.085   8.926 -0.1312 -0.0388 -0.2694
  157loPI   C3A 2505   7.634   4.353   8.520  0.0310  0.0751 -0.1698
  157loPI   C4A 2506   7.770   4.743   8.293  0.1422 -0.2794  0.0488
  157loPI   C5A 2507   7.950   4.988   8.013 -0.1254 -0.1592 -0.0485
  157loPI   C6A 2508   7.834   5.467   7.878  0.1181 -0.1814  0.1890
  157loPI   C1B 2509   7.960   4.388   9.330 -0.2200  0.1086 -0.0263
  157loPI   C2B 2510   8.015   4.487   8.860 -0.3107 -0.0882 -0.0292
  157loPI   C3B 2511   8.249   4.594   8.462  0.0656  0.2148 -0.3820
  157loPI   C4B 2512   8.383   4.727   8.108 -0.1718  0.0431  0.2973
  158loPI    C1 2513   3.731   5.446  10.968  0.1690  0.0483 -0.2275
  158loPI    C2 2514   3.912   5.504  10.617  0.6351  0.1211  0.0167
  158loPI    C3 2515   4.017   5.194  10.847  0.1449 -0.0817 -0.0201
  158loPI   PO4 2516   3.457   5.493  10.784 -0.1435  0.0233 -0.3640
  158loPI   GL1 2517   3.298   5.412  10.370  0.4664 -0.4076  0.1983
  158loPI   GL2 2518   3.578   5.455  10.222 -0.0780  0.0930  0.0215
  158loPI   C1A 2519   3.174   5.157  10.099 -0.0274  0.1041  0.1584
  158loPI   C2A 2520   3.239   5.101   9.651  0.0721 -0.1636 -0.3664
  158loPI   C3A 2521   3.147   5.257   9.259  0.1133  0.1102  0.2516
  158loPI   C4A 2522   3.135   5.138   8.879  0.2220  0.0776 -0.1714
  158loPI   C5A 2523   3.022   5.080   8.515  0.0920 -0.1239  0.1306
  158loPI   C6A 2524   3.161   5.250   8.128 -0.1881  0.1046 -0.1100
  158loPI   C1B 2525   3.543   5.494   9.767  0.1371 -0.0729 -0.1115
  158loPI   C2B 2526   3.447   5.619   9.328  0.1268  0.1561 -0.3013
  158loPI   C3B 2527   3.428   5.528   8.917  0.0050  0.0381  0.0199
  158loPI   C4B 2528   3.423   5.408   8.566 -0.1175 -0.1757 -0.0887
  159loPI    C1 2529   6.237  15.020  10.471  0.0480  0.1310 -0.0523
  159loPI    C2 2530   6.407  15.357  10.337  0.2838  0.0498  0.0360
  159loPI    C3 2531   6.582  15.004  10.270  0.1408 -0.0379  0.1174
  159loPI   PO4 2532   6.056  15.081  10.594 -0.0993  0.4253  0.1849
  159loPI   GL1 2533   5.713  15.108  10.263  0.1391 -0.1400  0.2461
  159loPI   GL2 2534   5.712  15.405  10.249  0.2004  0.1458  0.0432
  159loPI   C1A 2535   6.078  15.172   9.951  0.1163 -0.1557 -0.1953
  159loPI   C2A 2536   6.096  15.226   9.519 -0.1669 -0.0567 -0.3313
  159loPI   C3A 2537   6.096  15.198   8.973  0.0137 -0.0083  0.4065
  159loPI   C4A 2538   5.954  15.401   8.461  0.0348 -0.1855 -0.1231
  159loPI   C5A 2539   5.722  15.501   8.069  0.0665 -0.1391  0.0833
  159loPI   C6A 2540   5.502  15.593   7.740  0.2859 -0.0548  0.0836
  159loPI   C1B 2541   5.644  15.270   9.792 -0.2819  0.0882  0.0238
  159loPI   C2B 2542   5.595  15.234   9.295 -0.0597  0.2911 -0.2275
  159loPI   C3B 2543   5.578  15.292   8.856  0.0530  0.3222 -0.0106
  159loPI   C4B 2544   5.417  15.241   8.302  0.2484  0.0433  0.1608
  160loPI    C1 2545   1.764   7.893  11.013  0.3619 -0.1148 -0.1326
  160loPI    C2 2546   1.518   7.859  11.326  0.2052  0.1696 -0.2209
  160loPI    C3 2547   1.910   7.793  11.371  0.1566  0.0129 -0.0110
  160loPI   PO4 2548   1.676   7.709  10.776 -0.0361 -0.0486 -0.1860
  160loPI   GL1 2549   1.839   7.503  10.464  0.0335 -0.1918  0.1082
  160loPI   GL2 2550   1.741   7.293  10.251  0.0649 -0.0803  0.0623
  160loPI   C1A 2551   1.678   7.735  10.042  0.0214 -0.0892 -0.0612
  160loPI   C2A 2552   1.744   7.704   9.685  0.1244 -0.1308  0.0365
  160loPI   C3A 2553   1.618   7.691   9.257  0.1313  0.3386  0.0290
  160loPI   C4A 2554   1.567   7.663   8.844 -0.2610 -0.3572  0.0212
  160loPI   C5A 2555   1.682   7.751   8.366 -0.2037  0.1052 -0.1395
  160loPI   C6A 2556   1.471   8.139   8.167 -0.3245  0.2690 -0.1702
  160loPI   C1B 2557   1.941   7.296   9.813  0.1822 -0.0471 -0.2898
  160loPI   C2B 2558   1.834   7.144   9.427  0.1073 -0.1974  0.0285
  160loPI   C3B 2559   1.770   7.238   9.024 -0.0268 -0.1289 -0.2284
  160loPI   C4B 2560   1.817   7.342   8.581 -0.0649  0.1379 -0.1770
  161loPI    C1 2561  13.517   4.233  11.293 -0.0515 -0.0002  0.1993
  161loPI    C2 2562  13.416   3.861  11.187 -0.1363  0.0108  0.2402
  161loPI    C3 2563  13.342   3.990  11.558 -0.0982  0.0654  0.2290
  161loPI   PO4 2564  13.414   4.359  11.024  0.1723 -0.0245 -0.0815
  161loPI   GL1 2565  13.342   4.535  10.685  0.1112 -0.0753 -0.3261
  161loPI   GL2 2566  13.108   4.493  10.557  0.1675  0.0032 -0.3549
  161loPI   C1A 2567  13.672   4.633  10.248  0.0182 -0.2094 -0.1664
  161loPI   C2A 2568  13.772   4.616   9.880 -0.2140 -0.1260 -0.0105
  161loPI   C3A 2569  13.774   4.624   9.461  0.2027 -0.1805 -0.0704
  161loPI   C4A 2570  13.690   4.614   9.076 -0.1353  0.1074 -0.0434
  161loPI   C5A 2571  13.731   4.687   8.650  0.4332 -0.2966 -0.2305
  161loPI   C6A 2572  13.506   4.929   8.412 -0.0804 -0.0081 -0.2137
  161loPI   C1B 2573  13.189   4.558  10.088  0.0766  0.1585  0.1694
  161loPI   C2B 2574  13.240   4.573   9.699  0.3480 -0.2366 -0.2799
  161loPI   C3B 2575  13.192   4.695   9.339  0.2810  0.0022 -0.0337
  161loPI   C4B 2576  13.184   4.776   8.866 -0.1030 -0.2753  0.2480
  162loPI    C1 2577   2.785  12.057  11.092 -0.1731  0.1926  0.1217
  162loPI    C2 2578   2.676  11.715  11.270 -0.1726  0.0372 -0.1700
  162loPI    C3 2579   2.642  12.063  11.465 -0.1689 -0.1288  0.1312
  162loPI   PO4 2580   2.680  12.108  10.892 -0.2594 -0.0420 -0.0264
  162loPI   GL1 2581   2.828  12.202  10.468  0.0527 -0.0549 -0.2136
  162loPI   GL2 2582   2.838  11.819  10.510 -0.2006 -0.0459  0.0783
  162loPI   C1A 2583   2.976  12.207  10.039  0.0088 -0.2094 -0.0199
  162loPI   C2A 2584   2.878  12.243   9.548  0.0829 -0.0064  0.0138
  162loPI   C3A 2585   2.893  12.260   9.138 -0.1111 -0.1471  0.1188
  162loPI   C4A 2586   2.823  12.202   8.687  0.0629 -0.2416  0.1074
  162loPI   C5A 2587   2.894  12.001   8.243 -0.0744  0.3738  0.0552
  162loPI   C6A 2588   3.290  11.776   8.125 -0.2017  0.2958 -0.0822
  162loPI   C1B 2589   2.663  11.763  10.144  0.0938 -0.0376 -0.1498
  162loPI   C2B 2590   2.671  11.705   9.738 -0.1463  0.1767 -0.1911
  162loPI   C3B 2591   2.552  11.748   9.365 -0.3651 -0.0091 -0.1821
  162loPI   C4B 2592   2.537  11.885   8.921 -0.2712  0.1393 -0.1524
  163loPI    C1 2593  16.818   5.741  11.242 -0.1454 -0.1104 -0.0253
  163loPI    C2 2594  16.548   6.003  11.377 -0.2150 -0.1826 -0.0238
  163loPI    C3 2595  16.840   5.874  11.619 -0.0261  0.0909 -0.1022
  163loPI   PO4 2596  16.877   5.821  11.045 -0.2327  0.0369 -0.0004
  163loPI   GL1 2597  16.988   5.904  10.705 -0.1158 -0.0167 -0.0724
  163loPI   GL2 2598  16.709   5.634  10.567 -0.0980  0.0299  0.0460
  163loPI   C1A 2599  16.974   5.938  10.205  0.1788  0.1660 -0.3274
  163loPI   C2A 2600  17.013   5.924   9.859  0.2720  0.1664 -0.0154
  163loPI   C3A 2601  17.020   5.807   9.439  0.0025  0.1215 -0.1809
  163loPI   C4A 2602  17.097   5.737   9.002  0.0535  0.0082 -0.2704
  163loPI   C5A 2603  17.325   5.767   8.611  0.0696  0.0772 -0.1065
  163loPI   C6A 2604  17.590   5.555   8.422  0.0803 -0.1499  0.0411
  163loPI   C1B 2605  16.633   5.469  10.146 -0.0887 -0.1596  0.0403
  163loPI   C2B 2606  16.712   5.478   9.747  0.0312 -0.1292 -0.1383
  163loPI   C3B 2607  16.770   5.385   9.298  0.1339 -0.1486 -0.2043
  163loPI   C4B 2608  16.752   5.424   8.861  0.1944 -0.0521 -0.1198
  164loPI    C1 2609  12.050   2.939  11.111 -0.0812 -0.0416  0.1077
  164loPI    C2 2610  12.054   2.591  11.309  0.4325 -0.2369 -0.2266
  164loPI    C3 2611  12.027   2.935  11.511  0.1303 -0.4574  0.1215
  164loPI   PO4 2612  12.297   2.979  10.936  0.2888  0.4079  0.1714
  164loPI   GL1 2613  12.541   3.071  10.696  0.1795  0.5016  0.2200
  164loPI   GL2 2614  12.547   3.407  10.716  0.1026 -0.1804 -0.1462
  164loPI   C1A 2615  12.667   2.863  10.276  0.0417 -0.2193  0.0205
  164loPI   C2A 2616  12.888   2.776   9.886 -0.4152 -0.1246  0.1662
  164loPI   C3A 2617  12.880   2.907   9.405 -0.0096 -0.2487 -0.1702
  164loPI   C4A 2618  13.014   2.924   9.005 -0.0114 -0.0889 -0.1363
  164loPI   C5A 2619  13.035   2.882   8.577 -0.1719  0.1693 -0.2754
  164loPI   C6A 2620  13.096   3.183   8.317 -0.1075 -0.0853  0.1168
  164loPI   C1B 2621  12.517   3.403  10.294 -0.0087  0.1058 -0.1525
  164loPI   C2B 2622  12.644   3.201   9.893 -0.0920 -0.4992 -0.0410
  164loPI   C3B 2623  12.715   3.399   9.557  0.0424 -0.1987  0.0859
  164loPI   C4B 2624  12.867   3.477   9.037  0.0113  0.0253 -0.0455
  165loPI    C1 2625  12.566   4.514  11.284  0.2883  0.0110 -0.0711
  165loPI    C2 2626  12.459   4.142  11.386 -0.0309  0.0866 -0.1198
  165loPI    C3 2627  12.389   4.446  11.636  0.2013  0.1205 -0.0932
  165loPI   PO4 2628  12.431   4.538  11.010  0.0622  0.0277  0.0282
  165loPI   GL1 2629  12.588   4.557  10.664  0.2994 -0.0974 -0.0607
  165loPI   GL2 2630  12.655   4.227  10.657 -0.2321  0.0036 -0.1000
  165loPI   C1A 2631  12.219   4.338  10.414 -0.0616 -0.2220 -0.3337
  165loPI   C2A 2632  12.225   4.368   9.978 -0.0351 -0.4860  0.1749
  165loPI   C3A 2633  12.329   4.376   9.502 -0.1398  0.0329 -0.1673
  165loPI   C4A 2634  12.243   4.293   9.061 -0.2032  0.0962  0.1357
  165loPI   C5A 2635  12.290   4.344   8.632  0.0998  0.0048  0.1540
  165loPI   C6A 2636  12.430   4.701   8.395 -0.3398  0.3172 -0.0403
  165loPI   C1B 2637  12.692   4.230  10.266  0.0039  0.1249 -0.2454
  165loPI   C2B 2638  12.877   4.237   9.910  0.2303  0.3343  0.1718
  165loPI   C3B 2639  12.832   4.289   9.542  0.1714 -0.1560 -0.0254
  165loPI   C4B 2640  12.908   4.233   9.103  0.3659  0.0474  0.2670
  166loPI    C1 2641  13.271   9.211  10.987  0.2389 -0.0776  0.0411
  166loPI    C2 2642  13.400   9.265  11.362 -0.0587  0.1946  0.1086
  166loPI    C3 2643  13.012   9.311  11.275  0.0707  0.5680 -0.3134
  166loPI   PO4 2644  13.389   9.342  10.682  0.0713  0.2812  0.0520
  166loPI   GL1 2645  13.575   9.171  10.222 -0.1090  0.0500 -0.0713
  166loPI   GL2 2646  13.617   8.799  10.338  0.0790  0.3240 -0.2726
  166loPI   C1A 2647  13.689   9.142   9.762 -0.0210 -0.0831  0.2588
  166loPI   C2A 2648  13.802   9.086   9.364 -0.0609 -0.3608  0.1278
  166loPI   C3A 2649  13.835   9.144   8.952  0.4312  0.1142  0.3084
  166loPI   C4A 2650  13.953   9.142   8.588 -0.1073 -0.0985 -0.1321
  166loPI   C5A 2651  14.120   9.238   8.206  0.3496  0.0831 -0.2411
  166loPI   C6A 2652  14.235   8.985   7.829  0.0308  0.0626 -0.0150
  166loPI   C1B 2653  13.876   8.729   9.961 -0.2399 -0.2711  0.1337
  166loPI   C2B 2654  14.005   8.591   9.581 -0.3609 -0.2064  0.0629
  166loPI   C3B 2655  14.022   8.670   9.187  0.2449 -0.2101 -0.1667
  166loPI   C4B 2656  14.103   8.679   8.723 -0.1658 -0.2873 -0.0115
  167loPI    C1 2657   8.911   2.006  10.781 -0.1295 -0.1139 -0.0358
  167loPI    C2 2658   9.039   1.627  10.766 -0.2732 -0.1741  0.2051
  167loPI    C3 2659   8.942   1.792  11.118 -0.5269 -0.0200  0.0654
  167loPI   PO4 2660   9.042   2.111  10.623  0.0613  0.0844  0.0774
  167loPI   GL1 2661   8.921   2.232  10.275 -0.2552 -0.0333  0.0347
  167loPI   GL2 2662   8.611   2.017  10.340 -0.2693  0.0885 -0.0270
  167loPI   C1A 2663   9.004   2.214   9.889 -0.0624 -0.0302  0.1629
  167loPI   C2A 2664   9.203   2.213   9.491  0.1682 -0.0204  0.4368
  167loPI   C3A 2665   9.227   2.218   9.156  0.1550 -0.4812 -0.0095
  167loPI   C4A 2666   9.334   2.159   8.820 -0.3280  0.2357  0.1165
  167loPI   C5A 2667   9.441   1.983   8.401  0.1922  0.1802 -0.1082
  167loPI   C6A 2668   9.454   2.177   7.979  0.1126  0.1040 -0.1900
  167loPI   C1B 2669   8.808   1.757  10.070 -0.0818 -0.2707 -0.0025
  167loPI   C2B 2670   8.914   1.715   9.591 -0.0749  0.2149  0.4836
  167loPI   C3B 2671   9.018   1.729   9.146 -0.0895 -0.1334  0.0725
  167loPI   C4B 2672   9.004   1.761   8.653  0.0178 -0.5677 -0.2391
  168loPI    C1 2673   0.885   7.635  10.722  0.1454 -0.1603 -0.0005
  168loPI    C2 2674   1.206   7.654  10.960  0.0728  0.1193  0.0786
  168loPI    C3 2675   0.860   7.818  11.077 -0.0137  0.0971 -0.1410
  168loPI   PO4 2676   0.840   7.424  10.591  0.2298  0.1443 -0.1450
  168loPI   GL1 2677   0.853   7.274  10.124  0.0686 -0.4497 -0.0658
  168loPI   GL2 2678   1.161   7.275  10.194 -0.2117 -0.0986 -0.0898
  168loPI   C1A 2679   0.808   7.271   9.763  0.2387 -0.0125  0.3890
  168loPI   C2A 2680   0.801   7.318   9.279 -0.0453  0.2504 -0.2282
  168loPI   C3A 2681   0.807   7.388   8.814  0.0898 -0.2686 -0.2083
  168loPI   C4A 2682   0.974   7.298   8.492  0.2624 -0.1737 -0.0045
  168loPI   C5A 2683   1.032   7.209   8.005 -0.2837 -0.0859 -0.1869
  168loPI   C6A 2684   1.225   7.363   7.736 -0.0698  0.0015  0.2873
  168loPI   C1B 2685   1.385   7.254   9.884 -0.0326  0.0207 -0.0907
  168loPI   C2B 2686   1.375   7.308   9.399 -0.1059  0.1814  0.2180
  168loPI   C3B 2687   1.293   7.250   8.939  0.1636 -0.0442 -0.1895
  168loPI   C4B 2688   1.474   7.023   8.562  0.1809  0.1637  0.2034
  169loPI    C1 2689   7.787  12.907  10.412 -0.1863 -0.1027 -0.1248
  169loPI    C2 2690   7.636  13.225  10.602  0.1336  0.0112 -0.0553
  169loPI    C3 2691   7.575  12.857  10.747  0.0191  0.0645  0.0329
  169loPI   PO4 2692   7.821  12.977  10.154  0.0309  0.0503  0.1280
  169loPI   GL1 2693   7.614  12.735   9.797 -0.0471 -0.2560  0.0162
  169loPI   GL2 2694   7.839  12.662   9.625  0.0574 -0.0103  0.1592
  169loPI   C1A 2695   7.625  13.101   9.509 -0.1218  0.0570  0.0960
  169loPI   C2A 2696   7.431  13.205   9.219  0.0243  0.1720  0.0575
  169loPI   C3A 2697   7.337  13.135   8.803  0.1562  0.1640 -0.1804
  169loPI   C4A 2698   7.306  13.179   8.400  0.3444 -0.1653  0.1689
  169loPI   C5A 2699   7.117  13.148   7.979  0.0683  0.5399 -0.3008
  169loPI   C6A 2700   6.739  13.046   7.701  0.0882  0.4632 -0.1138
  169loPI   C1B 2701   7.657  12.642   9.178  0.3343  0.0237 -0.2819
  169loPI   C2B 2702   7.507  12.646   8.786 -0.0302  0.1287  0.2878
  169loPI   C3B 2703   7.530  12.722   8.347  0.1720  0.1006  0.0891
  169loPI   C4B 2704   7.617  12.682   7.866  0.0545 -0.1851 -0.0635
  170loPI    C1 2705  10.961   8.735  10.539  0.0596 -0.2351 -0.0277
  170loPI    C2 2706  11.298   8.797  10.333 -0.0504 -0.1446 -0.1828
  170loPI    C3 2707  11.132   8.433  10.341 -0.0297 -0.1552 -0.2297
  170loPI   PO4 2708  10.835   9.007  10.455  0.1825 -0.2659  0.2742
  170loPI   GL1 2709  10.870   9.164  10.122  0.1729  0.1441  0.1530
  170loPI   GL2 2710  10.622   9.321   9.896 -0.0842  0.1644 -0.2786
  170loPI   C1A 2711  10.998   9.041   9.697 -0.4405 -0.1031  0.0771
  170loPI   C2A 2712  11.006   9.182   9.160  0.1244  0.0904 -0.1418
  170loPI   C3A 2713  11.181   9.166   8.727 -0.0645  0.0556 -0.0794
  170loPI   C4A 2714  11.419   9.114   8.351 -0.1724 -0.0278 -0.3824
  170loPI   C5A 2715  11.876   8.960   8.204  0.0709  0.0121 -0.3499
  170loPI   C6A 2716  12.250   8.794   8.085 -0.0676  0.0807 -0.0443
  170loPI   C1B 2717  10.551   9.330   9.413 -0.1379 -0.0199 -0.3095
  170loPI   C2B 2718  10.489   9.491   9.031  0.1903 -0.2412 -0.2335
  170loPI   C3B 2719  10.452   9.622   8.572 -0.1472  0.0738  0.2122
  170loPI   C4B 2720  10.431   9.712   8.186 -0.1413 -0.0282 -0.2290
  171loPI    C1 2721   0.276   4.282  11.654  0.2042 -0.0336  0.0330
  171loPI    C2 2722   0.636   4.114  11.695  0.2228  0.0012  0.0117
  171loPI    C3 2723   0.518   4.399  11.950  0.1634 -0.0930  0.0900
  171loPI   PO4 2724   0.358   4.356  11.276  0.0359 -0.2560 -0.1820
  171loPI   GL1 2725   0.240   4.625  10.959  0.1993  0.3326 -0.1613
  171loPI   GL2 2726   0.034   4.451  10.839 -0.2799 -0.0687  0.3115
  171loPI   C1A 2727   0.503   4.644  10.532 -0.0776 -0.0992 -0.2402
  171loPI   C2A 2728   0.426   4.621  10.136 -0.1112  0.1321 -0.0255
  171loPI   C3A 2729   0.284   4.739   9.711  0.0702 -0.1567 -0.2071
  171loPI   C4A 2730   0.466   4.669   9.387 -0.1973  0.0829 -0.0671
  171loPI   C5A 2731   0.412   4.696   8.971  0.2525  0.1569  0.3878
  171loPI   C6A 2732   0.180   4.944   8.593 -0.2237 -0.2177  0.2668
  171loPI   C1B 2733  -0.358   4.570  10.474 -0.0748  0.0104 -0.4199
  171loPI   C2B 2734  -0.437   4.271  10.156 -0.0184 -0.6355  0.1741
  171loPI   C3B 2735  -0.451   4.367   9.796 -0.1314  0.2433 -0.1166
  171loPI   C4B 2736  -0.461   4.337   9.324  0.0781 -0.0123 -0.2169
  172loPI    C1 2737  17.482  16.956  11.335 -0.1272 -0.0384  0.3406
  172loPI    C2 2738  17.681  17.286  11.443 -0.3410  0.1797  0.0826
  172loPI    C3 2739  17.328  17.201  11.611 -0.2822  0.0768  0.1550
  172loPI   PO4 2740  17.541  16.945  11.105 -0.0962  0.1343  0.1251
  172loPI   GL1 2741  17.547  17.009  10.626  0.0348 -0.0262  0.0982
  172loPI   GL2 2742  17.617  16.788  10.426  0.1469  0.1567  0.0612
  172loPI   C1A 2743  17.537  17.279  10.234 -0.0454  0.2871  0.1837
  172loPI   C2A 2744  17.503  17.444   9.783 -0.3617 -0.2383 -0.5378
  172loPI   C3A 2745  17.629  17.411   9.334 -0.0520 -0.0532  0.2595
  172loPI   C4A 2746  17.544  17.465   8.883  0.0620  0.0514 -0.0548
  172loPI   C5A 2747  17.495  17.503   8.470  0.1748 -0.0178  0.1609
  172loPI   C6A 2748  17.467  17.388   8.015  0.1082  0.0063 -0.1593
  172loPI   C1B 2749  17.722  16.815  10.031  0.0579 -0.1606 -0.3191
  172loPI   C2B 2750  17.783  16.857   9.578 -0.3060 -0.1343 -0.0326
  172loPI   C3B 2751  17.738  16.828   9.122 -0.4522 -0.2553  0.0185
  172loPI   C4B 2752  17.725  16.934   8.690  0.0872  0.1694 -0.1348
  173loPI    C1 2753   1.663   2.999  11.150  0.1428 -0.1516 -0.0667
  173loPI    C2 2754   1.806   3.305  11.364 -0.2273  0.0326 -0.0742
  173loPI    C3 2755   1.593   3.018  11.543 -0.0683 -0.1063 -0.1051
  173loPI   PO4 2756   1.648   3.081  10.874 -0.3298 -0.0923  0.2598
  173loPI   GL1 2757   1.863   3.205  10.549  0.0046 -0.2660 -0.3596
  173loPI   GL2 2758   1.894   3.500  10.452 -0.0186  0.0870 -0.0144
  173loPI   C1A 2759   1.605   3.028  10.240 -0.2744 -0.2450  0.1326
  173loPI   C2A 2760   1.596   2.964   9.797 -0.1389 -0.0017 -0.0001
  173loPI   C3A 2761   1.504   3.051   9.376 -0.1726  0.1442  0.0097
  173loPI   C4A 2762   1.326   3.091   8.888  0.0052  0.0225 -0.4107
  173loPI   C5A 2763   1.194   2.803   8.625 -0.1886  0.2956  0.1560
  173loPI   C6A 2764   1.219   2.361   8.619 -0.2209 -0.1266 -0.0330
  173loPI   C1B 2765   1.822   3.427   9.939 -0.1570  0.0378 -0.2632
  173loPI   C2B 2766   1.909   3.448   9.407  0.0253  0.3182  0.0247
  173loPI   C3B 2767   1.716   3.383   9.014 -0.0464 -0.0135 -0.0909
  173loPI   C4B 2768   1.565   3.430   8.606  0.0068 -0.0356  0.1138
  174loPI    C1 2769   8.351  11.066  10.119 -0.0079  0.0246 -0.1016
  174loPI    C2 2770   8.222  11.157  10.487 -0.0896 -0.1703 -0.0808
  174loPI    C3 2771   8.613  11.110  10.418 -0.0656 -0.0319 -0.0422
  174loPI   PO4 2772   8.200  11.222   9.979  0.3643 -0.1398 -0.0310
  174loPI   GL1 2773   8.130  11.457   9.809 -0.0420 -0.0056  0.1689
  174loPI   GL2 2774   8.493  11.492   9.630  0.0831 -0.0146  0.5399
  174loPI   C1A 2775   7.956  11.707   9.471 -0.3952  0.2987 -0.3822
  174loPI   C2A 2776   7.929  11.736   9.034 -0.1845  0.0922  0.0333
  174loPI   C3A 2777   7.739  11.638   8.615 -0.1019  0.0744  0.0262
  174loPI   C4A 2778   7.736  11.644   8.193  0.3320  0.2544 -0.0535
  174loPI   C5A 2779   8.036  11.724   7.832  0.0824 -0.1883 -0.1853
  174loPI   C6A 2780   8.374  11.630   7.569  0.1898  0.0804  0.2034
  174loPI   C1B 2781   8.427  11.408   9.168  0.0781  0.0990  0.1896
  174loPI   C2B 2782   8.238  11.479   8.708  0.2802 -0.3536  0.1569
  174loPI   C3B 2783   8.190  11.480   8.258 -0.1022 -0.1178 -0.3178
  174loPI   C4B 2784   8.502  11.341   7.942  0.0177  0.0268  0.0367
  175loPI    C1 2785   4.080   4.670  10.971 -0.0856  0.0258  0.0133
  175loPI    C2 2786   3.859   4.643  11.304 -0.0972 -0.1957 -0.0112
  175loPI    C3 2787   4.258   4.663  11.329 -0.1102  0.0405  0.0258
  175loPI   PO4 2788   3.895   4.663  10.668 -0.1208 -0.0183 -0.2009
  175loPI   GL1 2789   3.444   4.575  10.574 -0.1164 -0.0148  0.1021
  175loPI   GL2 2790   3.128   4.336  10.484 -0.0427 -0.0889  0.0646
  175loPI   C1A 2791   3.330   4.711  10.134  0.0803  0.1502 -0.0396
  175loPI   C2A 2792   3.365   4.562   9.714 -0.0109  0.1885  0.0419
  175loPI   C3A 2793   3.351   4.556   9.232 -0.2394 -0.0247  0.1781
  175loPI   C4A 2794   3.251   4.439   8.848 -0.3060  0.1076  0.0071
  175loPI   C5A 2795   3.224   4.672   8.433  0.0501 -0.0938  0.1667
  175loPI   C6A 2796   3.501   4.884   8.247  0.1357 -0.1853 -0.2967
  175loPI   C1B 2797   3.023   4.219  10.013  0.2371  0.0320  0.0827
  175loPI   C2B 2798   3.058   4.152   9.615 -0.0229  0.2542 -0.0400
  175loPI   C3B 2799   3.053   4.145   9.226 -0.1332  0.0387  0.2205
  175loPI   C4B 2800   2.973   4.005   8.833  0.0625  0.2998  0.2163
  176loPI    C1 2801   1.581  15.057  10.928 -0.4269 -0.1594 -0.2309
  176loPI    C2 2802   1.482  14.753  11.169  0.1426 -0.0631  0.1446
  176loPI    C3 2803   1.866  14.855  11.124 -0.0110  0.3699 -0.2686
  176loPI   PO4 2804   1.449  15.007  10.682  0.1784 -0.2630 -0.3405
  176loPI   GL1 2805   1.350  15.246  10.313 -0.2692  0.1279 -0.0743
  176loPI   GL2 2806   1.568  15.518  10.407  0.2468  0.0744  0.1341
  176loPI   C1A 2807   1.295  15.188   9.885 -0.0296 -0.0706  0.1308
  176loPI   C2A 2808   1.282  15.155   9.424 -0.1475 -0.1765  0.3458
  176loPI   C3A 2809   1.278  15.141   8.924 -0.0908 -0.2083  0.1290
  176loPI   C4A 2810   1.323  15.132   8.437 -0.0018  0.1928 -0.2522
  176loPI   C5A 2811   1.129  15.110   8.077  0.0328 -0.1353 -0.1959
  176loPI   C6A 2812   1.109  15.405   7.780  0.0766  0.1125 -0.1648
  176loPI   C1B 2813   1.567  15.588  10.042  0.0756 -0.0819  0.1366
  176loPI   C2B 2814   1.589  15.533   9.570 -0.1568  0.1827 -0.2768
  176loPI   C3B 2815   1.690  15.471   9.230  0.2655 -0.1200  0.1387
  176loPI   C4B 2816   1.587  15.611   8.842 -0.1540  0.0788 -0.1786
  177loPI    C1 2817   2.991   6.312  10.662  0.3354 -0.0790 -0.1361
  177loPI    C2 2818   3.091   5.941  10.775  0.1651 -0.0184  0.2281
  177loPI    C3 2819   3.014   6.221  11.051 -0.6806  0.0248 -0.0242
  177loPI   PO4 2820   3.095   6.385  10.490  0.0745  0.0206  0.0522
  177loPI   GL1 2821   3.370   6.214  10.224 -0.0843 -0.0470  0.2827
  177loPI   GL2 2822   3.372   5.898  10.356 -0.2318  0.0580  0.0965
  177loPI   C1A 2823   3.301   6.128   9.835  0.1593 -0.0715  0.0646
  177loPI   C2A 2824   3.210   6.065   9.474  0.1410 -0.0781  0.0743
  177loPI   C3A 2825   3.250   6.080   8.989  0.0641  0.0214 -0.0106
  177loPI   C4A 2826   3.311   5.922   8.538 -0.2957 -0.0854  0.2078
  177loPI   C5A 2827   3.467   6.266   8.185 -0.0790  0.1720 -0.0926
  177loPI   C6A 2828   3.868   6.456   8.103  0.0463 -0.2411 -0.1276
  177loPI   C1B 2829   3.105   5.745  10.079 -0.0591 -0.0020 -0.2846
  177loPI   C2B 2830   3.020   5.590   9.673  0.2317 -0.0277  0.1754
  177loPI   C3B 2831   2.916   5.686   9.260  0.2464  0.1054  0.1248
  177loPI   C4B 2832   2.931   5.569   8.844 -0.3478 -0.1388 -0.2372
  178loPI    C1 2833  14.586   2.482  11.482  0.1203 -0.0569  0.1424
  178loPI    C2 2834  14.316   2.187  11.487  0.0662 -0.0112 -0.0181
  178loPI    C3 2835  14.630   2.176  11.735 -0.1080 -0.0405  0.2039
  178loPI   PO4 2836  14.608   2.494  11.155  0.0611 -0.1153 -0.1294
  178loPI   GL1 2837  14.650   2.153  10.816 -0.0642 -0.1741 -0.1209
  178loPI   GL2 2838  14.777   2.443  10.663  0.4217 -0.1147 -0.2906
  178loPI   C1A 2839  14.451   2.153  10.372  0.0869  0.0644 -0.0686
  178loPI   C2A 2840  14.611   2.113   9.870 -0.4196  0.1959 -0.0228
  178loPI   C3A 2841  14.642   2.015   9.465  0.0524 -0.1187  0.0436
  178loPI   C4A 2842  14.599   2.098   9.187 -0.0598 -0.2812 -0.5323
  178loPI   C5A 2843  14.541   2.109   8.839  0.2019  0.2099  0.0081
  178loPI   C6A 2844  14.633   2.210   8.448 -0.0571 -0.0152  0.1633
  178loPI   C1B 2845  14.874   2.501  10.166 -0.0380  0.3286 -0.0259
  178loPI   C2B 2846  14.958   2.495   9.747  0.2863 -0.0254  0.0551
  178loPI   C3B 2847  14.890   2.468   9.290  0.0978  0.0244 -0.0318
  178loPI   C4B 2848  14.923   2.489   8.910 -0.0416  0.2176  0.1380
  179loPI    C1 2849  10.263  10.882  10.294 -0.0913 -0.1952 -0.0450
  179loPI    C2 2850  10.030  10.573  10.394 -0.0815 -0.0906  0.3159
  179loPI    C3 2851  10.074  10.880  10.647  0.1576  0.0618  0.0946
  179loPI   PO4 2852  10.404  10.818  10.196  0.2200 -0.2472  0.0583
  179loPI   GL1 2853  10.453  10.751   9.743  0.1294 -0.1768  0.0389
  179loPI   GL2 2854  10.734  10.863   9.768 -0.2960  0.0442  0.3733
  179loPI   C1A 2855  10.099  10.672   9.382 -0.0938 -0.2040 -0.0937
  179loPI   C2A 2856  10.085  10.866   8.981 -0.0830  0.1527  0.2419
  179loPI   C3A 2857  10.300  10.882   8.597  0.3665  0.0222 -0.0015
  179loPI   C4A 2858  10.569  10.981   8.242  0.2978 -0.0634 -0.1664
  179loPI   C5A 2859  10.814  11.340   7.914  0.2143  0.3549 -0.1420
  179loPI   C6A 2860  11.032  11.854   7.851 -0.1905  0.0506  0.1451
  179loPI   C1B 2861  10.610  11.197   9.366 -0.0008  0.0626  0.2155
  179loPI   C2B 2862  10.693  11.251   8.971 -0.0548 -0.1330 -0.0228
  179loPI   C3B 2863  10.614  11.362   8.544  0.0415  0.2346  0.0365
  179loPI   C4B 2864  10.751  11.744   8.233  0.3266 -0.1096 -0.1150
  180loPI    C1 2865   3.860   4.060  11.280  0.1097  0.1646  0.0496
  180loPI    C2 2866   3.558   3.817  11.182  0.2351  0.0379 -0.0268
  180loPI    C3 2867   3.732   3.784  11.540 -0.0711  0.3467  0.1572
  180loPI   PO4 2868   3.882   4.209  11.020 -0.1215  0.1710 -0.0077
  180loPI   GL1 2869   3.803   4.033  10.616 -0.0432 -0.3184  0.3308
  180loPI   GL2 2870   3.683   3.861  10.513  0.0033  0.1180 -0.1738
  180loPI   C1A 2871   3.617   4.260  10.219 -0.1736 -0.1182 -0.1264
  180loPI   C2A 2872   3.554   4.135   9.814 -0.0352  0.2118 -0.1112
  180loPI   C3A 2873   3.516   4.080   9.509  0.0153 -0.0168  0.0310
  180loPI   C4A 2874   3.532   4.078   9.117 -0.0825  0.2856  0.0511
  180loPI   C5A 2875   3.546   4.043   8.669 -0.1167 -0.2690  0.1043
  180loPI   C6A 2876   3.211   4.196   8.384 -0.1466 -0.2458  0.1939
  180loPI   C1B 2877   3.781   3.807  10.112 -0.1759  0.1576  0.0546
  180loPI   C2B 2878   3.856   3.724   9.732  0.0440 -0.0674  0.0321
  180loPI   C3B 2879   3.843   3.589   9.249  0.1016  0.3995  0.1482
  180loPI   C4B 2880   3.817   3.547   8.817  0.3295 -0.0924 -0.0921
  181loPI    C1 2881   2.569   4.184  11.253 -0.0308  0.1695  0.1556
  181loPI    C2 2882   2.662   4.542  11.099  0.0619  0.2377  0.3657
  181loPI    C3 2883   2.576   4.508  11.488  0.0559  0.0303  0.3473
  181loPI   PO4 2884   2.387   4.106  11.068 -0.0963  0.2566  0.0532
  181loPI   GL1 2885   2.393   4.282  10.688 -0.1711 -0.3253  0.1108
  181loPI   GL2 2886   2.729   4.508  10.610  0.2223  0.2439 -0.1199
  181loPI   C1A 2887   2.108   4.305  10.368 -0.1646 -0.1220 -0.1370
  181loPI   C2A 2888   1.990   4.274   9.970  0.1915 -0.2953  0.5032
  181loPI   C3A 2889   2.035   4.385   9.507 -0.2325  0.0830  0.2411
  181loPI   C4A 2890   1.982   4.278   9.112 -0.2466  0.2064 -0.2471
  181loPI   C5A 2891   1.771   4.356   8.732 -0.0121 -0.0228  0.2362
  181loPI   C6A 2892   1.812   4.455   8.295  0.1632 -0.1966  0.1757
  181loPI   C1B 2893   2.563   4.359  10.165  0.0009 -0.0254  0.2325
  181loPI   C2B 2894   2.498   4.257   9.837 -0.2040 -0.1267 -0.1485
  181loPI   C3B 2895   2.544   4.316   9.390  0.1254  0.3212 -0.1307
  181loPI   C4B 2896   2.599   4.291   9.044 -0.2649 -0.2348 -0.0960
  182loPI    C1 2897  17.031  16.844  10.944 -0.2464 -0.3197 -0.1561
  182loPI    C2 2898  17.197  16.596  11.210  0.0711 -0.0151 -0.0640
  182loPI    C3 2899  16.994  16.917  11.335  0.2412  0.1422 -0.1862
  182loPI   PO4 2900  17.166  16.735  10.698  0.0978 -0.2083 -0.0557
  182loPI   GL1 2901  17.029  16.619  10.357  0.2250  0.0802  0.0424
  182loPI   GL2 2902  17.179  16.896  10.241  0.2662  0.3242 -0.0489
  182loPI   C1A 2903  17.056  16.538   9.912 -0.1188  0.1204  0.3504
  182loPI   C2A 2904  17.022  16.486   9.493 -0.1244 -0.1876 -0.0862
  182loPI   C3A 2905  16.959  16.574   9.101  0.3515  0.3088  0.2588
  182loPI   C4A 2906  16.955  16.620   8.606 -0.2447  0.4845  0.1837
  182loPI   C5A 2907  16.872  16.760   8.145 -0.0033  0.1687  0.0300
  182loPI   C6A 2908  17.292  16.884   8.024 -0.2244  0.3375  0.3072
  182loPI   C1B 2909  17.248  16.968   9.840 -0.1103 -0.0352 -0.1102
  182loPI   C2B 2910  17.301  16.958   9.402 -0.1323 -0.2392  0.2467
  182loPI   C3B 2911  17.265  16.989   8.883 -0.0561  0.0133 -0.0656
  182loPI   C4B 2912  17.234  17.089   8.454  0.0910  0.1539  0.0799
  183loPI    C1 2913   6.319  14.375  10.593  0.1775 -0.1194  0.1465
  183loPI    C2 2914   5.948  14.265  10.694  0.2150 -0.2471  0.1467
  183loPI    C3 2915   6.088  14.622  10.807 -0.1049  0.0405 -0.3271
  183loPI   PO4 2916   6.311  14.108  10.426 -0.1126 -0.0926  0.0891
  183loPI   GL1 2917   5.973  13.867  10.274 -0.0307  0.0666  0.3900
  183loPI   GL2 2918   5.735  13.904  10.022  0.1103 -0.0801 -0.1606
  183loPI   C1A 2919   6.210  13.911   9.823 -0.0258 -0.0909 -0.2735
  183loPI   C2A 2920   6.093  13.905   9.417 -0.1871  0.0929 -0.1758
  183loPI   C3A 2921   6.137  13.922   9.024 -0.1395 -0.0254  0.3561
  183loPI   C4A 2922   6.259  13.976   8.574  0.0825  0.2250  0.1737
  183loPI   C5A 2923   6.372  14.052   8.161 -0.0899  0.0190  0.2653
  183loPI   C6A 2924   6.577  13.953   7.725  0.0653 -0.3532 -0.2992
  183loPI   C1B 2925   5.636  13.911   9.655 -0.3338  0.0412  0.2265
  183loPI   C2B 2926   5.668  13.946   9.207  0.0283 -0.0404  0.0489
  183loPI   C3B 2927   5.768  14.011   8.652 -0.0833  0.0986  0.1907
  183loPI   C4B 2928   5.653  14.104   8.270  0.1060  0.0160 -0.2065
  184loPI    C1 2929   4.142   8.283  10.898  0.0466  0.1551  0.0490
  184loPI    C2 2930   3.822   8.245  11.134  0.0243  0.0670  0.0052
  184loPI    C3 2931   4.134   7.999  11.180 -0.0072  0.0070 -0.0999
  184loPI   PO4 2932   4.079   8.310  10.676 -0.0167  0.1160 -0.0395
  184loPI   GL1 2933   3.745   8.270  10.481 -0.2956  0.2249  0.0740
  184loPI   GL2 2934   3.879   8.601  10.401  0.0249  0.1266  0.1011
  184loPI   C1A 2935   3.708   8.169  10.047  0.1271  0.0158 -0.2326
  184loPI   C2A 2936   3.678   7.865   9.691  0.2958 -0.0841 -0.4068
  184loPI   C3A 2937   3.581   7.790   9.329  0.1640 -0.1883  0.1237
  184loPI   C4A 2938   3.574   7.837   8.949 -0.0520  0.1936 -0.3846
  184loPI   C5A 2939   3.543   7.772   8.526  0.2540 -0.3849  0.1075
  184loPI   C6A 2940   3.161   7.819   8.322 -0.1725 -0.0785 -0.1613
  184loPI   C1B 2941   3.864   8.701  10.065  0.1757  0.0076  0.3319
  184loPI   C2B 2942   3.664   8.805   9.618  0.2569  0.0072 -0.2488
  184loPI   C3B 2943   3.693   8.710   9.142 -0.1523  0.1262  0.0318
  184loPI   C4B 2944   3.482   8.668   8.728  0.3342 -0.2746  0.0384
  185loPI    C1 2945  11.081   3.650  11.166  0.0150 -0.1439  0.2270
  185loPI    C2 2946  11.231   3.978  11.340  0.0453 -0.1024  0.1236
  185loPI    C3 2947  11.265   3.623  11.520  0.3070 -0.1000  0.0827
  185loPI   PO4 2948  11.143   3.673  10.898  0.3170 -0.0091 -0.0188
  185loPI   GL1 2949  11.006   3.522  10.471 -0.0708  0.0461 -0.0069
  185loPI   GL2 2950  11.294   3.741  10.393  0.2851  0.0222 -0.2153
  185loPI   C1A 2951  11.169   3.380  10.043 -0.1595 -0.2175 -0.1489
  185loPI   C2A 2952  11.207   3.345   9.599  0.1684 -0.0837 -0.0509
  185loPI   C3A 2953  11.370   3.133   9.281 -0.0770 -0.0271 -0.0374
  185loPI   C4A 2954  11.319   3.088   8.891  0.1132 -0.2310  0.1962
  185loPI   C5A 2955  11.636   3.139   8.489  0.1181  0.0412 -0.2015
  185loPI   C6A 2956  12.033   3.331   8.573  0.1413  0.2657  0.1260
  185loPI   C1B 2957  11.602   3.589  10.244 -0.0836  0.3121  0.0744
  185loPI   C2B 2958  11.661   3.434   9.805 -0.0271  0.2774 -0.2476
  185loPI   C3B 2959  11.652   3.562   9.317  0.0372 -0.0862 -0.0566
  185loPI   C4B 2960  11.750   3.427   8.959 -0.2343  0.0662  0.2648
  186loPI    C1 2961  16.329   0.267  11.075 -0.2078 -0.2850  0.3015
  186loPI    C2 2962  16.197   0.607  11.238 -0.1467 -0.1144  0.0018
  186loPI    C3 2963  16.468   0.385  11.431 -0.1825  0.0089  0.1965
  186loPI   PO4 2964  16.166   0.141  11.048  0.2819  0.0866 -0.0467
  186loPI   GL1 2965  16.110  -0.070  10.617 -0.0226  0.1300  0.2836
  186loPI   GL2 2966  15.823  -0.085  10.499  0.0649 -0.0031 -0.1207
  186loPI   C1A 2967  16.339  -0.054  10.159  0.2513  0.1538  0.0228
  186loPI   C2A 2968  16.378  -0.047   9.750  0.2617 -0.4756  0.2146
  186loPI   C3A 2969  16.351   0.024   9.303 -0.1415 -0.3701 -0.0355
  186loPI   C4A 2970  16.282   0.002   8.892 -0.0523 -0.0687  0.4327
  186loPI   C5A 2971  16.182   0.264   8.542 -0.1319  0.0787  0.0674
  186loPI   C6A 2972  15.921   0.445   8.158 -0.1095  0.1365 -0.2949
  186loPI   C1B 2973  15.704   0.054  10.185 -0.2013  0.1003 -0.0803
  186loPI   C2B 2974  15.847   0.092   9.666  0.0886 -0.3337 -0.0959
  186loPI   C3B 2975  15.831   0.201   9.190  0.2265  0.0941  0.0357
  186loPI   C4B 2976  15.758   0.190   8.798  0.1578 -0.2632 -0.0408
  187loPI    C1 2977  10.326   7.646  10.791  0.0774  0.0116  0.0433
  187loPI    C2 2978  10.529   7.330  10.928  0.1779  0.1056  0.1121
  187loPI    C3 2979  10.449   7.638  11.171  0.0173  0.1017  0.0648
  187loPI   PO4 2980  10.457   7.643  10.447  0.1884 -0.1441 -0.0737
  187loPI   GL1 2981  10.714   7.882  10.147  0.1397 -0.1844  0.2693
  187loPI   GL2 2982  10.684   8.227  10.128 -0.0021  0.3582 -0.0538
  187loPI   C1A 2983  10.707   7.862   9.694 -0.0117 -0.2563 -0.1534
  187loPI   C2A 2984  10.841   7.781   9.276 -0.2372  0.0275 -0.3046
  187loPI   C3A 2985  10.993   7.796   8.793  0.1444  0.0070  0.5369
  187loPI   C4A 2986  10.947   7.769   8.375 -0.0441  0.0174  0.0067
  187loPI   C5A 2987  10.804   7.734   8.033  0.1361 -0.0240 -0.1230
  187loPI   C6A 2988  10.366   7.951   7.968 -0.0050  0.0338 -0.0194
  187loPI   C1B 2989  11.100   8.168   9.858  0.1419  0.3349 -0.3245
  187loPI   C2B 2990  11.236   8.086   9.434  0.1922  0.0481  0.0254
  187loPI   C3B 2991  11.229   8.265   8.974 -0.0727 -0.1353  0.0957
  187loPI   C4B 2992  11.191   8.176   8.583 -0.1963  0.1078  0.1825
  188loPI    C1 2993  11.241   7.827  10.970  0.0924  0.0274  0.2634
  188loPI    C2 2994  10.988   7.540  11.088  0.1706 -0.2443 -0.2061
  188loPI    C3 2995  10.872   7.923  11.093 -0.0596 -0.3142  0.0871
  188loPI   PO4 2996  11.358   7.625  10.736  0.1726  0.0543 -0.1824
  188loPI   GL1 2997  11.473   7.351  10.457 -0.2653 -0.1058  0.1055
  188loPI   GL2 2998  11.229   7.199  10.241  0.2889  0.3554 -0.0729
  188loPI   C1A 2999  11.643   7.484  10.106  0.0269 -0.1071 -0.0295
  188loPI   C2A 3000  11.801   7.497   9.739 -0.0580 -0.0036  0.1558
  188loPI   C3A 3001  11.862   7.635   9.291 -0.0677 -0.0395  0.0405
  188loPI   C4A 3002  11.994   7.633   8.922  0.0202  0.0031  0.0117
  188loPI   C5A 3003  11.826   7.454   8.542  0.1445  0.3235  0.2315
  188loPI   C6A 3004  11.477   7.149   8.301 -0.2345 -0.2295  0.1220
  188loPI   C1B 3005  11.409   7.078   9.886 -0.0966 -0.2326 -0.2596
  188loPI   C2B 3006  11.542   7.122   9.461 -0.0722 -0.1258 -0.3485
  188loPI   C3B 3007  11.512   7.232   8.946 -0.0584  0.5114 -0.1422
  188loPI   C4B 3008  11.228   7.401   8.654 -0.0423 -0.2161  0.1807
  189loPI    C1 3009  15.382   4.410  11.359  0.1393 -0.0633  0.0953
  189loPI    C2 3010  15.266   4.495  11.732  0.1088  0.0439  0.0618
  189loPI    C3 3011  15.357   4.119  11.631 -0.1647 -0.0355  0.1007
  189loPI   PO4 3012  15.268   4.477  11.142 -0.0947 -0.0524 -0.0855
  189loPI   GL1 3013  15.015   4.436  10.836  0.1886 -0.1457  0.0633
  189loPI   GL2 3014  14.821   4.158  10.887  0.0088 -0.1342 -0.0208
  189loPI   C1A 3015  14.790   4.378  10.351 -0.1975 -0.0909  0.0752
  189loPI   C2A 3016  14.698   4.390   9.951  0.0559 -0.0205 -0.0633
  189loPI   C3A 3017  14.732   4.200   9.647 -0.0691  0.0700 -0.2404
  189loPI   C4A 3018  14.651   4.337   9.263  0.1266 -0.2113 -0.5351
  189loPI   C5A 3019  14.669   4.520   8.854  0.0794  0.2555  0.0345
  189loPI   C6A 3020  14.610   4.874   8.525  0.1310  0.3265  0.1907
  189loPI   C1B 3021  14.820   3.886  10.583  0.2578  0.0071  0.0491
  189loPI   C2B 3022  14.864   3.891  10.111 -0.0070 -0.2941 -0.0355
  189loPI   C3B 3023  14.990   3.816   9.681  0.0213 -0.0612 -0.0194
  189loPI   C4B 3024  14.912   3.855   9.242  0.3271  0.0165 -0.0670
  190loPI    C1 3025   8.971  10.276  10.432 -0.0195  0.0487  0.0909
  190loPI    C2 3026   9.244  10.019  10.572  0.1571  0.1327 -0.0933
  190loPI    C3 3027   9.207  10.381  10.738 -0.0269  0.0251  0.1047
  190loPI   PO4 3028   8.961  10.169  10.182 -0.0591 -0.1024 -0.1555
  190loPI   GL1 3029   8.978   9.850   9.803 -0.2162 -0.0874 -0.0097
  190loPI   GL2 3030   9.301   9.935   9.673  0.1548  0.2160 -0.1482
  190loPI   C1A 3031   8.967   9.616   9.437  0.0152 -0.2049 -0.0065
  190loPI   C2A 3032   9.021   9.562   9.008  0.0026  0.2344  0.1170
  190loPI   C3A 3033   8.941   9.601   8.616 -0.0359 -0.4796 -0.0653
  190loPI   C4A 3034   8.892   9.502   8.265  0.0582 -0.0238 -0.0361
  190loPI   C5A 3035   8.642   9.566   7.839  0.2083 -0.1384 -0.0693
  190loPI   C6A 3036   8.613   9.721   7.409 -0.0727  0.3352  0.0981
  190loPI   C1B 3037   9.225  10.001   9.165 -0.0726 -0.2805 -0.4426
  190loPI   C2B 3038   9.226  10.043   8.694  0.2215 -0.0447  0.0985
  190loPI   C3B 3039   9.337  10.081   8.294  0.2931 -0.2156  0.0636
  190loPI   C4B 3040   9.552   9.727   8.018  0.1065 -0.0988  0.3173
  191loPI    C1 3041   3.418  15.850  10.901  0.0268  0.2293 -0.0910
  191loPI    C2 3042   3.070  16.014  11.010 -0.0041 -0.0222  0.2053
  191loPI    C3 3043   3.325  15.884  11.289  0.0562 -0.3991 -0.0192
  191loPI   PO4 3044   3.332  15.684  10.637 -0.2882  0.2166 -0.1912
  191loPI   GL1 3045   3.661  15.850  10.353 -0.3987 -0.0803  0.2194
  191loPI   GL2 3046   3.647  16.233  10.474  0.2688  0.1416  0.2468
  191loPI   C1A 3047   3.500  15.730   9.862  0.5596 -0.2898  0.0458
  191loPI   C2A 3048   3.515  15.690   9.406 -0.0061  0.3393 -0.1167
  191loPI   C3A 3049   3.625  15.699   9.013  0.0247  0.0682  0.0333
  191loPI   C4A 3050   3.583  15.704   8.610  0.2743 -0.0455 -0.2411
  191loPI   C5A 3051   3.808  15.567   8.222  0.0778 -0.2328 -0.3382
  191loPI   C6A 3052   4.037  15.247   7.981  0.2432  0.3388  0.0374
  191loPI   C1B 3053   3.368  16.188  10.073  0.1818  0.0291 -0.2364
  191loPI   C2B 3054   3.436  16.151   9.574 -0.4126 -0.1532 -0.0728
  191loPI   C3B 3055   3.339  16.268   9.279 -0.0705 -0.0450 -0.2806
  191loPI   C4B 3056   3.425  16.159   8.782  0.2166  0.0524 -0.0823
  192loPI    C1 3057   5.203  15.217  11.105  0.0423 -0.2415 -0.3084
  192loPI    C2 3058   5.533  15.207  11.332 -0.2277  0.2309  0.1276
  192loPI    C3 3059   5.180  15.100  11.487 -0.3261 -0.0294 -0.2605
  192loPI   PO4 3060   5.265  15.144  10.912  0.1079 -0.0437  0.3845
  192loPI   GL1 3061   5.225  15.136  10.468 -0.0397  0.0719  0.0986
  192loPI   GL2 3062   5.218  14.900  10.269 -0.0354 -0.1178  0.0377
  192loPI   C1A 3063   5.220  15.372  10.089  0.0616 -0.1413  0.0822
  192loPI   C2A 3064   5.182  15.310   9.646 -0.0866 -0.1101 -0.0656
  192loPI   C3A 3065   5.175  15.371   9.184 -0.0451  0.2159 -0.1441
  192loPI   C4A 3066   5.162  15.478   8.631  0.1115 -0.0667 -0.1351
  192loPI   C5A 3067   4.894  15.543   8.356  0.1446 -0.0692 -0.0499
  192loPI   C6A 3068   4.476  15.580   8.315  0.0446 -0.2393  0.0104
  192loPI   C1B 3069   5.254  14.904   9.904 -0.0784  0.2725  0.3392
  192loPI   C2B 3070   5.221  14.837   9.533  0.1785 -0.1355 -0.0019
  192loPI   C3B 3071   5.290  14.874   9.115 -0.0432 -0.0654 -0.1103
  192loPI   C4B 3072   5.308  14.893   8.647 -0.0930 -0.0296  0.1205
  193loPI    C1 3073  12.962  11.486  10.771 -0.0179 -0.1875 -0.0229
  193loPI    C2 3074  13.236  11.384  11.044  0.0752 -0.3220 -0.1647
  193loPI    C3 3075  12.917  11.600  11.151  0.1495 -0.3095  0.0346
  193loPI   PO4 3076  12.861  11.306  10.629 -0.1372 -0.1809  0.1262
  193loPI   GL1 3077  13.017  11.463  10.234 -0.2160 -0.0097 -0.0676
  193loPI   GL2 3078  12.782  11.492  10.008  0.2314  0.0208  0.0920
  193loPI   C1A 3079  13.310  11.525   9.923  0.1379 -0.2145  0.0121
  193loPI   C2A 3080  13.403  11.536   9.535  0.0037  0.2192 -0.3291
  193loPI   C3A 3081  13.435  11.528   9.070  0.4271  0.0231  0.0661
  193loPI   C4A 3082  13.410  11.653   8.685 -0.2393 -0.3856  0.0080
  193loPI   C5A 3083  13.396  11.760   8.255  0.2578  0.2223 -0.1975
  193loPI   C6A 3084  13.265  11.948   7.905 -0.1418 -0.0834 -0.1049
  193loPI   C1B 3085  12.924  11.415   9.630  0.1451  0.0584  0.0428
  193loPI   C2B 3086  13.000  11.359   9.267  0.1858 -0.2292  0.0574
  193loPI   C3B 3087  13.057  11.300   8.889  0.0400  0.1289 -0.1321
  193loPI   C4B 3088  13.053  11.173   8.417 -0.0006 -0.3528  0.1704
  194loPI    C1 3089   9.459  10.559  10.337  0.2890  0.0162 -0.0590
  194loPI    C2 3090   9.605  10.930  10.367 -0.0022  0.1270  0.0294
  194loPI    C3 3091   9.594  10.692  10.689  0.2410  0.0176 -0.0408
  194loPI   PO4 3092   9.674  10.471  10.104  0.2556  0.2429  0.0593
  194loPI   GL1 3093   9.684  10.318   9.682 -0.1037 -0.0789  0.4409
  194loPI   GL2 3094   9.336  10.474   9.775  0.2302  0.0800  0.0696
  194loPI   C1A 3095   9.685  10.172   9.293  0.0690  0.0223 -0.0068
  194loPI   C2A 3096   9.644  10.172   8.892 -0.0162  0.2476 -0.1876
  194loPI   C3A 3097   9.735  10.272   8.503  0.0323  0.0958  0.2024
  194loPI   C4A 3098   9.767  10.191   8.077  0.0751  0.3251 -0.0216
  194loPI   C5A 3099   9.377  10.153   7.772  0.0902 -0.0911 -0.0624
  194loPI   C6A 3100   9.048   9.885   7.865  0.2798 -0.0002  0.3737
  194loPI   C1B 3101   9.575  10.665   9.307 -0.1293  0.0920  0.1786
  194loPI   C2B 3102   9.640  10.791   8.822  0.0471 -0.0165  0.0568
  194loPI   C3B 3103   9.552  10.800   8.351  0.0959 -0.1662 -0.0866
  194loPI   C4B 3104   9.618  10.608   7.913  0.0903  0.1078 -0.0276
  195loPI    C1 3105   0.268   2.004  11.285 -0.1305  0.1607  0.0860
  195loPI    C2 3106   0.595   2.096  11.074 -0.1032 -0.0890  0.0160
  195loPI    C3 3107   0.631   1.940  11.441 -0.1471  0.0419  0.0768
  195loPI   PO4 3108   0.084   1.965  11.075  0.0643 -0.2229  0.4011
  195loPI   GL1 3109   0.112   1.949  10.633  0.1447 -0.4858 -0.0832
  195loPI   GL2 3110  -0.224   1.704  10.843 -0.3112 -0.0230  0.2302
  195loPI   C1A 3111   0.005   1.858  10.150 -0.2257 -0.0911  0.0056
  195loPI   C2A 3112   0.006   1.929   9.690 -0.0250 -0.2577 -0.3457
  195loPI   C3A 3113  -0.031   2.001   9.240 -0.0466  0.1913  0.1059
  195loPI   C4A 3114  -0.042   2.108   8.795  0.1812 -0.1420 -0.0008
  195loPI   C5A 3115   0.069   1.866   8.465 -0.3379 -0.1733  0.4084
  195loPI   C6A 3116   0.444   1.768   8.162 -0.4122 -0.0939 -0.0737
  195loPI   C1B 3117  -0.364   1.947  10.509 -0.0574  0.1971 -0.0942
  195loPI   C2B 3118  -0.443   1.972   9.986 -0.1894 -0.1879 -0.0802
  195loPI   C3B 3119  -0.491   2.067   9.600  0.0134 -0.3939 -0.1588
  195loPI   C4B 3120  -0.544   2.124   9.069 -0.0176  0.0863  0.2042
  196loPI    C1 3121   3.239   6.855  10.830 -0.1429 -0.0136 -0.0119
  196loPI    C2 3122   3.416   6.511  10.931 -0.2470 -0.0789 -0.0507
  196loPI    C3 3123   3.381   6.805  11.201 -0.2095 -0.1203 -0.0006
  196loPI   PO4 3124   3.106   6.839  10.731 -0.1464 -0.1508  0.0127
  196loPI   GL1 3125   3.073   6.915  10.328 -0.2545  0.0078 -0.1363
  196loPI   GL2 3126   3.151   6.662  10.149  0.0737 -0.3330  0.0287
  196loPI   C1A 3127   2.957   7.031   9.885 -0.0041  0.0234  0.2801
  196loPI   C2A 3128   2.972   7.024   9.448  0.1797  0.0858 -0.0174
  196loPI   C3A 3129   2.871   6.959   8.987  0.0010  0.3633  0.1699
  196loPI   C4A 3130   2.580   7.015   8.604 -0.0180 -0.3665  0.0547
  196loPI   C5A 3131   2.288   7.115   8.306  0.0760  0.2791  0.1132
  196loPI   C6A 3132   2.100   7.436   8.092  0.1023  0.3721  0.2862
  196loPI   C1B 3133   3.119   6.541   9.733 -0.2216 -0.2992  0.1830
  196loPI   C2B 3134   3.035   6.517   9.258 -0.0248  0.3028 -0.3129
  196loPI   C3B 3135   3.000   6.459   8.828 -0.1167 -0.0168 -0.0086
  196loPI   C4B 3136   2.940   6.758   8.403  0.1091  0.1759 -0.1506
  197loPI    C1 3137   0.686  10.184  10.931 -0.1626  0.2524 -0.1775
  197loPI    C2 3138   1.008  10.018  11.100 -0.0426  0.4393 -0.2199
  197loPI    C3 3139   0.645   9.953  11.255  0.0002  0.1273 -0.2449
  197loPI   PO4 3140   0.772  10.295  10.643 -0.4367  0.1062 -0.0167
  197loPI   GL1 3141   0.970  10.094  10.389 -0.0963 -0.0504  0.1730
  197loPI   GL2 3142   1.332  10.102  10.268 -0.1631 -0.0251  0.0881
  197loPI   C1A 3143   0.918   9.927  10.076  0.1621  0.0869  0.0937
  197loPI   C2A 3144   0.826   9.868   9.703  0.0619  0.0572  0.0968
  197loPI   C3A 3145   0.895   9.742   9.380  0.1532  0.1474  0.3034
  197loPI   C4A 3146   0.835   9.743   8.947 -0.1676 -0.0026 -0.3654
  197loPI   C5A 3147   1.009   9.715   8.576 -0.0124 -0.0765 -0.1811
  197loPI   C6A 3148   0.980   9.948   8.257 -0.4489 -0.1547 -0.0482
  197loPI   C1B 3149   1.353  10.102   9.894 -0.1099 -0.2543 -0.0943
  197loPI   C2B 3150   1.343  10.050   9.587 -0.2007  0.2803  0.0906
  197loPI   C3B 3151   1.255  10.106   9.264 -0.0538 -0.2176  0.1803
  197loPI   C4B 3152   1.119  10.144   8.871 -0.1103  0.1714  0.0369
  198loPI    C1 3153   1.370  14.261  11.038  0.0223  0.1031 -0.1696
  198loPI    C2 3154   1.511  13.917  11.186 -0.3121 -0.0356 -0.1664
  198loPI    C3 3155   1.576  14.260  11.381 -0.2015 -0.1316 -0.0324
  198loPI   PO4 3156   1.409  14.183  10.761  0.2029 -0.0158  0.1679
  198loPI   GL1 3157   1.269  14.395  10.455 -0.0112 -0.0847  0.0823
  198loPI   GL2 3158   1.380  14.725  10.272 -0.1643  0.0396 -0.2339
  198loPI   C1A 3159   1.251  14.214  10.036 -0.0198  0.0011  0.2151
  198loPI   C2A 3160   1.168  14.359   9.764 -0.2364  0.0994 -0.1846
  198loPI   C3A 3161   1.043  14.358   9.351 -0.1677  0.1664  0.1623
  198loPI   C4A 3162   1.226  14.401   8.979 -0.0528 -0.0212 -0.0773
  198loPI   C5A 3163   1.086  14.267   8.555  0.2259 -0.0361 -0.3236
  198loPI   C6A 3164   0.863  14.070   8.159  0.0035 -0.2434  0.0598
  198loPI   C1B 3165   1.481  14.708   9.920 -0.1421  0.0603  0.0398
  198loPI   C2B 3166   1.445  14.666   9.468  0.4332  0.0870  0.2432
  198loPI   C3B 3167   1.591  14.741   9.067  0.1763  0.2436 -0.0740
  198loPI   C4B 3168   1.439  14.709   8.705  0.2524 -0.3158 -0.3677
  199loPI    C1 3169  10.105   3.493  11.277  0.2287 -0.0848 -0.0485
  199loPI    C2 3170  10.287   3.842  11.349  0.1309 -0.0228 -0.1007
  199loPI    C3 3171  10.258   3.568  11.639  0.0297  0.0937  0.0003
  199loPI   PO4 3172  10.122   3.402  11.069 -0.0302 -0.0106 -0.1927
  199loPI   GL1 3173   9.945   3.325  10.649 -0.0286 -0.0979 -0.0354
  199loPI   GL2 3174  10.077   3.028  10.394  0.1579  0.2065 -0.4798
  199loPI   C1A 3175   9.692   3.330  10.310 -0.0879  0.0788 -0.3415
  199loPI   C2A 3176   9.817   3.081   9.935  0.1956  0.0206  0.2599
  199loPI   C3A 3177   9.937   3.016   9.584 -0.1471  0.0499  0.1106
  199loPI   C4A 3178   9.894   3.045   9.125  0.2335 -0.1294 -0.0879
  199loPI   C5A 3179   9.824   2.974   8.738 -0.1214 -0.0081 -0.0659
  199loPI   C6A 3180   9.858   2.868   8.321  0.1035  0.1312  0.0090
  199loPI   C1B 3181  10.330   2.996  10.005  0.0565  0.2140  0.0318
  199loPI   C2B 3182  10.415   2.856   9.525  0.3675  0.0096 -0.0482
  199loPI   C3B 3183  10.426   2.845   9.078  0.0504 -0.2699 -0.0961
  199loPI   C4B 3184  10.310   2.988   8.628 -0.0191  0.1266 -0.0984
  200loPI    C1 3185   1.044  11.579  11.173 -0.0196 -0.2594  0.0841
  200loPI    C2 3186   0.675  11.433  11.226 -0.0609 -0.3202 -0.3343
  200loPI    C3 3187   0.972  11.320  11.469 -0.3854  0.0042  0.2328
  200loPI   PO4 3188   1.021  11.487  10.826  0.0806 -0.3702 -0.2328
  200loPI   GL1 3189   1.012  11.714  10.474  0.0272  0.3295  0.1686
  200loPI   GL2 3190   0.730  11.617  10.401 -0.1372 -0.2316 -0.0106
  200loPI   C1A 3191   0.992  11.955  10.138  0.0608  0.1798 -0.1472
  200loPI   C2A 3192   1.109  12.024   9.786  0.2092 -0.4433 -0.1028
  200loPI   C3A 3193   1.043  11.962   9.387  0.1112  0.2503 -0.2519
  200loPI   C4A 3194   0.925  12.055   9.008 -0.1124  0.2487 -0.3198
  200loPI   C5A 3195   0.920  11.752   8.679 -0.0086 -0.2696  0.0368
  200loPI   C6A 3196   1.348  11.460   8.610  0.3168  0.0377  0.2452
  200loPI   C1B 3197   0.839  11.496   9.913 -0.0318 -0.0573 -0.1066
  200loPI   C2B 3198   0.684  11.561   9.462 -0.0517  0.0149 -0.0346
  200loPI   C3B 3199   0.572  11.553   8.979  0.0564  0.2384 -0.0046
  200loPI   C4B 3200   0.468  11.803   8.542  0.5067 -0.0702  0.3507
  201loPI    C1 3201   6.252   8.386  10.873  0.0246  0.0963 -0.1180
  201loPI    C2 3202   6.350   8.710  11.085 -0.0690  0.1162 -0.1047
  201loPI    C3 3203   6.157   8.407  11.260  0.0494  0.0376 -0.1085
  201loPI   PO4 3204   6.139   8.503  10.650 -0.0578  0.2539  0.2882
  201loPI   GL1 3205   6.287   8.697  10.284  0.0558 -0.0956 -0.0943
  201loPI   GL2 3206   6.600   8.562  10.249  0.1623 -0.0742  0.0697
  201loPI   C1A 3207   6.146   8.797   9.823  0.1943  0.0996 -0.0451
  201loPI   C2A 3208   6.098   8.693   9.329  0.0116 -0.1940 -0.1253
  201loPI   C3A 3209   5.980   8.792   8.881 -0.0322  0.1076  0.1826
  201loPI   C4A 3210   6.071   8.645   8.470  0.0795  0.0699 -0.2671
  201loPI   C5A 3211   5.892   8.424   8.123 -0.0915  0.2349 -0.0675
  201loPI   C6A 3212   5.786   8.004   8.218  0.2370  0.1895 -0.0668
  201loPI   C1B 3213   6.694   8.632   9.843 -0.2241  0.0287 -0.0751
  201loPI   C2B 3214   6.656   8.761   9.417 -0.0644  0.3828  0.2620
  201loPI   C3B 3215   6.591   8.653   8.993 -0.1544  0.1897 -0.4301
  201loPI   C4B 3216   6.565   8.634   8.607  0.0995  0.0275  0.0087
  202loPI    C1 3217  15.825  16.815  11.400  0.2418  0.0696 -0.0832
  202loPI    C2 3218  16.114  17.054  11.539 -0.0219  0.2424  0.1799
  202loPI    C3 3219  15.805  16.956  11.774 -0.1131 -0.0466 -0.0545
  202loPI   PO4 3220  15.789  16.896  11.058  0.0434 -0.0641  0.3227
  202loPI   GL1 3221  15.906  17.048  10.613 -0.0741  0.0376 -0.0044
  202loPI   GL2 3222  15.664  17.169  10.381  0.2289 -0.0768 -0.2293
  202loPI   C1A 3223  16.109  17.034  10.214 -0.1467  0.0038  0.1797
  202loPI   C2A 3224  16.092  17.122   9.863 -0.0316  0.1835  0.1759
  202loPI   C3A 3225  16.161  17.051   9.415  0.2106  0.1697 -0.1437
  202loPI   C4A 3226  16.186  17.080   8.947  0.3269  0.0271  0.2727
  202loPI   C5A 3227  16.076  17.305   8.630 -0.2435 -0.2611  0.0367
  202loPI   C6A 3228  15.940  17.447   8.177 -0.1079  0.1173  0.1138
  202loPI   C1B 3229  15.574  17.219  10.035  0.0707  0.0401  0.1817
  202loPI   C2B 3230  15.672  17.287   9.609  0.1038  0.2439 -0.3896
  202loPI   C3B 3231  15.742  17.260   9.180 -0.0449  0.1106  0.1150
  202loPI   C4B 3232  15.514  17.354   8.782  0.3070  0.1703  0.2028
  203loPI    C1 3233   2.809  14.067  11.059 -0.2898 -0.0657  0.0196
  203loPI    C2 3234   3.072  13.876  11.291 -0.0062  0.0001 -0.2416
  203loPI    C3 3235   2.871  14.190  11.434 -0.1767 -0.2400  0.0589
  203loPI   PO4 3236   2.915  14.055  10.846 -0.0360 -0.0322  0.1500
  203loPI   GL1 3237   2.893  14.137  10.303 -0.1750  0.0114 -0.0619
  203loPI   GL2 3238   3.258  13.994  10.166 -0.3651 -0.2731 -0.2855
  203loPI   C1A 3239   2.609  14.033   9.930 -0.1710 -0.0882  0.0687
  203loPI   C2A 3240   2.546  14.018   9.488  0.0130  0.1950  0.1218
  203loPI   C3A 3241   2.682  13.920   9.116  0.1068  0.0188  0.1010
  203loPI   C4A 3242   2.650  14.071   8.685 -0.0977 -0.4002  0.4030
  203loPI   C5A 3243   2.593  14.257   8.251 -0.2566  0.1786 -0.1428
  203loPI   C6A 3244   2.683  14.049   7.913  0.0548  0.0284 -0.0092
  203loPI   C1B 3245   3.153  13.998   9.667 -0.2040  0.3267  0.1081
  203loPI   C2B 3246   3.131  13.951   9.245 -0.3546  0.1098  0.5389
  203loPI   C3B 3247   3.108  13.887   8.798  0.0017 -0.2525 -0.0161
  203loPI   C4B 3248   2.962  13.848   8.361  0.1304 -0.2647  0.0849
  204loPI    C1 3249   3.993   9.939  10.690  0.1234 -0.1174 -0.2652
  204loPI    C2 3250   3.772  10.257  10.792  0.4761  0.0832 -0.1079
  204loPI    C3 3251   3.777   9.933  11.027  0.0057 -0.1015 -0.3400
  204loPI   PO4 3252   3.968   9.920  10.437  0.1331  0.1545 -0.1957
  204loPI   GL1 3253   3.923   9.971  10.158 -0.0218 -0.4935  0.0076
  204loPI   GL2 3254   3.971   9.637  10.009 -0.3022 -0.2248  0.0831
  204loPI   C1A 3255   3.743  10.103   9.814  0.1642 -0.1368  0.3135
  204loPI   C2A 3256   3.717  10.148   9.321 -0.0408  0.1703 -0.2730
  204loPI   C3A 3257   3.563  10.181   8.977  0.0261 -0.3865  0.0631
  204loPI   C4A 3258   3.561  10.079   8.517  0.0296  0.0462  0.0569
  204loPI   C5A 3259   3.570  10.353   8.256  0.1362 -0.0702  0.3015
  204loPI   C6A 3260   3.491  10.694   7.877  0.1659 -0.1285  0.1089
  204loPI   C1B 3261   3.879   9.646   9.513  0.1526  0.1480 -0.4047
  204loPI   C2B 3262   3.780   9.697   9.045 -0.0866  0.0604  0.1484
  204loPI   C3B 3263   3.720   9.547   8.570 -0.1963 -0.0169 -0.0999
  204loPI   C4B 3264   3.663   9.742   8.152 -0.1678 -0.0690  0.4209
  205loPI    C1 3265  16.412  14.360  11.139 -0.0030  0.1313  0.0389
  205loPI    C2 3266  16.502  14.003  11.294  0.1029  0.1288 -0.0273
  205loPI    C3 3267  16.150  14.173  11.376  0.0454  0.0022 -0.0083
  205loPI   PO4 3268  16.427  14.234  10.815  0.0453 -0.1225  0.0745
  205loPI   GL1 3269  16.190  14.333  10.443  0.2925  0.0121 -0.1251
  205loPI   GL2 3270  15.968  14.118  10.423  0.2715  0.1972 -0.0769
  205loPI   C1A 3271  16.137  14.285   9.886 -0.1483  0.0329  0.1154
  205loPI   C2A 3272  16.202  14.230   9.494  0.3130  0.0913 -0.2029
  205loPI   C3A 3273  16.265  14.422   9.132 -0.1743  0.2888 -0.4524
  205loPI   C4A 3274  16.233  14.330   8.661  0.0107  0.1240 -0.2347
  205loPI   C5A 3275  16.350  14.084   8.315 -0.1324  0.0579  0.3323
  205loPI   C6A 3276  16.588  13.806   7.930  0.1095 -0.2970 -0.0233
  205loPI   C1B 3277  15.824  13.936  10.020  0.1436  0.0283 -0.4158
  205loPI   C2B 3278  15.785  13.909   9.507 -0.1302 -0.1078 -0.0711
  205loPI   C3B 3279  15.949  14.015   9.130 -0.0482  0.2120  0.0419
  205loPI   C4B 3280  16.062  13.838   8.666  0.1625 -0.1996  0.0126
  206loPI    C1 3281   8.754   3.987  10.790 -0.0259 -0.2409 -0.0446
  206loPI    C2 3282   8.503   3.724  10.957 -0.1069 -0.1648 -0.0458
  206loPI    C3 3283   8.515   4.101  11.090  0.0678 -0.1894  0.0112
  206loPI   PO4 3284   8.650   3.991  10.512  0.0067  0.1723  0.1806
  206loPI   GL1 3285   8.765   4.163  10.193 -0.0319  0.1419  0.0735
  206loPI   GL2 3286   8.554   4.235   9.995  0.0418  0.0879  0.0498
  206loPI   C1A 3287   8.924   4.015   9.774  0.0678 -0.1492 -0.0036
  206loPI   C2A 3288   8.976   4.074   9.290 -0.0027  0.0221 -0.0036
  206loPI   C3A 3289   9.025   4.058   8.932 -0.1269 -0.1710  0.1750
  206loPI   C4A 3290   8.991   3.973   8.418 -0.0214 -0.1317  0.0538
  206loPI   C5A 3291   8.796   3.920   7.953  0.1190 -0.0860  0.0525
  206loPI   C6A 3292   8.981   4.027   7.564  0.0810 -0.3219  0.1273
  206loPI   C1B 3293   8.520   4.196   9.520 -0.1254  0.0545  0.4253
  206loPI   C2B 3294   8.417   4.234   9.080 -0.2226 -0.1635  0.3096
  206loPI   C3B 3295   8.584   4.238   8.642  0.0630 -0.0306 -0.2304
  206loPI   C4B 3296   8.649   4.321   8.261 -0.1797 -0.0788 -0.1662
  207loPI    C1 3297  17.869   1.403  11.483  0.1356  0.0004 -0.2784
  207loPI    C2 3298  18.107   1.547  11.771 -0.0699  0.0753 -0.1439
  207loPI    C3 3299  17.711   1.606  11.790 -0.1109 -0.1341 -0.3134
  207loPI   PO4 3300  18.027   1.430  11.213 -0.0530  0.0974  0.2348
  207loPI   GL1 3301  18.047   1.286  10.779 -0.1332 -0.3583 -0.1124
  207loPI   GL2 3302  18.300   1.369  10.508 -0.2590 -0.0543 -0.1403
  207loPI   C1A 3303  17.824   1.436  10.367 -0.1209  0.0491  0.1604
  207loPI   C2A 3304  17.764   1.505   9.948  0.4346 -0.0327 -0.0947
  207loPI   C3A 3305  17.720   1.578   9.475  0.2130  0.1055 -0.2862
  207loPI   C4A 3306  17.722   1.632   8.998  0.1711 -0.1610 -0.1188
  207loPI   C5A 3307  17.622   1.836   8.684 -0.1130  0.0937  0.0071
  207loPI   C6A 3308  17.494   2.254   8.463  0.1048  0.1166  0.0748
  207loPI   C1B 3309  18.249   1.324  10.093 -0.3353 -0.1647  0.3087
  207loPI   C2B 3310  18.183   1.421   9.667 -0.0566  0.0576  0.1284
  207loPI   C3B 3311  18.187   1.527   9.239  0.0698 -0.1109 -0.0709
  207loPI   C4B 3312  18.167   1.530   8.819  0.0845 -0.2477  0.1403
  208loPI    C1 3313  10.745  11.390  10.391  0.1350  0.0573 -0.2173
  208loPI    C2 3314  11.063  11.633  10.380  0.0839  0.1441  0.1182
  208loPI    C3 3315  10.928  11.496  10.731 -0.1805  0.0151 -0.0307
  208loPI   PO4 3316  10.777  11.176  10.283 -0.2669 -0.0385 -0.3687
  208loPI   GL1 3317  11.139  11.255  10.017 -0.0928 -0.0580 -0.0893
  208loPI   GL2 3318  10.838  11.406   9.891  0.2985  0.0802 -0.0827
  208loPI   C1A 3319  11.147  11.084   9.543 -0.0543 -0.1714 -0.1627
  208loPI   C2A 3320  11.094  11.055   9.105 -0.0040 -0.1015 -0.0837
  208loPI   C3A 3321  11.057  11.169   8.631 -0.1440  0.0674 -0.1154
  208loPI   C4A 3322  11.049  11.063   8.201  0.2476 -0.2023  0.2828
  208loPI   C5A 3323  11.332  11.148   7.833 -0.1786  0.2780 -0.0940
  208loPI   C6A 3324  11.625  10.996   7.971  0.3028 -0.3901 -0.0457
  208loPI   C1B 3325  10.899  11.624   9.505 -0.1232 -0.2055  0.0191
  208loPI   C2B 3326  11.026  11.599   9.132 -0.0333 -0.1388 -0.1071
  208loPI   C3B 3327  11.053  11.650   8.659  0.2611 -0.0461 -0.4141
  208loPI   C4B 3328  11.171  11.516   8.236 -0.2228 -0.1050  0.1854
  209loPI    C1 3329  11.596   4.335  11.279  0.0613  0.0949 -0.2747
  209loPI    C2 3330  11.971   4.305  11.415 -0.0555 -0.0468  0.0239
  209loPI    C3 3331  11.706   4.016  11.493 -0.2452  0.0829 -0.1305
  209loPI   PO4 3332  11.634   4.388  11.023 -0.3427  0.3462  0.2871
  209loPI   GL1 3333  11.502   4.292  10.532  0.1450  0.0873  0.0480
  209loPI   GL2 3334  11.761   4.064  10.606 -0.1092  0.1101  0.0121
  209loPI   C1A 3335  11.787   4.524  10.263 -0.2537 -0.4438  0.0410
  209loPI   C2A 3336  11.666   4.558   9.800  0.2161 -0.1202 -0.0672
  209loPI   C3A 3337  11.831   4.470   9.355  0.0480  0.1807 -0.2044
  209loPI   C4A 3338  11.746   4.482   8.927  0.4502  0.0395  0.2373
  209loPI   C5A 3339  11.805   4.271   8.603 -0.0710 -0.2243 -0.0725
  209loPI   C6A 3340  11.946   4.220   8.238  0.3471 -0.0354  0.3759
  209loPI   C1B 3341  11.777   4.040  10.164  0.1203  0.1252  0.0164
  209loPI   C2B 3342  11.942   3.919   9.835  0.2300  0.0978 -0.2077
  209loPI   C3B 3343  11.952   3.975   9.404 -0.1108  0.0202  0.0736
  209loPI   C4B 3344  11.941   3.915   9.009 -0.0894  0.2480  0.1386
  210loPI    C1 3345  12.090   3.471  11.016  0.2569  0.1241  0.0114
  210loPI    C2 3346  12.112   3.772  11.279  0.3168  0.1153  0.0166
  210loPI    C3 3347  12.015   3.404  11.403 -0.1872  0.2177 -0.0535
  210loPI   PO4 3348  12.066   3.680  10.777 -0.1150 -0.0818 -0.1327
  210loPI   GL1 3349  12.094   3.771  10.381 -0.0368  0.1295 -0.2273
  210loPI   GL2 3350  12.399   3.840  10.482 -0.0954 -0.1936  0.3094
  210loPI   C1A 3351  12.101   3.476  10.041 -0.1417 -0.2425 -0.1911
  210loPI   C2A 3352  12.153   3.481   9.664  0.0105  0.1802  0.1756
  210loPI   C3A 3353  12.212   3.515   9.210  0.1460 -0.1455  0.3552
  210loPI   C4A 3354  12.395   3.475   8.813 -0.2460  0.3252 -0.0503
  210loPI   C5A 3355  12.632   3.183   8.521 -0.0918  0.0235  0.0262
  210loPI   C6A 3356  12.534   2.745   8.283 -0.0287 -0.0045 -0.2807
  210loPI   C1B 3357  12.420   3.900  10.036 -0.0624 -0.2879 -0.1800
  210loPI   C2B 3358  12.455   3.856   9.632  0.0084 -0.2440  0.1550
  210loPI   C3B 3359  12.497   3.910   9.197  0.0092  0.1047 -0.2083
  210loPI   C4B 3360  12.623   3.934   8.840  0.4842 -0.1137 -0.0110
  211loPI    C1 3361  17.722   3.470  11.437  0.0543 -0.0727  0.1760
  211loPI    C2 3362  17.340   3.480  11.553 -0.0380  0.0836 -0.1304
  211loPI    C3 3363  17.628   3.597  11.804 -0.1754 -0.1732  0.1531
  211loPI   PO4 3364  17.659   3.632  11.197  0.0559 -0.3253 -0.2374
  211loPI   GL1 3365  17.600   3.589  10.886  0.0875 -0.0428  0.0805
  211loPI   GL2 3366  17.532   3.331  10.668  0.1444  0.0309 -0.0508
  211loPI   C1A 3367  17.834   3.755  10.582 -0.1332 -0.0200 -0.0508
  211loPI   C2A 3368  17.912   3.842  10.154  0.3224  0.3950 -0.1849
  211loPI   C3A 3369  17.970   3.813   9.707  0.1279 -0.2584 -0.1199
  211loPI   C4A 3370  17.819   3.871   9.354 -0.5202  0.0082  0.1619
  211loPI   C5A 3371  17.900   3.942   9.043 -0.0162 -0.1306 -0.1190
  211loPI   C6A 3372  18.000   4.060   8.627  0.0383  0.0538 -0.2568
  211loPI   C1B 3373  17.392   3.333  10.326  0.0543 -0.1374  0.2256
  211loPI   C2B 3374  17.407   3.327   9.923 -0.1675 -0.1154  0.1220
  211loPI   C3B 3375  17.537   3.458   9.544 -0.1653  0.1257  0.1739
  211loPI   C4B 3376  17.450   3.536   9.093 -0.0899  0.2160 -0.0422
  212loPI    C1 3377  12.510  15.464  10.799 -0.0649  0.3141 -0.0926
  212loPI    C2 3378  12.149  15.634  10.812 -0.2030  0.0068  0.2740
  212loPI    C3 3379  12.235  15.329  11.056  0.1911 -0.1512 -0.0517
  212loPI   PO4 3380  12.629  15.491  10.608  0.0186 -0.1190 -0.0338
  212loPI   GL1 3381  12.636  15.222  10.265 -0.0339 -0.1685  0.0193
  212loPI   GL2 3382  12.635  15.436   9.999  0.0966 -0.0808  0.3474
  212loPI   C1A 3383  12.962  15.019   9.988 -0.2710 -0.1164  0.0228
  212loPI   C2A 3384  13.027  14.809   9.651 -0.0323 -0.1609 -0.1477
  212loPI   C3A 3385  13.029  14.887   9.305 -0.1826 -0.0774  0.0221
  212loPI   C4A 3386  13.156  15.031   8.976  0.0388 -0.2972  0.2901
  212loPI   C5A 3387  13.309  14.956   8.602  0.2523 -0.0132  0.2073
  212loPI   C6A 3388  13.194  15.084   8.250  0.4095 -0.1685 -0.2242
  212loPI   C1B 3389  12.866  15.316   9.653  0.2191  0.1649 -0.0025
  212loPI   C2B 3390  12.908  15.413   9.192 -0.0086 -0.2068 -0.1245
  212loPI   C3B 3391  12.859  15.484   8.866 -0.3023  0.0939  0.1302
  212loPI   C4B 3392  13.084  15.540   8.506 -0.1516  0.0467 -0.0852
  213loPI    C1 3393  11.937  10.118  10.844 -0.2058 -0.0884 -0.1291
  213loPI    C2 3394  11.684  10.248  11.125  0.0306  0.3620 -0.1137
  213loPI    C3 3395  11.714   9.856  11.047 -0.3102  0.2632  0.2213
  213loPI   PO4 3396  11.858  10.287  10.618  0.3753 -0.1914  0.4115
  213loPI   GL1 3397  11.906  10.042  10.245  0.0296 -0.2151  0.2887
  213loPI   GL2 3398  12.126   9.871  10.437 -0.2505 -0.1778 -0.0455
  213loPI   C1A 3399  12.019   9.862   9.800 -0.1406  0.0973 -0.2184
  213loPI   C2A 3400  12.001   9.815   9.395 -0.0174  0.2162  0.0955
  213loPI   C3A 3401  11.927   9.706   8.897 -0.2437 -0.0679  0.3376
  213loPI   C4A 3402  11.965   9.639   8.488 -0.1224  0.3492  0.2426
  213loPI   C5A 3403  12.055   9.375   8.174  0.1959  0.0774  0.1186
  213loPI   C6A 3404  12.394   9.231   8.155  0.2573 -0.0805  0.3936
  213loPI   C1B 3405  12.447   9.935  10.114 -0.0505 -0.0795 -0.1154
  213loPI   C2B 3406  12.481   9.748   9.733 -0.3008 -0.1443  0.1978
  213loPI   C3B 3407  12.468   9.672   9.251 -0.0843  0.0518  0.1495
  213loPI   C4B 3408  12.604   9.827   8.819  0.0581  0.0996 -0.0160
  214loPI    C1 3409   9.876   2.995  11.042 -0.1156  0.0805 -0.0939
  214loPI    C2 3410   9.857   3.016  11.441 -0.2319  0.0262 -0.0962
  214loPI    C3 3411   9.535   3.105  11.220 -0.1290  0.1862 -0.1839
  214loPI   PO4 3412  10.006   2.635  10.985  0.3012 -0.1697  0.0320
  214loPI   GL1 3413  10.141   2.481  10.572  0.2172  0.0775 -0.1615
  214loPI   GL2 3414  10.258   2.197  10.526 -0.3010  0.2863  0.0487
  214loPI   C1A 3415   9.925   2.619  10.160  0.2885 -0.1926 -0.1482
  214loPI   C2A 3416  10.033   2.538   9.698 -0.1476  0.1671  0.0814
  214loPI   C3A 3417  10.068   2.528   9.228 -0.0687  0.1351  0.0069
  214loPI   C4A 3418  10.198   2.505   8.761  0.0351  0.0926  0.0017
  214loPI   C5A 3419  10.368   2.515   8.355  0.2575  0.0759  0.2348
  214loPI   C6A 3420  10.541   2.347   7.986  0.2300  0.0383 -0.2445
  214loPI   C1B 3421  10.165   2.197  10.099  0.3341  0.0551  0.1462
  214loPI   C2B 3422  10.138   1.938   9.782 -0.1297  0.2341  0.1600
  214loPI   C3B 3423  10.265   1.937   9.313 -0.2377  0.2718  0.3864
  214loPI   C4B 3424  10.301   1.979   8.871  0.0007 -0.2963  0.0417
  215loPI    C1 3425   9.125  15.923  11.052 -0.2063 -0.0456 -0.2154
  215loPI    C2 3426   8.763  16.020  11.190 -0.1334 -0.2933  0.1671
  215loPI    C3 3427   9.090  16.152  11.379 -0.0181 -0.0283 -0.2057
  215loPI   PO4 3428   9.077  16.022  10.741  0.2009  0.2298 -0.1824
  215loPI   GL1 3429   9.160  16.085  10.291 -0.1018 -0.1251 -0.2330
  215loPI   GL2 3430   8.926  16.054  10.024 -0.0977 -0.2060  0.0887
  215loPI   C1A 3431   9.408  16.210   9.906  0.3351  0.3045  0.0552
  215loPI   C2A 3432   9.455  16.211   9.519  0.2085 -0.0812 -0.1682
  215loPI   C3A 3433   9.585  16.384   9.191 -0.1725  0.1704 -0.0665
  215loPI   C4A 3434   9.635  16.500   8.799  0.2679 -0.1037 -0.1424
  215loPI   C5A 3435   9.481  16.364   8.359 -0.3742  0.1394  0.1134
  215loPI   C6A 3436   9.244  16.289   7.967 -0.2771  0.0422 -0.3561
  215loPI   C1B 3437   8.979  16.021   9.661 -0.0992 -0.5485 -0.0127
  215loPI   C2B 3438   9.122  16.156   9.144 -0.2168 -0.0788 -0.0324
  215loPI   C3B 3439   9.313  16.059   8.763  0.4577 -0.1131 -0.1945
  215loPI   C4B 3440   9.312  15.870   8.272 -0.0749  0.1326 -0.0819
  216loPI    C1 3441  14.490   9.137  11.055  0.0756 -0.0395  0.0209
  216loPI    C2 3442  14.422   9.488  11.235  0.2858 -0.0298  0.0845
  216loPI    C3 3443  14.718   9.252  11.363  0.1871 -0.2018  0.0004
  216loPI   PO4 3444  14.396   9.203  10.818 -0.3909  0.0992  0.2293
  216loPI   GL1 3445  14.441   9.387  10.385 -0.1735 -0.0139  0.2820
  216loPI   GL2 3446  14.200   9.599  10.352 -0.0899 -0.0568 -0.5276
  216loPI   C1A 3447  14.620   9.141  10.078  0.2181 -0.0116 -0.1161
  216loPI   C2A 3448  14.788   8.989   9.713  0.0435  0.2123 -0.0695
  216loPI   C3A 3449  14.885   8.927   9.309  0.2824  0.0954  0.0810
  216loPI   C4A 3450  14.860   8.936   8.820  0.1768 -0.0570 -0.2719
  216loPI   C5A 3451  15.095   8.974   8.469  0.1095  0.1220 -0.2463
  216loPI   C6A 3452  15.272   9.004   8.105  0.1532  0.0482 -0.2383
  216loPI   C1B 3453  14.010   9.596   9.922  0.0463  0.0759  0.2253
  216loPI   C2B 3454  14.122   9.611   9.440 -0.2195  0.1578 -0.2109
  216loPI   C3B 3455  14.198   9.560   8.993 -0.3162 -0.1385  0.0896
  216loPI   C4B 3456  14.239   9.532   8.626  0.2548  0.1593 -0.1767
  217loPI    C1 3457   2.853  14.565  11.081  0.1215  0.1691 -0.3071
  217loPI    C2 3458   3.204  14.374  11.067 -0.0917 -0.2848  0.1594
  217loPI    C3 3459   3.121  14.618  11.373 -0.1609 -0.1256  0.0157
  217loPI   PO4 3460   2.815  14.560  10.725  0.2441  0.2862  0.2144
  217loPI   GL1 3461   2.977  14.666  10.248  0.1822  0.2955  0.1243
  217loPI   GL2 3462   2.846  14.865  10.261  0.1906  0.1819 -0.1020
  217loPI   C1A 3463   2.967  14.492   9.739 -0.3201  0.0966  0.0404
  217loPI   C2A 3464   3.030  14.467   9.254  0.2179 -0.0358  0.0572
  217loPI   C3A 3465   3.058  14.492   8.803  0.1904  0.1058 -0.0747
  217loPI   C4A 3466   3.051  14.331   8.453  0.0956 -0.1963 -0.0465
  217loPI   C5A 3467   3.369  14.005   8.184 -0.0651  0.0491 -0.1734
  217loPI   C6A 3468   3.585  13.872   7.781 -0.1215 -0.3810 -0.0224
  217loPI   C1B 3469   2.777  14.892   9.786  0.4047 -0.1217  0.0629
  217loPI   C2B 3470   2.778  14.954   9.439  0.1474  0.2306  0.0086
  217loPI   C3B 3471   2.895  14.917   8.988  0.2490  0.0124  0.0893
  217loPI   C4B 3472   2.780  14.917   8.594  0.2004  0.0984  0.0816
  218loPI    C1 3473  13.846  14.404  11.265  0.1470 -0.1775  0.1587
  218loPI    C2 3474  13.712  14.547  11.613  0.3471  0.1577  0.1022
  218loPI    C3 3475  13.950  14.772  11.383  0.1046 -0.0050 -0.3182
  218loPI   PO4 3476  13.664  14.337  11.055 -0.0211 -0.0849 -0.0474
  218loPI   GL1 3477  13.809  14.315  10.621 -0.2350 -0.0468  0.0372
  218loPI   GL2 3478  13.553  14.365  10.446 -0.1652 -0.0746 -0.2138
  218loPI   C1A 3479  14.131  14.141  10.289 -0.2119 -0.0014  0.0640
  218loPI   C2A 3480  14.354  14.230   9.943  0.2637  0.1316  0.0012
  218loPI   C3A 3481  14.303  14.179   9.444  0.2241 -0.0339 -0.0518
  218loPI   C4A 3482  14.365  14.287   9.078  0.2430  0.0982  0.2064
  218loPI   C5A 3483  14.573  14.310   8.580  0.2484 -0.0444  0.0591
  218loPI   C6A 3484  14.570  14.809   8.461  0.1220  0.0489 -0.0601
  218loPI   C1B 3485  13.703  14.219  10.097 -0.0888 -0.0061 -0.4290
  218loPI   C2B 3486  13.718  14.186   9.641 -0.0408  0.0513  0.0353
  218loPI   C3B 3487  13.814  14.300   9.282  0.2732  0.0579  0.1517
  218loPI   C4B 3488  13.903  14.374   8.824  0.1131  0.0587  0.1714
  219loPI    C1 3489  15.511  10.060  10.859  0.0033  0.1612  0.0209
  219loPI    C2 3490  15.621  10.186  11.222  0.1484 -0.1343  0.0827
  219loPI    C3 3491  15.398   9.856  11.183 -0.0349  0.0072 -0.0881
  219loPI   PO4 3492  15.720  10.038  10.674  0.1869 -0.0734  0.1470
  219loPI   GL1 3493  15.786   9.872  10.398  0.0255 -0.0563  0.1005
  219loPI   GL2 3494  16.076  10.181  10.299  0.1697  0.3664 -0.0913
  219loPI   C1A 3495  15.700  10.161   9.989 -0.3980  0.2709 -0.3328
  219loPI   C2A 3496  15.747  10.264   9.607  0.1133  0.2155  0.1628
  219loPI   C3A 3497  15.789  10.222   9.146 -0.4592  0.2933  0.0194
  219loPI   C4A 3498  15.946  10.123   8.851  0.0170 -0.1343  0.0907
  219loPI   C5A 3499  15.983  10.161   8.471 -0.1676  0.0787 -0.0664
  219loPI   C6A 3500  16.263  10.496   8.258  0.3602  0.4352  0.1062
  219loPI   C1B 3501  16.178  10.557  10.072  0.1724  0.3791 -0.3689
  219loPI   C2B 3502  16.116  10.634   9.686  0.4382 -0.0331 -0.1578
  219loPI   C3B 3503  16.093  10.555   9.252 -0.4187 -0.2676  0.0743
  219loPI   C4B 3504  16.295  10.499   8.786  0.3542  0.1285 -0.0640
  220loPI    C1 3505   2.083   7.330  10.957 -0.0889  0.1103  0.1515
  220loPI    C2 3506   2.336   7.598  11.112  0.1161  0.0185 -0.0195
  220loPI    C3 3507   2.150   7.337  11.351  0.2301  0.0471  0.1013
  220loPI   PO4 3508   2.251   7.320  10.721  0.0815  0.1132 -0.2888
  220loPI   GL1 3509   2.338   7.408  10.337  0.4869 -0.0277 -0.0424
  220loPI   GL2 3510   2.184   7.588  10.120  0.1273  0.0948  0.1566
  220loPI   C1A 3511   2.448   7.237   9.997 -0.1461 -0.0156 -0.2273
  220loPI   C2A 3512   2.390   7.117   9.532 -0.1406 -0.3797  0.0016
  220loPI   C3A 3513   2.288   7.085   8.986  0.0849  0.2770 -0.1258
  220loPI   C4A 3514   1.995   6.886   8.671  0.2340 -0.0105  0.0371
  220loPI   C5A 3515   1.841   6.727   8.286  0.0455 -0.2168 -0.1295
  220loPI   C6A 3516   1.779   6.293   8.155 -0.3471  0.2510 -0.3236
  220loPI   C1B 3517   2.268   7.712   9.730 -0.0889 -0.0104  0.1985
  220loPI   C2B 3518   2.136   7.564   9.302  0.4122 -0.3096 -0.1643
  220loPI   C3B 3519   2.049   7.603   8.909  0.1260 -0.0892 -0.1480
  220loPI   C4B 3520   2.201   7.719   8.519 -0.1289  0.0048 -0.2100
  221loPI    C1 3521  12.487  16.764  11.345  0.2293 -0.0888 -0.2232
  221loPI    C2 3522  12.096  16.691  11.387  0.2412 -0.0323 -0.0078
  221loPI    C3 3523  12.355  16.387  11.367  0.2039 -0.0667  0.0293
  221loPI   PO4 3524  12.399  16.970  11.143 -0.1198  0.0224 -0.0407
  221loPI   GL1 3525  12.445  16.782  10.659  0.1789 -0.0253  0.3279
  221loPI   GL2 3526  12.517  17.042  10.659 -0.2312  0.2515  0.2396
  221loPI   C1A 3527  12.306  16.852  10.190  0.1103  0.0417 -0.1662
  221loPI   C2A 3528  12.400  16.855   9.763 -0.4355 -0.0219 -0.0815
  221loPI   C3A 3529  12.377  16.855   9.362  0.1205  0.2261 -0.1722
  221loPI   C4A 3530  12.396  16.985   8.962  0.0489 -0.2774 -0.2222
  221loPI   C5A 3531  12.350  16.985   8.500  0.0958 -0.1021 -0.1721
  221loPI   C6A 3532  12.606  16.798   8.028  0.2123 -0.2362  0.2527
  221loPI   C1B 3533  12.699  17.175  10.280  0.1113 -0.0637 -0.2031
  221loPI   C2B 3534  12.677  17.291   9.806 -0.0855  0.0933 -0.1863
  221loPI   C3B 3535  12.711  17.178   9.337 -0.1727 -0.4832  0.2784
  221loPI   C4B 3536  12.790  17.382   9.005 -0.1463 -0.3408 -0.0513
  222loPI    C1 3537  13.822   6.251  11.450  0.1424 -0.3109 -0.0024
  222loPI    C2 3538  13.615   6.572  11.568  0.3020 -0.0857 -0.3202
  222loPI    C3 3539  13.809   6.349  11.837 -0.0073 -0.0588 -0.0688
  222loPI   PO4 3540  13.987   6.360  11.253 -0.2610  0.1941 -0.0362
  222loPI   GL1 3541  14.000   6.402  10.759  0.0120 -0.2937 -0.2023
  222loPI   GL2 3542  14.009   6.703  10.699 -0.0909 -0.0191  0.1715
  222loPI   C1A 3543  13.856   6.435  10.266 -0.0774 -0.0756  0.0050
  222loPI   C2A 3544  13.738   6.335   9.763  0.0107  0.1124 -0.2979
  222loPI   C3A 3545  13.950   6.327   9.282 -0.0476 -0.3239 -0.0186
  222loPI   C4A 3546  13.985   6.398   8.901 -0.0075 -0.0464 -0.0174
  222loPI   C5A 3547  14.175   6.578   8.518 -0.0898 -0.1475 -0.2557
  222loPI   C6A 3548  14.265   7.025   8.415  0.1504 -0.0730 -0.2093
  222loPI   C1B 3549  14.212   6.846  10.233  0.0809 -0.0560  0.0275
  222loPI   C2B 3550  14.235   6.634   9.872 -0.1890  0.0951  0.0628
  222loPI   C3B 3551  14.326   6.747   9.389  0.3091 -0.1121  0.1234
  222loPI   C4B 3552  14.360   6.883   8.909  0.0942  0.1766 -0.0477
  223loPI    C1 3553   0.168   0.155  11.248 -0.2901  0.0603  0.1264
  223loPI    C2 3554   0.112   0.399  11.561  0.1742 -0.1006  0.3440
  223loPI    C3 3555   0.414   0.136  11.563  0.4247  0.1530 -0.4011
  223loPI   PO4 3556  -0.139   0.190  11.134  0.4072  0.1288 -0.1754
  223loPI   GL1 3557  -0.288   0.057  10.623 -0.2269  0.1533 -0.1114
  223loPI   GL2 3558  -0.338  -0.259  10.470 -0.1374 -0.3437 -0.0194
  223loPI   C1A 3559  -0.409   0.116  10.185 -0.3563  0.4314  0.1408
  223loPI   C2A 3560  -0.342   0.179   9.705 -0.2004  0.0658 -0.1428
  223loPI   C3A 3561  -0.305   0.164   9.340 -0.0834 -0.0639 -0.1527
  223loPI   C4A 3562  -0.316   0.226   8.854 -0.2206  0.0382 -0.1372
  223loPI   C5A 3563  -0.205   0.258   8.393  0.0805  0.2357 -0.0043
  223loPI   C6A 3564  -0.422   0.326   7.900 -0.3399 -0.2916 -0.0860
  223loPI   C1B 3565  -0.284  -0.353  10.133 -0.2854 -0.0216 -0.0841
  223loPI   C2B 3566  -0.131  -0.358   9.649 -0.3130  0.0540 -0.1584
  223loPI   C3B 3567  -0.171  -0.273   9.129 -0.1212 -0.0916 -0.2105
  223loPI   C4B 3568  -0.281  -0.208   8.689  0.0631  0.0613  0.0850
  224loPI    C1 3569   8.802  12.127  10.188 -0.2141 -0.0235  0.1071
  224loPI    C2 3570   8.756  11.972  10.554 -0.2728 -0.1040  0.0660
  224loPI    C3 3571   8.984  12.296  10.501  0.0076 -0.2880  0.1252
  224loPI   PO4 3572   8.780  11.867   9.950 -0.0020  0.0072  0.3191
  224loPI   GL1 3573   8.983  11.636   9.625 -0.1220  0.0238 -0.0574
  224loPI   GL2 3574   9.077  11.887   9.577  0.0014  0.0438 -0.1839
  224loPI   C1A 3575   8.928  11.544   9.286 -0.2666 -0.1495  0.1405
  224loPI   C2A 3576   8.825  11.534   8.886 -0.1343 -0.1990 -0.2261
  224loPI   C3A 3577   8.730  11.775   8.533  0.0433  0.1619 -0.1550
  224loPI   C4A 3578   8.919  11.982   8.145 -0.1093 -0.0676 -0.3699
  224loPI   C5A 3579   8.849  12.340   7.836 -0.0632  0.1796  0.1570
  224loPI   C6A 3580   8.652  12.642   7.552 -0.7302 -0.3698  0.2313
  224loPI   C1B 3581   8.945  11.974   9.063  0.1822  0.0938  0.0425
  224loPI   C2B 3582   8.961  12.164   8.754 -0.1287  0.0834 -0.2710
  224loPI   C3B 3583   8.998  12.455   8.329 -0.0134 -0.0569 -0.2214
  224loPI   C4B 3584   8.751  12.699   8.099 -0.0125 -0.0637 -0.0127
  225loPI    C1 3585   3.106   8.853  10.780 -0.3289  0.1979 -0.0991
  225loPI    C2 3586   2.927   8.499  10.831  0.0529  0.0032 -0.0694
  225loPI    C3 3587   2.941   8.761  11.133  0.0128 -0.0698 -0.0036
  225loPI   PO4 3588   2.987   8.925  10.578  0.0600 -0.3178  0.0939
  225loPI   GL1 3589   2.721   8.795  10.328  0.1333 -0.0733  0.0049
  225loPI   GL2 3590   2.449   8.919  10.392 -0.2322  0.0044  0.0953
  225loPI   C1A 3591   2.756   8.947   9.967  0.1933 -0.0025  0.0292
  225loPI   C2A 3592   2.686   9.023   9.512  0.0079  0.2944 -0.1038
  225loPI   C3A 3593   2.715   8.954   9.108 -0.1029 -0.0554 -0.1237
  225loPI   C4A 3594   2.567   8.985   8.691 -0.0967  0.0016  0.2064
  225loPI   C5A 3595   2.413   9.027   8.297 -0.1138 -0.0209  0.2273
  225loPI   C6A 3596   2.458   9.350   7.957 -0.0334  0.0777  0.1319
  225loPI   C1B 3597   2.224   9.045   9.969 -0.0554  0.1559 -0.1234
  225loPI   C2B 3598   2.142   9.083   9.529  0.0883 -0.0079  0.2753
  225loPI   C3B 3599   2.098   9.009   9.116  0.1945  0.0499 -0.3223
  225loPI   C4B 3600   1.992   9.125   8.692 -0.0686  0.1853  0.0029
  226loPI    C1 3601   3.080  17.096  10.984 -0.1475  0.0493 -0.0423
  226loPI    C2 3602   2.750  17.204  11.183  0.0236 -0.1256  0.3463
  226loPI    C3 3603   3.101  17.374  11.271  0.0526  0.0129 -0.0204
  226loPI   PO4 3604   3.038  17.181  10.699 -0.1551 -0.2621 -0.2549
  226loPI   GL1 3605   3.410  17.275  10.468 -0.0732  0.0710 -0.2817
  226loPI   GL2 3606   3.585  17.080  10.302 -0.2270  0.2969 -0.1360
  226loPI   C1A 3607   3.318  17.506  10.120  0.0466 -0.0637  0.1114
  226loPI   C2A 3608   3.475  17.531   9.730  0.0906  0.0204  0.3700
  226loPI   C3A 3609   3.495  17.518   9.228  0.1475 -0.1286 -0.0658
  226loPI   C4A 3610   3.471  17.519   8.682  0.0671 -0.1938  0.0248
  226loPI   C5A 3611   3.271  17.469   8.297 -0.3358 -0.1933  0.3347
  226loPI   C6A 3612   3.168  17.272   7.939  0.0576 -0.1296  0.0913
  226loPI   C1B 3613   3.670  16.979   9.871 -0.2768 -0.3797  0.3768
  226loPI   C2B 3614   3.608  16.988   9.520  0.2977 -0.1890  0.2292
  226loPI   C3B 3615   3.556  17.089   9.014  0.1570 -0.1495 -0.1211
  226loPI   C4B 3616   3.586  16.990   8.661  0.1975  0.0618 -0.2313
  227loPI    C1 3617   1.185   0.915  11.168  0.1108 -0.0454 -0.0117
  227loPI    C2 3618   1.102   0.524  11.145  0.0315 -0.0221 -0.1282
  227loPI    C3 3619   1.095   0.710  11.500 -0.0628 -0.0976 -0.0899
  227loPI   PO4 3620   1.069   0.936  10.920  0.4210 -0.2095  0.1132
  227loPI   GL1 3621   0.977   1.056  10.519  0.1369  0.0072  0.0492
  227loPI   GL2 3622   0.782   0.816  10.397 -0.2980  0.0737  0.3174
  227loPI   C1A 3623   1.203   1.133  10.167 -0.0483 -0.1679 -0.1793
  227loPI   C2A 3624   1.206   1.165   9.716  0.0234  0.0821  0.1516
  227loPI   C3A 3625   1.222   1.233   9.326 -0.0944 -0.0866 -0.0899
  227loPI   C4A 3626   1.165   1.385   8.951  0.0109  0.3012 -0.0996
  227loPI   C5A 3627   1.449   1.390   8.591 -0.1784 -0.4201 -0.0623
  227loPI   C6A 3628   1.678   1.609   8.340 -0.2302 -0.0171  0.1144
  227loPI   C1B 3629   0.868   0.825   9.965  0.3518  0.2537  0.1798
  227loPI   C2B 3630   0.793   0.898   9.580  0.2046 -0.1675  0.1367
  227loPI   C3B 3631   0.876   0.930   9.070  0.1165  0.0475 -0.0801
  227loPI   C4B 3632   1.265   0.926   8.860 -0.0025 -0.1018  0.2012
  228loPI    C1 3633   7.962   8.819  10.374  0.1208  0.0917  0.0242
  228loPI    C2 3634   8.048   8.736  10.756 -0.1160  0.2973  0.1250
  228loPI    C3 3635   7.958   9.111  10.648  0.1542  0.2805 -0.1737
  228loPI   PO4 3636   7.822   8.627  10.234 -0.0081 -0.1480 -0.0461
  228loPI   GL1 3637   7.914   8.407   9.781 -0.2536  0.0895 -0.1210
  228loPI   GL2 3638   7.528   8.338   9.716  0.2145 -0.1609  0.2339
  228loPI   C1A 3639   8.056   8.459   9.423  0.1432  0.1514 -0.0006
  228loPI   C2A 3640   8.004   8.580   9.091  0.1400  0.3248  0.0439
  228loPI   C3A 3641   8.088   8.617   8.643 -0.2336 -0.2331 -0.0077
  228loPI   C4A 3642   8.213   8.709   8.252  0.1606 -0.0589  0.3774
  228loPI   C5A 3643   8.455   8.702   7.858 -0.2695 -0.0516  0.1131
  228loPI   C6A 3644   8.749   8.876   7.481 -0.2256  0.0450 -0.4506
  228loPI   C1B 3645   7.554   8.461   9.280 -0.3458  0.1168 -0.1093
  228loPI   C2B 3646   7.496   8.524   8.893 -0.2548  0.0350  0.0406
  228loPI   C3B 3647   7.499   8.622   8.413  0.2499 -0.2369  0.1131
  228loPI   C4B 3648   7.428   8.917   8.059  0.1055 -0.0038 -0.2240
  229loPI    C1 3649   0.764  15.495  11.059  0.1022  0.2074 -0.2316
  229loPI    C2 3650   0.607  15.722  11.350  0.1172  0.1005 -0.1395
  229loPI    C3 3651   0.705  15.341  11.424 -0.0850  0.0063 -0.3447
  229loPI   PO4 3652   0.608  15.519  10.859 -0.0717 -0.1279 -0.1746
  229loPI   GL1 3653   0.197  15.657  10.532 -0.0221  0.0840 -0.2347
  229loPI   GL2 3654   0.116  15.927  10.373 -0.1812 -0.1997  0.0116
  229loPI   C1A 3655   0.308  15.380  10.111 -0.1546 -0.1146 -0.0034
  229loPI   C2A 3656   0.261  15.339   9.628 -0.0924  0.0388 -0.4148
  229loPI   C3A 3657   0.251  15.333   9.159  0.1995 -0.0058 -0.1057
  229loPI   C4A 3658   0.313  15.345   8.840 -0.0140  0.3044  0.0829
  229loPI   C5A 3659   0.373  15.498   8.397 -0.2059 -0.0910  0.1303
  229loPI   C6A 3660   0.608  15.841   8.406  0.3791 -0.0977  0.0487
  229loPI   C1B 3661   0.098  15.766   9.975  0.1871 -0.3428 -0.1680
  229loPI   C2B 3662   0.098  15.779   9.604 -0.3437 -0.1493 -0.1257
  229loPI   C3B 3663   0.059  15.777   9.168  0.0136  0.0189 -0.0108
  229loPI   C4B 3664   0.056  15.736   8.714  0.0272  0.0706 -0.2193
  230loPI    C1 3665  12.734   1.106  11.417 -0.0214 -0.0343 -0.0588
  230loPI    C2 3666  12.606   1.459  11.555 -0.0099  0.0227 -0.1924
  230loPI    C3 3667  12.861   1.241  11.771  0.1842  0.2151 -0.2233
  230loPI   PO4 3668  12.779   1.105  11.176 -0.0332 -0.0720  0.2786
  230loPI   GL1 3669  12.858   1.300  10.883 -0.2970  0.0036  0.3801
  230loPI   GL2 3670  12.748   1.561  10.654  0.2185  0.1918 -0.1418
  230loPI   C1A 3671  12.930   1.105  10.573 -0.0884 -0.1075 -0.1220
  230loPI   C2A 3672  12.924   0.932  10.158 -0.1248 -0.0154 -0.3167
  230loPI   C3A 3673  12.913   0.929   9.724 -0.0556 -0.2175 -0.0537
  230loPI   C4A 3674  13.090   1.048   9.329  0.2208  0.1216 -0.1489
  230loPI   C5A 3675  13.173   1.065   8.894  0.0117 -0.1578  0.0278
  230loPI   C6A 3676  13.216   1.223   8.575  0.1187 -0.0571 -0.3005
  230loPI   C1B 3677  12.766   1.486  10.183 -0.2115 -0.4178 -0.0057
  230loPI   C2B 3678  12.857   1.406   9.716 -0.2788 -0.0887  0.1042
  230loPI   C3B 3679  12.869   1.464   9.353  0.2383 -0.2231 -0.1988
  230loPI   C4B 3680  12.894   1.594   8.854  0.3233 -0.1446 -0.1564
  231loPI    C1 3681  15.368  16.059  11.073 -0.0586  0.1041  0.0111
  231loPI    C2 3682  15.310  15.674  10.980 -0.6103  0.2621 -0.3489
  231loPI    C3 3683  15.149  15.826  11.313  0.1238  0.0503  0.1277
  231loPI   PO4 3684  15.302  16.198  10.870  0.4580  0.1076  0.2678
  231loPI   GL1 3685  15.388  16.367  10.462 -0.0622  0.2202  0.0486
  231loPI   GL2 3686  15.519  16.655  10.634  0.0509 -0.0453 -0.0131
  231loPI   C1A 3687  15.498  16.212   9.937 -0.2602 -0.0293 -0.0267
  231loPI   C2A 3688  15.612  16.238   9.569  0.1315 -0.0510  0.1649
  231loPI   C3A 3689  15.504  16.315   9.210 -0.0320  0.0192  0.3946
  231loPI   C4A 3690  15.632  16.309   8.782 -0.0520  0.1081 -0.3652
  231loPI   C5A 3691  15.593  16.078   8.348 -0.1462 -0.0520 -0.1298
  231loPI   C6A 3692  15.424  15.659   8.322 -0.0101 -0.0076 -0.3978
  231loPI   C1B 3693  15.818  16.623  10.320 -0.2348 -0.1568  0.1987
  231loPI   C2B 3694  15.793  16.703   9.945 -0.0216 -0.0716  0.3058
  231loPI   C3B 3695  15.836  16.679   9.573 -0.2346  0.1337  0.0852
  231loPI   C4B 3696  15.854  16.701   9.104 -0.0966 -0.0261  0.1786
  232loPI    C1 3697  16.169   4.237  11.175 -0.3708  0.0729  0.0226
  232loPI    C2 3698  16.455   4.447  11.360 -0.3050  0.1897 -0.2073
  232loPI    C3 3699  16.339   4.093  11.507 -0.0717  0.1607 -0.0890
  232loPI   PO4 3700  16.202   4.200  10.889 -0.1010  0.0557 -0.0266
  232loPI   GL1 3701  16.244   4.411  10.505  0.0125  0.2514  0.0391
  232loPI   GL2 3702  16.228   4.146  10.359 -0.1058  0.0865  0.0382
  232loPI   C1A 3703  16.058   4.579  10.124 -0.0534 -0.0801 -0.3472
  232loPI   C2A 3704  16.051   4.575   9.713 -0.0812 -0.3469 -0.2563
  232loPI   C3A 3705  16.127   4.654   9.324  0.0582  0.0733 -0.0552
  232loPI   C4A 3706  16.023   4.507   8.894  0.0743  0.0932 -0.2038
  232loPI   C5A 3707  15.832   4.630   8.485 -0.0451  0.2292 -0.2116
  232loPI   C6A 3708  15.854   4.841   8.113 -0.4664 -0.4984 -0.2124
  232loPI   C1B 3709  16.226   4.152   9.943 -0.0656  0.2050 -0.1374
  232loPI   C2B 3710  16.183   4.140   9.552  0.1516  0.1439 -0.0140
  232loPI   C3B 3711  16.289   4.138   9.097 -0.4344 -0.1025 -0.0771
  232loPI   C4B 3712  16.147   4.006   8.667  0.1496 -0.0563  0.1030
  233loPI    C1 3713  13.755  11.218  11.051  0.1647 -0.0937  0.1541
  233loPI    C2 3714  13.693  10.884  10.840  0.1240 -0.0146  0.0399
  233loPI    C3 3715  13.499  10.941  11.185  0.2433 -0.1761  0.1349
  233loPI   PO4 3716  13.933  11.306  10.894  0.2826  0.3362  0.1668
  233loPI   GL1 3717  13.883  11.218  10.515 -0.3346  0.4538 -0.1670
  233loPI   GL2 3718  14.176  11.328  10.413  0.0494 -0.1470  0.2299
  233loPI   C1A 3719  14.008  11.025  10.037  0.2144  0.2908 -0.1471
  233loPI   C2A 3720  14.081  10.938   9.582 -0.1180  0.0971  0.1199
  233loPI   C3A 3721  14.104  10.943   9.194 -0.0313  0.0927 -0.1156
  233loPI   C4A 3722  14.267  11.042   8.795  0.3623  0.1943  0.1422
  233loPI   C5A 3723  14.241  11.248   8.412  0.2496  0.2195 -0.1838
  233loPI   C6A 3724  14.060  11.667   8.300  0.1719  0.3669  0.2401
  233loPI   C1B 3725  14.372  11.444   9.998  0.2776 -0.0367 -0.0292
  233loPI   C2B 3726  14.413  11.308   9.489  0.1074  0.0227 -0.2240
  233loPI   C3B 3727  14.586  11.266   9.090 -0.0052  0.2161  0.1081
  233loPI   C4B 3728  14.476  11.547   8.723  0.0368 -0.2182  0.2781
  234loPI    C1 3729   7.111  10.500  10.338 -0.1074  0.2433  0.1484
  234loPI    C2 3730   6.970  10.241  10.609 -0.0049  0.0354  0.0061
  234loPI    C3 3731   7.183  10.559  10.727 -0.0667  0.0142  0.1773
  234loPI   PO4 3732   6.879  10.601  10.220 -0.2335  0.2377 -0.1080
  234loPI   GL1 3733   6.686  10.563   9.901  0.0646  0.4703  0.0366
  234loPI   GL2 3734   6.853  10.672   9.726  0.0720 -0.0044  0.0860
  234loPI   C1A 3735   6.354  10.701   9.643 -0.0254  0.0751  0.5900
  234loPI   C2A 3736   6.301  10.639   9.190  0.0567  0.4009  0.0096
  234loPI   C3A 3737   6.410  10.584   8.763 -0.1646 -0.0592  0.0332
  234loPI   C4A 3738   6.614  10.511   8.352  0.2279  0.0948  0.0875
  234loPI   C5A 3739   6.804  10.657   7.953 -0.1862  0.1885  0.1376
  234loPI   C6A 3740   6.751  10.726   7.372 -0.1415 -0.1205  0.0502
  234loPI   C1B 3741   6.791  10.528   9.272  0.1763 -0.0136  0.2018
  234loPI   C2B 3742   6.909  10.483   8.847  0.2281 -0.2061  0.1155
  234loPI   C3B 3743   7.338  10.458   8.622 -0.0912 -0.0389 -0.0643
  234loPI   C4B 3744   7.385  10.301   8.261 -0.1130  0.2878  0.2323
  235loPI    C1 3745   5.734  12.911  10.734  0.4230  0.1206 -0.0967
  235loPI    C2 3746   5.914  13.117  11.026 -0.0995 -0.1841  0.4628
  235loPI    C3 3747   5.754  12.758  11.103 -0.4591 -0.1681 -0.1448
  235loPI   PO4 3748   5.684  12.988  10.583  0.0014  0.0553 -0.0681
  235loPI   GL1 3749   5.564  12.829  10.239  0.0168 -0.0175  0.1788
  235loPI   GL2 3750   5.269  12.948  10.125  0.1729  0.4126 -0.0608
  235loPI   C1A 3751   5.559  12.546   9.864 -0.2907 -0.1704  0.2513
  235loPI   C2A 3752   5.661  12.498   9.423  0.0961  0.1317 -0.1036
  235loPI   C3A 3753   5.672  12.634   8.919  0.2540  0.0731 -0.6775
  235loPI   C4A 3754   5.630  12.604   8.501 -0.3237 -0.1739 -0.1827
  235loPI   C5A 3755   5.549  12.791   8.061  0.2686 -0.0942  0.1254
  235loPI   C6A 3756   5.247  12.712   7.647 -0.0789 -0.0116 -0.0357
  235loPI   C1B 3757   5.628  13.015   9.773  0.0468 -0.1066  0.1684
  235loPI   C2B 3758   5.517  12.978   9.315 -0.2249  0.0815  0.0589
  235loPI   C3B 3759   5.522  13.085   8.885 -0.1780  0.1192 -0.1778
  235loPI   C4B 3760   5.452  13.105   8.431 -0.1247  0.1334  0.0736
  236loPI    C1 3761  16.054  11.446  10.875  0.2109 -0.0645  0.1486
  236loPI    C2 3762  16.411  11.559  11.017  0.1935  0.0056  0.1376
  236loPI    C3 3763  16.088  11.571  11.253  0.1415  0.2391  0.0579
  236loPI   PO4 3764  16.112  11.529  10.655 -0.0394  0.0253 -0.1399
  236loPI   GL1 3765  16.090  11.817  10.327 -0.1545  0.1329  0.0089
  236loPI   GL2 3766  15.814  11.601  10.209  0.2870  0.1413 -0.0721
  236loPI   C1A 3767  16.090  11.992   9.850  0.0749 -0.0890 -0.4286
  236loPI   C2A 3768  16.060  11.954   9.504 -0.1231 -0.1470 -0.0616
  236loPI   C3A 3769  16.122  11.924   9.027 -0.2629 -0.0923  0.2133
  236loPI   C4A 3770  16.091  12.019   8.610 -0.2100 -0.0024 -0.1091
  236loPI   C5A 3771  16.011  12.401   8.318  0.0019 -0.0583  0.0873
  236loPI   C6A 3772  15.709  12.466   7.931  0.0962 -0.2468  0.1359
  236loPI   C1B 3773  15.769  11.557   9.771  0.1338 -0.1021  0.3316
  236loPI   C2B 3774  15.743  11.632   9.324  0.0352  0.2287  0.0237
  236loPI   C3B 3775  15.761  11.606   8.862  0.2299  0.2129  0.2504
  236loPI   C4B 3776  15.642  11.646   8.420  0.3358  0.3000 -0.2574
  237loPI    C1 3777   4.512  14.577  11.075 -0.1150  0.0703 -0.0597
  237loPI    C2 3778   4.570  14.312  11.369  0.0695 -0.1009 -0.2470
  237loPI    C3 3779   4.524  14.700  11.456  0.1038 -0.1516  0.0077
  237loPI   PO4 3780   4.732  14.419  10.851  0.2256 -0.1529  0.0913
  237loPI   GL1 3781   4.801  14.576  10.436 -0.1609  0.1019 -0.1792
  237loPI   GL2 3782   4.545  14.584  10.151 -0.1823 -0.0808 -0.0568
  237loPI   C1A 3783   4.975  14.520  10.078 -0.0794  0.4381 -0.0961
  237loPI   C2A 3784   4.946  14.441   9.647 -0.0259 -0.1083  0.0083
  237loPI   C3A 3785   5.021  14.431   9.197 -0.1910 -0.0890  0.1403
  237loPI   C4A 3786   4.907  14.454   8.704  0.2465 -0.3206 -0.0182
  237loPI   C5A 3787   4.988  14.641   8.355 -0.1706  0.1320  0.0746
  237loPI   C6A 3788   5.027  14.980   8.034  0.1758 -0.0079  0.1374
  237loPI   C1B 3789   4.387  14.563   9.705 -0.2224  0.0245  0.2341
  237loPI   C2B 3790   4.343  14.550   9.241  0.0531 -0.2169 -0.1744
  237loPI   C3B 3791   4.444  14.601   8.785  0.0043  0.2275 -0.0203
  237loPI   C4B 3792   4.458  14.739   8.392 -0.6286 -0.3116  0.2668
  238loPI    C1 3793  11.663   8.062  10.822  0.0277 -0.0278  0.0882
  238loPI    C2 3794  11.869   8.293  11.075 -0.0952  0.0252  0.1406
  238loPI    C3 3795  11.487   8.202  11.153 -0.1240  0.0159 -0.0100
  238loPI   PO4 3796  11.778   8.189  10.534 -0.1654  0.2767 -0.2796
  238loPI   GL1 3797  12.029   8.280  10.180  0.1558 -0.0860 -0.2030
  238loPI   GL2 3798  12.385   8.317  10.131 -0.1516  0.2406 -0.0814
  238loPI   C1A 3799  12.068   8.402   9.679  0.4477  0.1724 -0.2298
  238loPI   C2A 3800  12.153   8.356   9.203  0.1575 -0.1085 -0.1037
  238loPI   C3A 3801  12.031   8.518   8.875  0.1197 -0.0944  0.0193
  238loPI   C4A 3802  11.810   8.596   8.571 -0.1713  0.0965 -0.0072
  238loPI   C5A 3803  11.588   8.532   8.178 -0.0507 -0.0886 -0.0320
  238loPI   C6A 3804  11.513   8.328   7.747 -0.0614 -0.1292 -0.0078
  238loPI   C1B 3805  12.536   8.314   9.704  0.1322 -0.0786 -0.0265
  238loPI   C2B 3806  12.642   8.364   9.199 -0.0266  0.2192  0.0773
  238loPI   C3B 3807  12.593   8.474   8.772  0.0695  0.0570  0.0240
  238loPI   C4B 3808  12.301   8.416   8.452 -0.0493  0.0714 -0.0971
  239loPI    C1 3809  11.245   1.298  11.212  0.0312  0.2129 -0.0842
  239loPI    C2 3810  11.475   1.080  11.456 -0.0703  0.1319 -0.0603
  239loPI    C3 3811  11.444   1.475  11.511  0.1026  0.1512 -0.0949
  239loPI   PO4 3812  11.250   1.314  10.925  0.1315  0.1582 -0.1411
  239loPI   GL1 3813  11.234   1.132  10.511  0.0638  0.0376 -0.0525
  239loPI   GL2 3814  10.913   1.367  10.540 -0.2730 -0.0580  0.2001
  239loPI   C1A 3815  11.435   1.209  10.203  0.0155 -0.1101 -0.1304
  239loPI   C2A 3816  11.445   1.277   9.853  0.2114  0.1305  0.3791
  239loPI   C3A 3817  11.467   1.385   9.423  0.0585  0.1472 -0.2699
  239loPI   C4A 3818  11.480   1.363   8.968  0.0489  0.1011 -0.1113
  239loPI   C5A 3819  11.522   1.265   8.546  0.1462 -0.2311 -0.0943
  239loPI   C6A 3820  11.807   1.336   8.255  0.0050 -0.3358 -0.0590
  239loPI   C1B 3821  10.955   1.275  10.100  0.3034 -0.3965  0.3017
  239loPI   C2B 3822  11.032   1.399   9.621 -0.0790  0.3134  0.0007
  239loPI   C3B 3823  11.055   1.447   9.159 -0.0166  0.0245  0.1542
  239loPI   C4B 3824  11.090   1.535   8.628 -0.3345  0.0740 -0.1952
  240loPI    C1 3825   1.833  17.008  11.032 -0.0570  0.0887  0.2069
  240loPI    C2 3826   2.220  17.096  11.082  0.0640 -0.2636 -0.0692
  240loPI    C3 3827   1.939  17.343  11.223  0.3870 -0.0023  0.1307
  240loPI   PO4 3828   1.874  16.994  10.719 -0.1425  0.2216 -0.0309
  240loPI   GL1 3829   1.744  17.157  10.425  0.1356  0.0930  0.0203
  240loPI   GL2 3830   1.875  17.353  10.270  0.2758  0.0899  0.0411
  240loPI   C1A 3831   1.523  17.003  10.042 -0.0476  0.0982  0.0123
  240loPI   C2A 3832   1.508  17.024   9.635 -0.2369  0.0018 -0.1797
  240loPI   C3A 3833   1.569  16.943   9.244 -0.1953  0.0932 -0.0300
  240loPI   C4A 3834   1.625  17.031   8.864  0.4041  0.2844  0.0669
  240loPI   C5A 3835   1.429  16.926   8.448 -0.0051  0.1368 -0.1240
  240loPI   C6A 3836   1.470  17.104   8.034 -0.0055  0.0981  0.1350
  240loPI   C1B 3837   1.901  17.348   9.755  0.1477  0.1783 -0.1825
  240loPI   C2B 3838   1.868  17.394   9.296  0.1314 -0.1574 -0.1183
  240loPI   C3B 3839   2.010  17.409   8.821 -0.0804 -0.1685 -0.2961
  240loPI   C4B 3840   1.860  17.197   8.432  0.1296 -0.2902  0.1833
  241loPI    C1 3841  15.840   0.416  11.522  0.2077 -0.1974 -0.1297
  241loPI    C2 3842  15.919   0.025  11.485 -0.2908 -0.3149 -0.0210
  241loPI    C3 3843  15.803   0.173  11.838  0.0321 -0.0377 -0.0260
  241loPI   PO4 3844  15.696   0.448  11.295 -0.1344  0.3993 -0.0852
  241loPI   GL1 3845  15.685   0.552  10.860  0.1700 -0.0190 -0.4826
  241loPI   GL2 3846  15.915   0.485  10.795 -0.0372  0.0373 -0.0366
  241loPI   C1A 3847  15.591   0.635  10.367  0.2886  0.2305 -0.1686
  241loPI   C2A 3848  15.576   0.609   9.988 -0.2285  0.2688  0.0122
  241loPI   C3A 3849  15.676   0.632   9.523 -0.0743 -0.1866 -0.0483
  241loPI   C4A 3850  15.704   0.665   9.129  0.3431 -0.1411  0.0039
  241loPI   C5A 3851  15.782   0.673   8.686 -0.2680  0.0815  0.0669
  241loPI   C6A 3852  15.837   0.899   8.359  0.1492 -0.0438 -0.0219
  241loPI   C1B 3853  16.081   0.441  10.333  0.0878 -0.0491 -0.0435
  241loPI   C2B 3854  16.171   0.368   9.985 -0.2011 -0.3225 -0.1272
  241loPI   C3B 3855  16.129   0.478   9.534 -0.0502  0.2262 -0.1023
  241loPI   C4B 3856  16.152   0.628   9.120 -0.1176  0.0574  0.2433
  242loPI    C1 3857   1.103  10.933  11.234 -0.0383 -0.1890  0.1794
  242loPI    C2 3858   1.025  10.546  11.169 -0.1581 -0.1552  0.1186
  242loPI    C3 3859   1.134  10.670  11.533  0.0251 -0.2686  0.1033
  242loPI   PO4 3860   0.971  11.049  11.030 -0.2938 -0.3243  0.2241
  242loPI   GL1 3861   0.865  11.048  10.535 -0.0665 -0.0192  0.2070
  242loPI   GL2 3862   1.241  11.168  10.504 -0.0234  0.3125  0.0856
  242loPI   C1A 3863   1.017  11.049  10.069 -0.2056 -0.2886  0.1409
  242loPI   C2A 3864   0.825  11.050   9.639 -0.1585 -0.1686  0.3254
  242loPI   C3A 3865   0.750  11.034   9.170  0.2133 -0.2967 -0.1916
  242loPI   C4A 3866   0.796  11.086   8.771 -0.0435  0.1941  0.1535
  242loPI   C5A 3867   0.884  10.771   8.379 -0.2157  0.1284 -0.1024
  242loPI   C6A 3868   1.106  10.394   8.455  0.2454  0.1594  0.0027
  242loPI   C1B 3869   1.299  11.465  10.146 -0.0031  0.3224 -0.1454
  242loPI   C2B 3870   1.370  11.488   9.776  0.0586 -0.2720  0.2494
  242loPI   C3B 3871   1.277  11.404   9.330 -0.3714  0.0203 -0.1534
  242loPI   C4B 3872   1.049  11.406   8.969 -0.0679  0.1894  0.1831
  243loPI    C1 3873   4.999  17.172  10.931  0.0203  0.1603  0.0330
  243loPI    C2 3874   4.666  17.041  11.112  0.0396  0.0225 -0.0303
  243loPI    C3 3875   5.019  17.012  11.298  0.0209  0.1398  0.0240
  243loPI   PO4 3876   4.835  17.221  10.656  0.0998  0.1296 -0.2356
  243loPI   GL1 3877   4.575  17.074  10.312  0.1980 -0.1195  0.1081
  243loPI   GL2 3878   4.759  16.813  10.282  0.2600  0.0175 -0.0959
  243loPI   C1A 3879   4.543  17.355  10.010 -0.0007  0.0005  0.1275
  243loPI   C2A 3880   4.475  17.301   9.487  0.1530  0.2322 -0.3849
  243loPI   C3A 3881   4.528  17.298   9.034 -0.0631 -0.0800  0.1058
  243loPI   C4A 3882   4.532  17.348   8.585 -0.2752  0.2226  0.0795
  243loPI   C5A 3883   4.685  17.307   8.184 -0.1972  0.0873 -0.1450
  243loPI   C6A 3884   4.728  17.502   7.778  0.0206 -0.0121  0.1299
  243loPI   C1B 3885   4.763  16.948   9.768 -0.0549 -0.1263 -0.0155
  243loPI   C2B 3886   4.738  16.825   9.251 -0.1909  0.2688 -0.0145
  243loPI   C3B 3887   4.639  16.831   8.772  0.1417  0.0009 -0.3055
  243loPI   C4B 3888   4.572  16.876   8.347 -0.0461 -0.1645 -0.0292
  244loPI    C1 3889  10.215  13.687  10.314 -0.1360  0.0799 -0.1401
  244loPI    C2 3890  10.256  14.036  10.505  0.2940 -0.0199 -0.0403
  244loPI    C3 3891  10.293  13.693  10.707 -0.0833 -0.1274 -0.1465
  244loPI   PO4 3892  10.090  13.703  10.161  0.0269 -0.0239  0.2053
  244loPI   GL1 3893  10.078  13.538   9.810  0.0890  0.2378  0.1024
  244loPI   GL2 3894  10.220  13.856   9.708  0.1917 -0.1655  0.0791
  244loPI   C1A 3895  10.307  13.492   9.372  0.1759  0.0527  0.2786
  244loPI   C2A 3896  10.648  13.571   8.964 -0.0252 -0.1580 -0.0144
  244loPI   C3A 3897  10.535  13.447   8.539  0.0093 -0.1930  0.0755
  244loPI   C4A 3898  10.730  13.220   8.262  0.2687 -0.0039  0.1776
  244loPI   C5A 3899  11.096  13.133   8.055 -0.2323  0.0291 -0.2825
  244loPI   C6A 3900  11.460  13.171   7.770  0.0190  0.1858  0.0770
  244loPI   C1B 3901  10.233  13.982   9.310 -0.2610  0.0316 -0.0343
  244loPI   C2B 3902  10.192  13.886   8.868  0.3056  0.0169  0.0229
  244loPI   C3B 3903  10.427  13.930   8.536 -0.0878 -0.0122  0.0237
  244loPI   C4B 3904  10.613  13.814   8.203  0.0096  0.0872 -0.0725
  245loPI    C1 3905   0.212   2.839  11.538  0.0482  0.1692  0.0135
  245loPI    C2 3906  -0.070   3.079  11.687 -0.1885 -0.1231  0.0453
  245loPI    C3 3907   0.246   2.981  11.911 -0.1220  0.1048  0.0544
  245loPI   PO4 3908   0.275   2.913  11.346  0.1628  0.2939 -0.1136
  245loPI   GL1 3909   0.329   3.045  10.938 -0.1663  0.3982 -0.0256
  245loPI   GL2 3910   0.451   3.174  10.670 -0.1253  0.0104  0.0317
  245loPI   C1A 3911   0.252   2.681  10.575  0.0096  0.0270  0.0645
  245loPI   C2A 3912   0.146   2.803  10.180 -0.2022  0.0413  0.0812
  245loPI   C3A 3913   0.188   2.794   9.710 -0.2651 -0.0290  0.0327
  245loPI   C4A 3914   0.102   2.842   9.261  0.2408 -0.1257  0.0644
  245loPI   C5A 3915  -0.116   2.985   8.826 -0.5456 -0.1102 -0.2556
  245loPI   C6A 3916  -0.254   3.413   8.778  0.0570  0.0255  0.0584
  245loPI   C1B 3917   0.547   3.137  10.183  0.0927 -0.1469 -0.1776
  245loPI   C2B 3918   0.541   3.119   9.837 -0.1995 -0.3234  0.2949
  245loPI   C3B 3919   0.557   3.258   9.388  0.1775  0.1048  0.2616
  245loPI   C4B 3920   0.422   3.358   8.975 -0.1965 -0.4071  0.1352
  246loPI    C1 3921   4.625   3.919  10.940 -0.3139  0.0047 -0.1547
  246loPI    C2 3922   4.238   3.819  10.948 -0.3248  0.0543 -0.0365
  246loPI    C3 3923   4.516   3.538  10.889 -0.3809  0.0247 -0.1626
  246loPI   PO4 3924   4.662   4.062  10.716 -0.2762 -0.3028  0.0067
  246loPI   GL1 3925   5.054   3.893  10.431 -0.0379 -0.0812  0.0848
  246loPI   GL2 3926   4.785   3.741  10.369  0.1936  0.1885  0.0331
  246loPI   C1A 3927   5.149   4.044  10.021 -0.1690  0.1088  0.0690
  246loPI   C2A 3928   5.206   3.971   9.669 -0.0981  0.1280  0.1306
  246loPI   C3A 3929   5.093   3.992   9.249 -0.3275  0.3517  0.0596
  246loPI   C4A 3930   5.157   3.825   8.927 -0.0881  0.3183 -0.0544
  246loPI   C5A 3931   5.101   3.716   8.469 -0.1033 -0.0534  0.2351
  246loPI   C6A 3932   5.154   4.069   8.209 -0.1509  0.1136 -0.1685
  246loPI   C1B 3933   4.463   3.592  10.110  0.2940 -0.1196 -0.1637
  246loPI   C2B 3934   4.366   3.617   9.706  0.2898  0.3311  0.0775
  246loPI   C3B 3935   4.293   3.589   9.319 -0.0702  0.0301  0.0448
  246loPI   C4B 3936   4.313   3.418   8.983  0.0318  0.3725 -0.2567
  247loPI    C1 3937  10.055  10.084  10.432 -0.1638  0.1362  0.1148
  247loPI    C2 3938   9.745  10.233  10.638 -0.1657 -0.1536  0.3265
  247loPI    C3 3939   9.976   9.949  10.800  0.1043 -0.0686  0.0996
  247loPI   PO4 3940   9.960  10.045  10.170 -0.1353  0.0093  0.0135
  247loPI   GL1 3941  10.017   9.987   9.715  0.0254  0.1404  0.0915
  247loPI   GL2 3942  10.186  10.146   9.546  0.2028  0.0300 -0.0148
  247loPI   C1A 3943  10.089   9.707   9.322 -0.1665  0.2128  0.1968
  247loPI   C2A 3944   9.997   9.712   8.889 -0.0125 -0.0113  0.1928
  247loPI   C3A 3945  10.098   9.980   8.509  0.0512 -0.0153 -0.3382
  247loPI   C4A 3946  10.254  10.198   8.203 -0.2024 -0.3604  0.2531
  247loPI   C5A 3947  10.561  10.421   7.961  0.4448 -0.1178  0.2050
  247loPI   C6A 3948  10.774  10.774   7.811 -0.1209  0.0420 -0.1641
  247loPI   C1B 3949  10.179  10.186   9.114 -0.1490  0.0599 -0.0093
  247loPI   C2B 3950  10.127  10.440   8.692  0.1192  0.2087  0.5986
  247loPI   C3B 3951  10.048  10.640   8.209 -0.1623 -0.0489  0.1939
  247loPI   C4B 3952  10.097  10.516   7.768 -0.1669  0.1829  0.1934
  248loPI    C1 3953   3.033   9.286  11.142  0.1151  0.1337  0.1166
  248loPI    C2 3954   3.365   9.197  11.347  0.1992 -0.0434 -0.0922
  248loPI    C3 3955   3.005   9.110  11.500  0.2654 -0.2926 -0.0751
  248loPI   PO4 3956   3.203   9.351  10.876 -0.0577  0.2082 -0.1072
  248loPI   GL1 3957   3.242   9.392  10.387 -0.0680  0.1814 -0.2028
  248loPI   GL2 3958   3.103   9.672  10.417  0.0854  0.0278 -0.0597
  248loPI   C1A 3959   3.100   9.343  10.021  0.3535  0.1308  0.1384
  248loPI   C2A 3960   2.988   9.375   9.642 -0.0756 -0.0849  0.0744
  248loPI   C3A 3961   2.847   9.523   9.131 -0.1094  0.3534 -0.2260
  248loPI   C4A 3962   2.814   9.396   8.681 -0.0652 -0.1183 -0.0863
  248loPI   C5A 3963   2.472   9.608   8.423  0.0401  0.0106  0.3657
  248loPI   C6A 3964   2.387   9.901   8.132  0.2945 -0.4393  0.1698
  248loPI   C1B 3965   2.886   9.800  10.016 -0.0859 -0.0256 -0.0344
  248loPI   C2B 3966   2.787   9.928   9.589  0.0840 -0.2792 -0.0152
  248loPI   C3B 3967   2.689   9.969   9.115  0.2049  0.0835 -0.0163
  248loPI   C4B 3968   2.678   9.916   8.721 -0.0539  0.0436  0.0132
  249loPI    C1 3969   6.333  12.099  10.501  0.0118  0.0037  0.0146
  249loPI    C2 3970   6.616  12.217  10.758  0.2245 -0.3510 -0.0497
  249loPI    C3 3971   6.315  11.986  10.884 -0.0488  0.0355  0.0211
  249loPI   PO4 3972   6.440  12.037  10.293  0.2126  0.0580 -0.3038
  249loPI   GL1 3973   6.395  12.032   9.943 -0.0693  0.0462 -0.0895
  249loPI   GL2 3974   6.387  12.376   9.922 -0.1360  0.1519  0.2526
  249loPI   C1A 3975   6.426  12.005   9.457 -0.0967 -0.2708  0.2544
  249loPI   C2A 3976   6.252  12.001   9.070 -0.1499 -0.1730 -0.1350
  249loPI   C3A 3977   6.277  12.023   8.633  0.1944 -0.1337  0.0494
  249loPI   C4A 3978   6.199  12.009   8.175 -0.1004  0.1533 -0.2698
  249loPI   C5A 3979   5.970  12.159   7.817  0.1812  0.0943  0.3334
  249loPI   C6A 3980   5.615  12.356   7.819 -0.1251 -0.2054 -0.1393
  249loPI   C1B 3981   6.244  12.459   9.493  0.1998 -0.3050 -0.1424
  249loPI   C2B 3982   6.148  12.539   9.106  0.3733 -0.0046 -0.1150
  249loPI   C3B 3983   6.102  12.514   8.628 -0.2565 -0.0317 -0.3459
  249loPI   C4B 3984   6.003  12.511   8.165  0.0786  0.0828 -0.1721
  250loPI    C1 3985   5.324  10.884  10.953  0.0342  0.0544 -0.0204
  250loPI    C2 3986   5.416  10.502  11.029 -0.2078  0.0581  0.3122
  250loPI    C3 3987   5.696  10.786  11.064 -0.0761 -0.0632  0.2539
  250loPI   PO4 3988   5.169  10.866  10.630 -0.2728 -0.2265 -0.4283
  250loPI   GL1 3989   5.179  10.769  10.189 -0.0184 -0.0673  0.1596
  250loPI   GL2 3990   4.908  10.694  10.033  0.0438  0.2844  0.0694
  250loPI   C1A 3991   5.324  10.771   9.723 -0.1054 -0.2274 -0.2745
  250loPI   C2A 3992   5.252  10.789   9.260 -0.3935 -0.0636  0.0107
  250loPI   C3A 3993   5.293  10.778   8.780  0.0194  0.1942  0.0438
  250loPI   C4A 3994   5.290  10.820   8.388  0.0656  0.0671 -0.0525
  250loPI   C5A 3995   5.366  10.879   7.999  0.1911 -0.1886  0.1683
  250loPI   C6A 3996   5.167  11.013   7.695  0.2073  0.1487  0.0081
  250loPI   C1B 3997   4.845  10.721   9.525 -0.1724  0.0481  0.2386
  250loPI   C2B 3998   4.815  10.880   9.133 -0.0436 -0.0531 -0.0169
  250loPI   C3B 3999   4.854  10.960   8.727 -0.0794 -0.1391  0.1470
  250loPI   C4B 4000   4.776  10.792   8.398 -0.1483 -0.0746 -0.2333
  251loPI    C1 4001   4.348  12.211  10.661 -0.1102 -0.1054 -0.0367
  251loPI    C2 4002   4.526  11.867  10.559 -0.1772 -0.1691  0.0589
  251loPI    C3 4003   4.679  12.093  10.851 -0.0358 -0.0312 -0.1196
  251loPI   PO4 4004   4.308  12.311  10.459  0.1539 -0.0346  0.1406
  251loPI   GL1 4005   4.465  12.189  10.066  0.3233  0.0218 -0.1528
  251loPI   GL2 4006   4.755  12.067   9.868 -0.2971 -0.0773 -0.2262
  251loPI   C1A 4007   4.343  12.358   9.680 -0.5702  0.0246  0.0111
  251loPI   C2A 4008   4.206  12.310   9.312 -0.1956  0.1072  0.1164
  251loPI   C3A 4009   4.180  12.342   8.913 -0.0131  0.0755  0.0432
  251loPI   C4A 4010   4.120  12.339   8.507  0.0331  0.0110 -0.2914
  251loPI   C5A 4011   4.260  12.175   8.093  0.0059  0.0764 -0.2666
  251loPI   C6A 4012   4.497  11.973   7.828 -0.0100 -0.4243  0.2085
  251loPI   C1B 4013   4.807  12.292   9.572  0.4008 -0.0136  0.0792
  251loPI   C2B 4014   4.680  12.254   9.125  0.3140 -0.0281 -0.1380
  251loPI   C3B 4015   4.639  12.232   8.690  0.0101  0.0331  0.1972
  251loPI   C4B 4016   4.704  12.307   8.315  0.0430 -0.0607  0.2890
  252loPI    C1 4017   2.264  12.135  11.193  0.1442  0.0666 -0.0190
  252loPI    C2 4018   2.201  12.149  11.587 -0.1660  0.2134 -0.0704
  252loPI    C3 4019   2.202  11.797  11.398 -0.0006  0.1412  0.0621
  252loPI   PO4 4020   2.129  12.324  11.123  0.0013 -0.2717  0.1033
  252loPI   GL1 4021   2.232  12.431  10.684  0.0658  0.2294 -0.5196
  252loPI   GL2 4022   2.349  12.165  10.573 -0.1342  0.0194 -0.3303
  252loPI   C1A 4023   1.955  12.286  10.287  0.3348  0.1500 -0.0945
  252loPI   C2A 4024   1.971  12.359   9.860 -0.0153  0.3241 -0.0481
  252loPI   C3A 4025   1.881  12.340   9.483  0.0301  0.2635 -0.2794
  252loPI   C4A 4026   1.837  12.392   8.944  0.3193 -0.1985  0.1453
  252loPI   C5A 4027   1.885  12.253   8.501  0.0905  0.2378  0.3667
  252loPI   C6A 4028   1.919  12.071   8.130  0.2739  0.1641  0.1465
  252loPI   C1B 4029   2.453  12.299  10.158 -0.1489 -0.2494 -0.0380
  252loPI   C2B 4030   2.419  12.268   9.692  0.2429 -0.0516  0.0960
  252loPI   C3B 4031   2.349  12.375   9.251 -0.1852 -0.2949  0.1859
  252loPI   C4B 4032   2.333  12.287   8.768  0.3212 -0.5152 -0.2259
  253loPI    C1 4033   5.282   7.160  10.809  0.1139  0.0922  0.0168
  253loPI    C2 4034   5.339   7.556  10.806 -0.3460  0.1625 -0.1465
  253loPI    C3 4035   5.252   7.369  11.148  0.0876  0.1651 -0.0300
  253loPI   PO4 4036   5.581   7.101  10.592 -0.3437  0.2866  0.0049
  253loPI   GL1 4037   5.580   7.048  10.126  0.0924  0.0241 -0.1543
  253loPI   GL2 4038   5.867   7.006  10.156  0.2970 -0.1018 -0.0748
  253loPI   C1A 4039   5.572   6.848   9.670  0.3090  0.0391  0.1068
  253loPI   C2A 4040   5.570   6.822   9.227  0.1341  0.2305  0.0642
  253loPI   C3A 4041   5.387   7.034   8.784  0.0761  0.3377  0.0068
  253loPI   C4A 4042   5.478   6.977   8.245 -0.2640  0.1967  0.2008
  253loPI   C5A 4043   5.180   6.615   8.008  0.0906  0.0559 -0.1193
  253loPI   C6A 4044   4.775   6.443   7.851  0.1297 -0.3315 -0.0257
  253loPI   C1B 4045   6.021   6.983   9.869  0.0845  0.0355  0.0283
  253loPI   C2B 4046   5.967   7.057   9.453 -0.3288  0.1230 -0.2193
  253loPI   C3B 4047   6.009   6.925   9.036  0.2572  0.0796 -0.2897
  253loPI   C4B 4048   5.874   6.856   8.609  0.0750  0.2579  0.2131
  254loPI    C1 4049  14.040   8.534  11.050 -0.2613  0.0468 -0.1838
  254loPI    C2 4050  14.352   8.638  11.277 -0.2954  0.2103 -0.2104
  254loPI    C3 4051  14.164   8.291  11.342 -0.0367  0.0563 -0.2700
  254loPI   PO4 4052  14.052   8.826  10.909 -0.2206 -0.1373  0.1161
  254loPI   GL1 4053  14.178   8.885  10.479 -0.0093  0.2849 -0.1896
  254loPI   GL2 4054  14.337   8.707  10.265  0.0849  0.2597  0.1659
  254loPI   C1A 4055  14.041   9.128  10.158 -0.2476 -0.0067 -0.0420
  254loPI   C2A 4056  14.235   9.068   9.746 -0.1759 -0.3003 -0.0834
  254loPI   C3A 4057  14.368   9.050   9.326 -0.0153 -0.1382  0.0793
  254loPI   C4A 4058  14.346   9.092   8.867 -0.0553 -0.2206 -0.1241
  254loPI   C5A 4059  14.531   8.981   8.473  0.0811  0.0442 -0.0458
  254loPI   C6A 4060  14.808   9.263   8.211  0.1485 -0.2694  0.1240
  254loPI   C1B 4061  14.578   8.513   9.890 -0.2875 -0.1753 -0.0777
  254loPI   C2B 4062  14.490   8.587   9.421 -0.2507 -0.0622  0.2174
  254loPI   C3B 4063  14.502   8.590   8.991 -0.2192  0.1282  0.1757
  254loPI   C4B 4064  14.617   8.484   8.593  0.1160  0.3152  0.0480
  255loPI    C1 4065  14.903   9.435  10.958  0.2802 -0.1053 -0.0348
  255loPI    C2 4066  15.039   9.800  10.865  0.1064  0.0364  0.2530
  255loPI    C3 4067  14.857   9.737  11.215 -0.0306 -0.2870  0.1283
  255loPI   PO4 4068  14.832   9.359  10.687  0.0155  0.3082  0.0655
  255loPI   GL1 4069  14.963   9.578  10.335 -0.1975  0.2451  0.0933
  255loPI   GL2 4070  15.261   9.528  10.464  0.0274 -0.2887  0.2165
  255loPI   C1A 4071  14.956   9.431   9.941 -0.2260 -0.0582 -0.0677
  255loPI   C2A 4072  15.198   9.353   9.418  0.1734 -0.0717 -0.2919
  255loPI   C3A 4073  15.162   9.298   9.016 -0.0806 -0.1072 -0.0652
  255loPI   C4A 4074  15.242   9.367   8.763 -0.0842 -0.1489 -0.1067
  255loPI   C5A 4075  15.450   9.484   8.300 -0.2764 -0.3708  0.1758
  255loPI   C6A 4076  15.718   9.752   8.316  0.2780  0.1073  0.1285
  255loPI   C1B 4077  15.319   9.817   9.996  0.0416  0.0763  0.1056
  255loPI   C2B 4078  15.456   9.794   9.546  0.0531 -0.1558 -0.3409
  255loPI   C3B 4079  15.465   9.752   9.148 -0.0693  0.1673  0.0079
  255loPI   C4B 4080  15.654   9.799   8.753 -0.1247 -0.2487  0.0828
  256loPI    C1 4081  12.264   6.072  11.030  0.2195  0.2177  0.0038
  256loPI    C2 4082  12.426   5.707  11.046 -0.0342  0.0970 -0.1135
  256loPI    C3 4083  12.361   5.912  11.383  0.0261 -0.0023 -0.0407
  256loPI   PO4 4084  12.067   6.166  10.745 -0.1055 -0.3020  0.0524
  256loPI   GL1 4085  12.283   6.463  10.386  0.0622  0.2003 -0.0357
  256loPI   GL2 4086  12.251   6.703  10.183  0.2449  0.0259 -0.1022
  256loPI   C1A 4087  12.205   6.271   9.976 -0.0580  0.0966  0.0571
  256loPI   C2A 4088  12.092   6.220   9.487 -0.3430  0.0333 -0.3304
  256loPI   C3A 4089  12.137   6.244   9.025  0.0522  0.0456  0.0227
  256loPI   C4A 4090  11.734   6.347   8.728  0.1261 -0.0766 -0.0433
  256loPI   C5A 4091  11.699   6.603   8.278 -0.0544 -0.0708 -0.0474
  256loPI   C6A 4092  11.246   6.734   8.219 -0.1685 -0.0479 -0.0488
  256loPI   C1B 4093  12.257   6.662   9.617 -0.1920 -0.2586 -0.2595
  256loPI   C2B 4094  12.372   6.708   9.213  0.0680 -0.1504 -0.0142
  256loPI   C3B 4095  12.388   6.623   8.853 -0.3213 -0.1971  0.0519
  256loPI   C4B 4096  12.088   6.673   8.531  0.2583  0.0965 -0.0953
  257loPI    C1 4097   3.721   7.560  10.591  0.2116  0.1162 -0.1850
  257loPI    C2 4098   3.467   7.857  10.506 -0.1526 -0.1325  0.0076
  257loPI    C3 4099   3.715   7.889  10.818 -0.2154 -0.0439  0.0490
  257loPI   PO4 4100   3.848   7.526  10.316 -0.3501 -0.2167 -0.0578
  257loPI   GL1 4101   4.040   7.529   9.865  0.0427  0.1540 -0.2827
  257loPI   GL2 4102   4.146   7.852   9.837 -0.2143 -0.1632 -0.1839
  257loPI   C1A 4103   4.242   7.238   9.591  0.0744  0.0820  0.0834
  257loPI   C2A 4104   4.206   7.224   9.174  0.0790  0.3640 -0.0670
  257loPI   C3A 4105   4.121   7.283   8.713 -0.2930  0.2498  0.1240
  257loPI   C4A 4106   4.206   7.178   8.354 -0.0409 -0.1977 -0.2388
  257loPI   C5A 4107   4.494   7.205   8.106  0.0612 -0.1565  0.2760
  257loPI   C6A 4108   4.599   6.926   7.863  0.2050 -0.0395 -0.0447
  257loPI   C1B 4109   4.083   7.751   9.406 -0.0391 -0.1229 -0.0033
  257loPI   C2B 4110   4.031   7.713   9.016 -0.3053  0.0010  0.0850
  257loPI   C3B 4111   3.998   7.747   8.614 -0.0169 -0.2786 -0.1172
  257loPI   C4B 4112   3.928   7.544   8.204 -0.1694 -0.1241 -0.1572
  258loPI    C1 4113   5.583   0.280  10.680 -0.0602  0.0734  0.1302
  258loPI    C2 4114   5.693   0.283  11.065 -0.1445 -0.2219  0.1593
  258loPI    C3 4115   5.970   0.254  10.778 -0.0766  0.0621  0.1929
  258loPI   PO4 4116   5.442   0.510  10.667 -0.2294 -0.0274  0.0742
  258loPI   GL1 4117   5.224   0.695  10.340 -0.4415 -0.0727 -0.3373
  258loPI   GL2 4118   4.879   0.648  10.371  0.1768  0.1134  0.0510
  258loPI   C1A 4119   5.411   0.653   9.933 -0.1141  0.3080 -0.3933
  258loPI   C2A 4120   5.449   0.602   9.519  0.0966  0.1188  0.2348
  258loPI   C3A 4121   5.489   0.465   9.140  0.3546 -0.1361  0.2744
  258loPI   C4A 4122   5.387   0.494   8.719 -0.0572 -0.2845 -0.0256
  258loPI   C5A 4123   5.334   0.462   8.298  0.1796  0.0157 -0.1426
  258loPI   C6A 4124   5.643   0.695   7.928  0.3775 -0.0398 -0.0058
  258loPI   C1B 4125   4.808   0.758   9.961 -0.0713  0.1279  0.1254
  258loPI   C2B 4126   4.991   0.703   9.473 -0.0996  0.3450  0.0405
  258loPI   C3B 4127   4.997   0.577   9.005  0.3286  0.2184  0.0636
  258loPI   C4B 4128   4.914   0.569   8.568  0.0263 -0.2766  0.1035
  259loPI    C1 4129  15.867   7.696  11.362  0.0078 -0.0010  0.0108
  259loPI    C2 4130  15.573   7.475  11.520  0.0310  0.0158  0.0779
  259loPI    C3 4131  15.526   7.871  11.479 -0.0233 -0.0058 -0.0725
  259loPI   PO4 4132  15.897   7.610  11.093  0.0905  0.1986 -0.1440
  259loPI   GL1 4133  16.023   7.600  10.597 -0.1364 -0.0853 -0.1788
  259loPI   GL2 4134  15.823   7.968  10.682 -0.0416 -0.0196  0.0390
  259loPI   C1A 4135  16.043   7.455  10.203 -0.5899  0.0690 -0.0053
  259loPI   C2A 4136  15.996   7.446   9.803  0.1299 -0.0506 -0.2684
  259loPI   C3A 4137  15.955   7.363   9.411  0.0110 -0.0185  0.0798
  259loPI   C4A 4138  15.918   7.218   8.968 -0.1240 -0.0186  0.3825
  259loPI   C5A 4139  15.823   7.027   8.538 -0.0849 -0.1519 -0.2158
  259loPI   C6A 4140  15.677   7.224   8.076  0.0865  0.0620  0.0418
  259loPI   C1B 4141  15.740   7.880  10.247  0.0406 -0.0650 -0.0315
  259loPI   C2B 4142  15.727   7.823   9.788 -0.3440  0.0258 -0.0924
  259loPI   C3B 4143  15.737   7.910   9.408  0.0985 -0.1781 -0.0764
  259loPI   C4B 4144  15.764   7.911   8.891 -0.1006  0.0276  0.3742
  260loPI    C1 4145  13.369   1.794  11.431  0.1138 -0.0059  0.0805
  260loPI    C2 4146  13.098   1.526  11.310  0.1320  0.0844 -0.1653
  260loPI    C3 4147  13.324   1.451  11.632 -0.0403 -0.0815 -0.0811
  260loPI   PO4 4148  13.609   1.791  11.187  0.1001 -0.1241 -0.0908
  260loPI   GL1 4149  13.441   1.470  10.862  0.1051  0.0711 -0.2544
  260loPI   GL2 4150  13.754   1.395  10.738  0.1961  0.1381 -0.1385
  260loPI   C1A 4151  13.306   1.390  10.461 -0.2720  0.0211  0.2528
  260loPI   C2A 4152  13.271   1.354   9.995 -0.2831  0.0073 -0.0464
  260loPI   C3A 4153  13.414   1.396   9.593  0.1660  0.1332 -0.2354
  260loPI   C4A 4154  13.428   1.434   9.164 -0.0923 -0.0697 -0.0802
  260loPI   C5A 4155  13.451   1.586   8.836  0.1749 -0.0062 -0.2001
  260loPI   C6A 4156  13.730   1.738   8.486  0.2009 -0.1676 -0.2375
  260loPI   C1B 4157  13.878   1.311  10.369  0.0829 -0.2643 -0.1283
  260loPI   C2B 4158  13.781   1.207  10.015  0.0085 -0.1879 -0.1201
  260loPI   C3B 4159  13.918   1.296   9.587  0.1564 -0.1389  0.0140
  260loPI   C4B 4160  13.929   1.170   9.228 -0.0367 -0.1807 -0.2055
  261loPI    C1 4161  10.962   5.374  10.959  0.0525 -0.1840  0.3226
  261loPI    C2 4162  10.619   5.285  11.145 -0.1255  0.0805  0.1280
  261loPI    C3 4163  10.679   5.653  10.999  0.1935  0.0027  0.0536
  261loPI   PO4 4164  11.028   5.178  10.824  0.3613 -0.1927  0.3153
  261loPI   GL1 4165  11.260   5.317  10.431 -0.0691 -0.0575 -0.0766
  261loPI   GL2 4166  10.946   5.181  10.254  0.2002  0.2573  0.2055
  261loPI   C1A 4167  11.413   5.205  10.042  0.2793 -0.0866  0.0272
  261loPI   C2A 4168  11.471   5.121   9.616  0.2991 -0.2495  0.3317
  261loPI   C3A 4169  11.547   4.887   9.286  0.1725 -0.0729 -0.0607
  261loPI   C4A 4170  11.452   4.971   8.819  0.0018  0.0135  0.0262
  261loPI   C5A 4171  11.135   4.898   8.528  0.1603  0.1906  0.0006
  261loPI   C6A 4172  10.837   5.086   8.198  0.3069  0.3343  0.0991
  261loPI   C1B 4173  10.914   4.900   9.960  0.3624  0.1840  0.1598
  261loPI   C2B 4174  10.674   4.764   9.450  0.0586 -0.1277  0.2296
  261loPI   C3B 4175  10.557   5.092   9.201 -0.0530 -0.0408  0.0238
  261loPI   C4B 4176  10.569   5.498   9.086 -0.0298 -0.3143  0.2192
  262loPI    C1 4177   7.915  15.260  10.705 -0.2165 -0.0898  0.0034
  262loPI    C2 4178   8.228  15.436  10.882 -0.1261 -0.1895 -0.0559
  262loPI    C3 4179   7.855  15.534  10.989 -0.0764  0.0108 -0.0632
  262loPI   PO4 4180   8.024  15.301  10.448 -0.1718  0.0726 -0.0392
  262loPI   GL1 4181   7.881  15.139  10.011  0.1548  0.1715  0.1374
  262loPI   GL2 4182   8.236  15.079   9.905 -0.1636  0.1132 -0.2412
  262loPI   C1A 4183   7.779  15.272   9.649 -0.2384 -0.2297 -0.1703
  262loPI   C2A 4184   7.779  15.250   9.233 -0.4457  0.1233  0.2331
  262loPI   C3A 4185   7.750  15.275   8.750 -0.0264 -0.0380 -0.1279
  262loPI   C4A 4186   7.876  15.378   8.391  0.2148 -0.0317  0.2187
  262loPI   C5A 4187   8.196  15.275   8.227 -0.0577 -0.1041 -0.3291
  262loPI   C6A 4188   8.590  15.364   8.021  0.0907  0.1100 -0.2720
  262loPI   C1B 4189   8.210  15.066   9.366  0.0400 -0.3974  0.1189
  262loPI   C2B 4190   8.187  15.351   8.958  0.0579  0.0400 -0.0547
  262loPI   C3B 4191   8.422  15.609   8.686  0.2215 -0.1316  0.2513
  262loPI   C4B 4192   8.501  15.812   8.312  0.1221  0.0841 -0.0874
  263loPI    C1 4193   4.376   1.041  11.296 -0.0185 -0.0976 -0.0883
  263loPI    C2 4194   4.019   0.875  11.371 -0.0614 -0.1271 -0.3468
  263loPI    C3 4195   4.152   1.176  11.599 -0.1290 -0.2961 -0.0798
  263loPI   PO4 4196   4.315   1.116  11.005  0.0110  0.0838 -0.1811
  263loPI   GL1 4197   4.223   1.006  10.599 -0.0597  0.2527  0.0933
  263loPI   GL2 4198   4.401   1.289  10.491  0.1365  0.0936 -0.0769
  263loPI   C1A 4199   4.309   0.760  10.206 -0.2467 -0.0960  0.0479
  263loPI   C2A 4200   4.383   0.701   9.769  0.0375  0.2375  0.0973
  263loPI   C3A 4201   4.526   0.603   9.346  0.1784 -0.2288  0.0097
  263loPI   C4A 4202   4.554   0.763   8.870  0.0699  0.0383  0.0522
  263loPI   C5A 4203   4.513   0.941   8.449 -0.0131 -0.0319 -0.2411
  263loPI   C6A 4204   4.530   1.342   8.213 -0.2635  0.2334  0.1357
  263loPI   C1B 4205   4.185   1.232  10.178  0.1094 -0.3121  0.0470
  263loPI   C2B 4206   4.199   1.208   9.759 -0.1799  0.0041  0.0477
  263loPI   C3B 4207   4.265   1.103   9.316  0.2415 -0.2980 -0.0567
  263loPI   C4B 4208   4.259   1.136   8.850  0.4182 -0.0147  0.0311
  264loPI    C1 4209   5.674  17.737  11.291 -0.1155  0.0908  0.1650
  264loPI    C2 4210   5.909  18.049  11.374 -0.0254  0.0274  0.1497
  264loPI    C3 4211   6.036  17.677  11.450 -0.0001 -0.0242 -0.1336
  264loPI   PO4 4212   5.622  17.782  10.966 -0.0939 -0.2114 -0.1628
  264loPI   GL1 4213   5.590  17.866  10.556 -0.0891  0.1321  0.0512
  264loPI   GL2 4214   5.379  17.753  10.332 -0.0167  0.0480  0.2614
  264loPI   C1A 4215   5.662  18.210  10.168  0.2555  0.0411  0.0010
  264loPI   C2A 4216   5.541  18.254   9.782  0.2159 -0.1309  0.2538
  264loPI   C3A 4217   5.607  18.036   9.401  0.1477  0.0262  0.1543
  264loPI   C4A 4218   5.641  18.089   8.934  0.2952  0.3367  0.1500
  264loPI   C5A 4219   5.633  18.064   8.483 -0.2472 -0.3641  0.0072
  264loPI   C6A 4220   5.607  17.739   8.223 -0.0213 -0.2058 -0.1932
  264loPI   C1B 4221   5.356  17.769   9.841  0.0022  0.1227 -0.5839
  264loPI   C2B 4222   5.285  17.654   9.484  0.3954 -0.0321  0.0107
  264loPI   C3B 4223   5.319  17.591   9.040  0.1547 -0.0056 -0.0471
  264loPI   C4B 4224   5.234  17.685   8.599 -0.0453 -0.0643 -0.4571
  265loPI    C1 4225  17.711   7.846  10.776 -0.0279  0.1408  0.0988
  265loPI    C2 4226  18.012   7.851  10.512  0.0060 -0.3062  0.1214
  265loPI    C3 4227  18.003   8.117  10.811  0.1417 -0.0079 -0.1345
  265loPI   PO4 4228  17.588   7.648  10.791  0.2487  0.0178  0.0947
  265loPI   GL1 4229  17.478   7.593  10.420 -0.0230 -0.0261  0.2810
  265loPI   GL2 4230  17.797   7.433  10.382  0.1278 -0.0611 -0.0762
  265loPI   C1A 4231  17.229   7.666  10.068  0.0881 -0.0224  0.0948
  265loPI   C2A 4232  17.237   7.652   9.726  0.0434 -0.3039  0.3049
  265loPI   C3A 4233  17.221   7.587   9.304 -0.3242  0.0297 -0.2358
  265loPI   C4A 4234  17.346   7.614   8.814 -0.0552  0.0540 -0.1371
  265loPI   C5A 4235  17.361   7.709   8.398  0.0453 -0.3527  0.2271
  265loPI   C6A 4236  17.471   7.691   7.909  0.2400  0.0687  0.2006
  265loPI   C1B 4237  18.029   7.633  10.090 -0.1402  0.2065  0.0114
  265loPI   C2B 4238  18.018   7.661   9.732 -0.0382 -0.0849 -0.3196
  265loPI   C3B 4239  17.982   7.511   9.361 -0.0210  0.1226 -0.0149
  265loPI   C4B 4240  17.779   7.648   9.055 -0.2215 -0.0539  0.3394
  266loPI    C1 4241   4.886   6.039  10.854 -0.1255  0.0661  0.0470
  266loPI    C2 4242   4.631   5.980  11.157  0.0282 -0.2162  0.1251
  266loPI    C3 4243   5.007   5.845  11.182  0.0977 -0.0754 -0.1158
  266loPI   PO4 4244   4.690   6.036  10.615 -0.0478 -0.0612 -0.0496
  266loPI   GL1 4245   4.886   6.051  10.196  0.0459  0.4050  0.1421
  266loPI   GL2 4246   4.773   6.322  10.048 -0.2288 -0.0771 -0.1426
  266loPI   C1A 4247   4.711   5.915   9.772  0.1346 -0.1723  0.0449
  266loPI   C2A 4248   4.520   5.918   9.356 -0.2281 -0.0368 -0.1112
  266loPI   C3A 4249   4.562   5.829   8.930  0.0421 -0.0163 -0.0766
  266loPI   C4A 4250   4.273   5.713   8.556  0.0365  0.1736 -0.2378
  266loPI   C5A 4251   4.235   5.384   8.270 -0.2451  0.1477  0.1522
  266loPI   C6A 4252   4.156   5.205   7.853  0.0175 -0.2288 -0.0238
  266loPI   C1B 4253   4.680   6.457   9.663 -0.0533  0.1185 -0.0270
  266loPI   C2B 4254   4.469   6.470   9.350  0.0967 -0.1063 -0.1108
  266loPI   C3B 4255   4.564   6.374   8.835 -0.1299  0.0725  0.0414
  266loPI   C4B 4256   4.677   6.378   8.408  0.1855  0.1300  0.1348
  267loPI    C1 4257   1.049   8.102  10.791  0.1374 -0.1598  0.1751
  267loPI    C2 4258   0.944   8.307  11.118  0.0776  0.2007 -0.0647
  267loPI    C3 4259   1.330   8.262  11.026  0.0941  0.1089  0.0473
  267loPI   PO4 4260   0.886   8.166  10.629 -0.0691  0.3626  0.2801
  267loPI   GL1 4261   0.880   7.922  10.285 -0.1593  0.0118 -0.0972
  267loPI   GL2 4262   0.642   7.759  10.254  0.1698  0.2642  0.0009
  267loPI   C1A 4263   1.073   7.735   9.976  0.0592 -0.0577  0.3379
  267loPI   C2A 4264   1.095   7.656   9.556  0.1176 -0.0125 -0.0866
  267loPI   C3A 4265   1.095   7.726   9.145 -0.1113 -0.2393 -0.0082
  267loPI   C4A 4266   1.111   7.777   8.719 -0.1824 -0.1042 -0.1021
  267loPI   C5A 4267   1.215   7.693   8.266 -0.2280 -0.0724 -0.0380
  267loPI   C6A 4268   1.079   7.836   7.808 -0.1938 -0.0008  0.0077
  267loPI   C1B 4269   0.582   7.751   9.767  0.0327  0.2768  0.2831
  267loPI   C2B 4270   0.590   7.842   9.319 -0.1161  0.1323  0.3826
  267loPI   C3B 4271   0.551   7.849   8.914 -0.0524  0.0297 -0.2377
  267loPI   C4B 4272   0.627   7.811   8.554 -0.2501  0.1061  0.2841
  268loPI    C1 4273  17.224   7.648  11.147  0.1210 -0.0546  0.1076
  268loPI    C2 4274  17.160   7.895  11.456 -0.0813  0.1525 -0.0955
  268loPI    C3 4275  17.523   7.874  11.288  0.0392  0.0115  0.1763
  268loPI   PO4 4276  16.995   7.672  10.979  0.2884 -0.0302 -0.1063
  268loPI   GL1 4277  16.909   7.602  10.538 -0.1615 -0.0584  0.2109
  268loPI   GL2 4278  16.917   7.283  10.399  0.1334 -0.0494 -0.0937
  268loPI   C1A 4279  16.721   7.753  10.164  0.2336 -0.0019 -0.1603
  268loPI   C2A 4280  16.741   7.737   9.762 -0.4592 -0.0049 -0.2043
  268loPI   C3A 4281  16.689   7.632   9.263  0.2382  0.4306 -0.1165
  268loPI   C4A 4282  16.759   7.655   8.855  0.3783  0.2152  0.0422
  268loPI   C5A 4283  16.669   7.592   8.404 -0.0580  0.3363  0.4012
  268loPI   C6A 4284  16.544   7.480   7.987  0.4014  0.1058  0.1546
  268loPI   C1B 4285  16.953   7.255   9.890  0.2250  0.2328  0.1110
  268loPI   C2B 4286  16.916   7.203   9.469 -0.3578 -0.2023  0.1738
  268loPI   C3B 4287  17.063   7.230   9.015 -0.1304 -0.0588 -0.0819
  268loPI   C4B 4288  17.047   7.216   8.626 -0.0179 -0.0567 -0.2252
  269loPI    C1 4289  13.854   1.229  11.249  0.0896 -0.0753 -0.0759
  269loPI    C2 4290  14.151   1.130  11.498 -0.0964 -0.1487  0.1204
  269loPI    C3 4291  13.790   1.221  11.644 -0.2043 -0.1784 -0.1228
  269loPI   PO4 4292  13.806   0.991  11.100 -0.0420  0.1361  0.4207
  269loPI   GL1 4293  13.845   0.872  10.720  0.0353 -0.0403 -0.2083
  269loPI   GL2 4294  13.572   0.857  10.678 -0.1319  0.1248  0.0847
  269loPI   C1A 4295  13.934   0.838  10.291 -0.0517 -0.0754 -0.0833
  269loPI   C2A 4296  13.996   0.729   9.859  0.0662 -0.1648  0.0543
  269loPI   C3A 4297  14.031   0.700   9.364 -0.0003 -0.1129 -0.1784
  269loPI   C4A 4298  14.112   0.750   8.936 -0.3537 -0.0328  0.2694
  269loPI   C5A 4299  14.220   0.654   8.634 -0.0192  0.1606  0.1760
  269loPI   C6A 4300  14.391   0.644   8.236  0.0901 -0.3017  0.1892
  269loPI   C1B 4301  13.413   0.934  10.322  0.1879  0.0317  0.0512
  269loPI   C2B 4302  13.450   0.859   9.843 -0.0399  0.2917  0.1920
  269loPI   C3B 4303  13.549   0.927   9.455 -0.3158 -0.1565 -0.0322
  269loPI   C4B 4304  13.592   0.866   9.071  0.1294 -0.3731  0.3469
  270loPI    C1 4305   2.551  17.554  10.890  0.0160  0.1488 -0.1355
  270loPI    C2 4306   2.347  17.583  11.233  0.0262 -0.0074 -0.1159
  270loPI    C3 4307   2.716  17.736  11.206  0.0363 -0.0195 -0.0482
  270loPI   PO4 4308   2.538  17.286  10.759 -0.0392  0.2842  0.0967
  270loPI   GL1 4309   2.278  17.129  10.419  0.2760  0.5401  0.0076
  270loPI   GL2 4310   2.470  16.922  10.409  0.1534 -0.0171 -0.1477
  270loPI   C1A 4311   2.361  17.269  10.051 -0.0240  0.1760  0.1121
  270loPI   C2A 4312   2.514  17.270   9.658  0.0318 -0.1675 -0.2083
  270loPI   C3A 4313   2.366  17.280   9.251 -0.3627 -0.2794  0.0634
  270loPI   C4A 4314   2.414  17.222   8.735 -0.1365 -0.2966  0.0439
  270loPI   C5A 4315   2.418  17.036   8.314 -0.2471 -0.0474  0.1723
  270loPI   C6A 4316   2.654  17.141   7.935  0.0058 -0.0514 -0.0041
  270loPI   C1B 4317   2.622  16.833   9.987  0.2328  0.0609 -0.0308
  270loPI   C2B 4318   2.713  16.855   9.525 -0.1271 -0.0851 -0.0891
  270loPI   C3B 4319   2.535  16.893   9.064 -0.1033 -0.2767  0.1420
  270loPI   C4B 4320   2.752  16.751   8.635  0.4065 -0.0570  0.0352
  271loPI    C1 4321  15.250   1.161  11.286 -0.1158  0.0628 -0.0622
  271loPI    C2 4322  15.092   1.146  11.653 -0.0732  0.0541 -0.0441
  271loPI    C3 4323  15.379   0.888  11.548 -0.0951  0.0475 -0.0882
  271loPI   PO4 4324  15.054   1.132  11.056  0.1340 -0.3502  0.1275
  271loPI   GL1 4325  14.756   1.191  10.842 -0.1517  0.0767  0.4414
  271loPI   GL2 4326  14.431   1.330  10.984  0.1105 -0.1179  0.0933
  271loPI   C1A 4327  14.776   1.121  10.397  0.0476 -0.2022  0.2217
  271loPI   C2A 4328  14.882   1.142   9.897  0.1765  0.1771  0.3174
  271loPI   C3A 4329  14.952   1.125   9.452  0.2779  0.1358 -0.0285
  271loPI   C4A 4330  14.940   1.175   9.086  0.0115  0.1385  0.2557
  271loPI   C5A 4331  15.144   1.336   8.730 -0.1902  0.3496 -0.1630
  271loPI   C6A 4332  15.493   1.140   8.711 -0.0618  0.1952  0.0865
  271loPI   C1B 4333  14.356   1.200  10.542  0.0329  0.0637  0.0936
  271loPI   C2B 4334  14.387   1.273  10.073  0.3637  0.2514 -0.0524
  271loPI   C3B 4335  14.404   1.199   9.638  0.4625  0.1468  0.0781
  271loPI   C4B 4336  14.465   1.167   9.258  0.2615  0.0368 -0.1775
  272loPI    C1 4337  17.384   6.023  10.985 -0.2296  0.0209  0.2996
  272loPI    C2 4338  17.331   5.661  11.147 -0.5211  0.0139  0.1950
  272loPI    C3 4339  17.280   5.989  11.370  0.1481 -0.0082  0.4028
  272loPI   PO4 4340  17.536   5.945  10.800 -0.2560  0.1458 -0.1454
  272loPI   GL1 4341  17.601   5.734  10.442 -0.0152  0.0634  0.0232
  272loPI   GL2 4342  17.312   5.495  10.686 -0.0857  0.0171  0.0726
  272loPI   C1A 4343  17.429   5.746  10.073 -0.0979  0.2042 -0.0898
  272loPI   C2A 4344  17.554   5.669   9.663  0.1333 -0.3150 -0.0351
  272loPI   C3A 4345  17.528   5.753   9.359  0.2682  0.0080 -0.3561
  272loPI   C4A 4346  17.688   5.701   8.946  0.1529  0.2147 -0.1034
  272loPI   C5A 4347  18.065   5.520   8.634 -0.1406 -0.1267  0.1236
  272loPI   C6A 4348  18.560   5.394   8.472  0.1062 -0.1477  0.4234
  272loPI   C1B 4349  17.138   5.429  10.325 -0.0234 -0.2184  0.1339
  272loPI   C2B 4350  17.242   5.326   9.940  0.3211 -0.2702  0.1335
  272loPI   C3B 4351  17.250   5.270   9.471 -0.1120 -0.0012 -0.2348
  272loPI   C4B 4352  17.293   5.326   8.968 -0.1688  0.3695 -0.0134
  273loPI    C1 4353   4.591   4.582  10.930 -0.1084  0.0308  0.0011
  273loPI    C2 4354   4.875   4.357  11.100 -0.0037  0.0552 -0.1390
  273loPI    C3 4355   4.836   4.741  11.204 -0.0984  0.0076  0.0056
  273loPI   PO4 4356   4.649   4.558  10.580  0.1268  0.2124  0.0966
  273loPI   GL1 4357   4.781   4.283  10.304  0.1696  0.0772 -0.0136
  273loPI   GL2 4358   4.453   4.239  10.230 -0.0150  0.0716 -0.1085
  273loPI   C1A 4359   4.676   4.040   9.883  0.2568 -0.1823  0.0992
  273loPI   C2A 4360   4.637   3.991   9.432  0.0786 -0.0640 -0.0713
  273loPI   C3A 4361   4.632   3.940   8.967 -0.1492  0.4037  0.1739
  273loPI   C4A 4362   4.514   3.669   8.615 -0.1131  0.1821 -0.0969
  273loPI   C5A 4363   4.292   3.323   8.432  0.0035 -0.1045  0.0165
  273loPI   C6A 4364   3.885   3.355   8.303 -0.0690  0.1476  0.0349
  273loPI   C1B 4365   4.145   4.112   9.871  0.1040 -0.0709  0.1687
  273loPI   C2B 4366   4.138   4.059   9.393 -0.1490  0.1206 -0.1014
  273loPI   C3B 4367   4.105   3.940   9.003 -0.0181  0.0286  0.0974
  273loPI   C4B 4368   4.041   3.946   8.550 -0.0574 -0.3205 -0.1383
  274loPI    C1 4369  16.250   3.234  11.189 -0.3411 -0.3549 -0.1788
  274loPI    C2 4370  16.189   3.062  11.544 -0.2656 -0.2014 -0.0902
  274loPI    C3 4371  16.526   2.988  11.342 -0.1027  0.0610  0.0797
  274loPI   PO4 4372  15.980   3.190  11.077  0.1230 -0.0260  0.0737
  274loPI   GL1 4373  15.888   3.530  10.733 -0.1527 -0.1119 -0.1981
  274loPI   GL2 4374  15.920   3.770  10.608 -0.6320  0.2191 -0.1423
  274loPI   C1A 4375  15.997   3.226  10.381  0.0493 -0.2314 -0.3039
  274loPI   C2A 4376  16.148   3.256   9.991 -0.1679 -0.0685  0.1401
  274loPI   C3A 4377  16.024   3.245   9.590  0.0339 -0.0024 -0.1381
  274loPI   C4A 4378  16.135   3.214   9.236 -0.1428  0.3733 -0.2244
  274loPI   C5A 4379  16.196   3.179   8.827 -0.2694 -0.2569  0.0816
  274loPI   C6A 4380  16.071   3.421   8.534  0.0800  0.0911  0.2156
  274loPI   C1B 4381  15.923   3.685  10.192  0.2140  0.1791 -0.2018
  274loPI   C2B 4382  15.968   3.743   9.864  0.1154 -0.3040 -0.3014
  274loPI   C3B 4383  15.845   3.724   9.452  0.1417  0.1026  0.1760
  274loPI   C4B 4384  15.945   3.606   8.976 -0.2289 -0.0278  0.3123
  275loPI    C1 4385  13.185  16.557  10.976  0.3098  0.1108  0.2062
  275loPI    C2 4386  13.144  16.195  10.811  0.2377  0.1505  0.1361
  275loPI    C3 4387  13.302  16.231  11.176  0.1311  0.0377  0.1941
  275loPI   PO4 4388  13.185  16.677  10.730 -0.0809  0.3059  0.0180
  275loPI   GL1 4389  12.914  16.720  10.438  0.4076 -0.2167 -0.0714
  275loPI   GL2 4390  12.759  16.454  10.444  0.1177 -0.2661 -0.1838
  275loPI   C1A 4391  12.839  16.782  10.045 -0.1626  0.2986  0.1318
  275loPI   C2A 4392  12.875  16.731   9.536 -0.2351  0.2470 -0.0174
  275loPI   C3A 4393  12.931  16.776   9.102 -0.2017  0.0211 -0.1178
  275loPI   C4A 4394  12.916  16.905   8.682 -0.1669  0.1507  0.0113
  275loPI   C5A 4395  12.790  17.285   8.487 -0.0185 -0.1622 -0.1091
  275loPI   C6A 4396  12.412  17.455   8.441 -0.3160 -0.3174 -0.1571
  275loPI   C1B 4397  12.992  16.284  10.168  0.0040 -0.1075  0.0849
  275loPI   C2B 4398  13.067  16.300   9.633  0.0234  0.2983 -0.1574
  275loPI   C3B 4399  13.020  16.263   9.240  0.2671 -0.4668  0.2218
  275loPI   C4B 4400  13.146  16.407   8.799 -0.0009 -0.1314  0.0666
  276loPI    C1 4401  17.419  16.150  11.222  0.1920  0.1322  0.1348
  276loPI    C2 4402  17.773  16.316  11.304  0.1572  0.1921  0.1651
  276loPI    C3 4403  17.613  16.049  11.556  0.2136  0.1109  0.1158
  276loPI   PO4 4404  17.418  16.108  10.981 -0.0277  0.3974  0.3257
  276loPI   GL1 4405  17.360  16.268  10.520 -0.0006  0.1474  0.1114
  276loPI   GL2 4406  17.179  16.054  10.379  0.2252  0.0306 -0.1361
  276loPI   C1A 4407  17.468  16.365  10.121 -0.2304 -0.1316 -0.1112
  276loPI   C2A 4408  17.563  16.410   9.666  0.0907 -0.0134 -0.1900
  276loPI   C3A 4409  17.463  16.463   9.304 -0.1079  0.0494 -0.1492
  276loPI   C4A 4410  17.427  16.409   8.827  0.0707 -0.0398  0.0362
  276loPI   C5A 4411  17.475  16.606   8.458  0.0415  0.2581  0.0575
  276loPI   C6A 4412  17.656  16.285   8.035 -0.1977 -0.2027  0.1491
  276loPI   C1B 4413  17.171  16.062   9.864 -0.2200  0.1244  0.1113
  276loPI   C2B 4414  17.151  16.011   9.374  0.1996  0.0251  0.4959
  276loPI   C3B 4415  17.126  15.974   8.825  0.0745  0.1601 -0.1816
  276loPI   C4B 4416  17.257  16.142   8.422 -0.0673  0.0309  0.3637
  277loPI    C1 4417  13.418  11.805  10.663  0.1425  0.1037 -0.0672
  277loPI    C2 4418  13.631  11.698  10.984 -0.0062 -0.4638 -0.1474
  277loPI    C3 4419  13.294  11.909  11.029  0.1681 -0.2180  0.0354
  277loPI   PO4 4420  13.500  12.021  10.480 -0.0454  0.1373 -0.0134
  277loPI   GL1 4421  13.765  11.991  10.147  0.0649 -0.0823 -0.0729
  277loPI   GL2 4422  13.668  11.627  10.304 -0.3607 -0.3630  0.1055
  277loPI   C1A 4423  13.678  11.908   9.702 -0.2801 -0.0273  0.0379
  277loPI   C2A 4424  13.751  11.871   9.275 -0.0139  0.0057  0.3899
  277loPI   C3A 4425  13.728  12.000   8.941 -0.0167 -0.1621 -0.2063
  277loPI   C4A 4426  13.680  12.100   8.502  0.1967 -0.2421 -0.0988
  277loPI   C5A 4427  13.445  12.425   8.232 -0.1785 -0.0885 -0.1704
  277loPI   C6A 4428  13.157  12.865   8.346 -0.0688  0.2720 -0.1509
  277loPI   C1B 4429  13.878  11.524   9.959 -0.3532 -0.0114  0.0139
  277loPI   C2B 4430  13.964  11.413   9.649  0.0374 -0.1442  0.2091
  277loPI   C3B 4431  13.952  11.426   9.258  0.2535 -0.1166 -0.0180
  277loPI   C4B 4432  13.982  11.503   8.804  0.2246 -0.1329  0.2290
  278loPI    C1 4433  16.707   3.523  11.288 -0.2951  0.1435  0.1174
  278loPI    C2 4434  16.899   3.687  11.599 -0.0183  0.1522 -0.0553
  278loPI    C3 4435  16.502   3.646  11.609 -0.0131  0.1554  0.2974
  278loPI   PO4 4436  16.704   3.574  11.006 -0.0570  0.1488 -0.2089
  278loPI   GL1 4437  16.480   3.422  10.671  0.1833 -0.0162  0.3554
  278loPI   GL2 4438  16.435   3.150  10.572  0.0875 -0.1127 -0.0127
  278loPI   C1A 4439  16.406   3.574  10.302  0.0334 -0.0241  0.1151
  278loPI   C2A 4440  16.425   3.622   9.798  0.1234  0.1002 -0.2094
  278loPI   C3A 4441  16.348   3.653   9.268 -0.0406 -0.0339  0.0375
  278loPI   C4A 4442  16.465   3.644   8.856  0.2552  0.2808  0.2378
  278loPI   C5A 4443  16.568   3.412   8.530  0.2996  0.0947 -0.0070
  278loPI   C6A 4444  16.321   3.003   8.328 -0.2217 -0.1977  0.4005
  278loPI   C1B 4445  16.564   3.085  10.194 -0.0339 -0.1027  0.3422
  278loPI   C2B 4446  16.658   3.132   9.821  0.0315  0.4038  0.0988
  278loPI   C3B 4447  16.556   3.276   9.487  0.0526  0.4355  0.0453
  278loPI   C4B 4448  16.631   3.167   9.001 -0.2123  0.2336 -0.1825
  279loPI    C1 4449  10.262   9.058  10.532  0.2838 -0.1234 -0.1028
  279loPI    C2 4450  10.476   9.299  10.769 -0.1629  0.0310  0.1559
  279loPI    C3 4451  10.457   8.907  10.847  0.2677 -0.0374 -0.0514
  279loPI   PO4 4452  10.343   9.119  10.275 -0.1568  0.0674 -0.2384
  279loPI   GL1 4453  10.326   8.889   9.832 -0.3099 -0.2768  0.0251
  279loPI   GL2 4454  10.345   8.614   9.886  0.1069  0.3807  0.2515
  279loPI   C1A 4455  10.547   8.856   9.449  0.0789  0.0868 -0.2418
  279loPI   C2A 4456  10.477   8.920   9.023 -0.1236 -0.0933  0.0501
  279loPI   C3A 4457  10.665   9.150   8.716 -0.1572 -0.1804 -0.1865
  279loPI   C4A 4458  10.658   9.194   8.333 -0.0582 -0.0517 -0.1045
  279loPI   C5A 4459  10.656   9.005   7.911  0.3037  0.0052  0.0786
  279loPI   C6A 4460  10.789   8.692   7.662  0.1479 -0.1536  0.0064
  279loPI   C1B 4461  10.594   8.412   9.605 -0.0077  0.0943  0.1545
  279loPI   C2B 4462  10.766   8.269   9.252  0.1892  0.0639 -0.3345
  279loPI   C3B 4463  10.745   8.210   8.799 -0.1801  0.0492  0.2259
  279loPI   C4B 4464  10.667   8.141   8.363  0.2030  0.0487 -0.0012
  280loPI    C1 4465   8.433  15.878  10.308 -0.2596  0.0485 -0.0356
  280loPI    C2 4466   8.507  15.835  10.699  0.1782  0.3218 -0.0811
  280loPI    C3 4467   8.638  16.159  10.505  0.1135  0.1096 -0.4928
  280loPI   PO4 4468   8.434  15.612  10.264 -0.1275  0.0628  0.2663
  280loPI   GL1 4469   8.489  15.480   9.832 -0.1379 -0.0738  0.0755
  280loPI   GL2 4470   8.602  15.761   9.794  0.1656 -0.2245  0.0640
  280loPI   C1A 4471   8.216  15.604   9.509 -0.0748  0.2477 -0.1156
  280loPI   C2A 4472   8.309  15.833   9.109  0.1143  0.0432 -0.1772
  280loPI   C3A 4473   8.270  16.089   8.746  0.0426 -0.0615  0.1907
  280loPI   C4A 4474   8.303  16.388   8.428  0.2022 -0.1629  0.1740
  280loPI   C5A 4475   8.045  16.693   8.241  0.0440  0.1019  0.3838
  280loPI   C6A 4476   7.736  16.618   7.891  0.3215  0.2908 -0.1466
  280loPI   C1B 4477   8.719  15.802   9.325 -0.0921  0.3554 -0.0070
  280loPI   C2B 4478   8.747  15.957   8.890  0.2133  0.1631 -0.1534
  280loPI   C3B 4479   8.718  16.158   8.588  0.0020  0.2797 -0.2190
  280loPI   C4B 4480   8.754  16.255   8.185 -0.1789  0.0454  0.1808
  281loPI    C1 4481  15.931   5.612  11.040  0.0708 -0.0944  0.0021
  281loPI    C2 4482  15.706   5.700  11.358  0.1538 -0.4028  0.1501
  281loPI    C3 4483  16.094   5.796  11.355  0.0518  0.0294 -0.0596
  281loPI   PO4 4484  15.859   5.779  10.815  0.1170  0.1179  0.1016
  281loPI   GL1 4485  15.679   5.675  10.414  0.1950  0.2880  0.3337
  281loPI   GL2 4486  15.585   6.024  10.351 -0.1514  0.0332  0.1176
  281loPI   C1A 4487  15.676   5.533  10.081  0.0666  0.1144  0.1386
  281loPI   C2A 4488  15.694   5.543   9.625  0.1805  0.2260  0.2624
  281loPI   C3A 4489  15.688   5.615   9.246 -0.2166  0.2795 -0.3773
  281loPI   C4A 4490  15.781   5.563   8.925 -0.1079  0.0942  0.0666
  281loPI   C5A 4491  15.592   5.554   8.589 -0.0236  0.1282  0.1266
  281loPI   C6A 4492  15.456   5.241   8.328 -0.3263  0.0303  0.1491
  281loPI   C1B 4493  15.506   6.114   9.900  0.0337 -0.0297 -0.1102
  281loPI   C2B 4494  15.527   6.079   9.529  0.1076  0.0268  0.2350
  281loPI   C3B 4495  15.591   6.006   9.055 -0.0659 -0.2857  0.0953
  281loPI   C4B 4496  15.596   6.071   8.625 -0.0195 -0.0897 -0.1907
  282loPI    C1 4497  14.890   5.691  10.928  0.0004  0.1615 -0.0489
  282loPI    C2 4498  15.158   5.743  11.220 -0.0887 -0.0489  0.0727
  282loPI    C3 4499  14.767   5.751  11.304 -0.1177  0.0421 -0.0675
  282loPI   PO4 4500  14.976   5.466  10.819 -0.1379  0.2361 -0.4224
  282loPI   GL1 4501  14.951   5.426  10.391 -0.1966  0.0508  0.0639
  282loPI   GL2 4502  15.163   5.620  10.285 -0.1158  0.0845 -0.0862
  282loPI   C1A 4503  14.728   5.226  10.027 -0.0098 -0.5537 -0.0505
  282loPI   C2A 4504  14.789   5.252   9.628  0.0293  0.2625 -0.0535
  282loPI   C3A 4505  14.953   5.233   9.185  0.0005  0.1146 -0.0012
  282loPI   C4A 4506  14.870   5.404   8.732 -0.2073  0.1852  0.1204
  282loPI   C5A 4507  14.769   5.626   8.308  0.0576  0.1128 -0.0215
  282loPI   C6A 4508  14.772   5.462   7.862  0.2560  0.2496  0.0371
  282loPI   C1B 4509  15.224   5.738   9.867 -0.0278 -0.1783 -0.1919
  282loPI   C2B 4510  15.175   5.714   9.446 -0.3484 -0.0329 -0.0823
  282loPI   C3B 4511  15.240   5.705   9.043  0.0726 -0.3632  0.0541
  282loPI   C4B 4512  15.140   5.858   8.629  0.1885 -0.3998 -0.0547
  283loPI    C1 4513   4.737   8.365  10.777  0.2497 -0.0033 -0.1090
  283loPI    C2 4514   4.845   8.746  10.720  0.0798  0.0666  0.0262
  283loPI    C3 4515   4.519   8.602  10.540  0.0552  0.0301  0.0995
  283loPI   PO4 4516   4.844   8.202  10.648  0.2845  0.1379  0.1217
  283loPI   GL1 4517   5.001   8.318  10.336  0.0267  0.0118  0.1741
  283loPI   GL2 4518   4.975   8.038  10.054 -0.2809 -0.0906 -0.1029
  283loPI   C1A 4519   4.773   8.508   9.985  0.0684 -0.0310  0.2463
  283loPI   C2A 4520   4.745   8.565   9.510  0.0911  0.0513 -0.0268
  283loPI   C3A 4521   4.672   8.518   9.156  0.0629  0.0032 -0.0417
  283loPI   C4A 4522   4.623   8.428   8.714  0.1404  0.1892 -0.3658
  283loPI   C5A 4523   4.629   8.775   8.416 -0.0377 -0.1894  0.1127
  283loPI   C6A 4524   4.789   9.003   8.055 -0.3512  0.1261  0.0235
  283loPI   C1B 4525   4.997   8.036   9.627  0.2368  0.1073  0.1957
  283loPI   C2B 4526   4.896   8.041   9.213  0.0023 -0.1567  0.1882
  283loPI   C3B 4527   4.894   8.013   8.796  0.1841 -0.0127  0.1732
  283loPI   C4B 4528   4.806   7.930   8.480 -0.3159 -0.0699  0.0899
  284loPI    C1 4529  13.365  16.966  11.185 -0.2699 -0.1041 -0.0843
  284loPI    C2 4530  13.521  17.045  11.545  0.2633 -0.1112 -0.3040
  284loPI    C3 4531  13.389  16.677  11.461  0.1622 -0.1166 -0.1276
  284loPI   PO4 4532  13.425  17.201  10.969  0.3040  0.1012 -0.0926
  284loPI   GL1 4533  13.158  17.376  10.701 -0.3607  0.1644  0.0901
  284loPI   GL2 4534  13.199  17.133  10.524  0.0085 -0.1138 -0.0256
  284loPI   C1A 4535  13.457  17.529  10.383  0.0172  0.4336  0.0977
  284loPI   C2A 4536  13.450  17.569   9.881  0.0085  0.0788 -0.1317
  284loPI   C3A 4537  13.606  17.537   9.576 -0.0939 -0.3225  0.1491
  284loPI   C4A 4538  13.578  17.605   9.106 -0.2003 -0.2624  0.0511
  284loPI   C5A 4539  13.603  17.548   8.613 -0.2495 -0.0568  0.0399
  284loPI   C6A 4540  13.676  17.608   8.079 -0.3959 -0.0205 -0.1236
  284loPI   C1B 4541  13.126  17.216  10.030 -0.1203 -0.4805 -0.1237
  284loPI   C2B 4542  13.207  17.207   9.638  0.0706 -0.0659 -0.1640
  284loPI   C3B 4543  13.225  17.197   9.240 -0.1106 -0.2198  0.0850
  284loPI   C4B 4544  13.218  17.276   8.804  0.1868 -0.0039  0.0031
  285loPI    C1 4545   9.674   8.350  10.675  0.0952  0.0605 -0.1246
  285loPI    C2 4546   9.567   7.993  10.819 -0.1020  0.1547 -0.0328
  285loPI    C3 4547   9.712   8.272  11.066  0.2357  0.0745 -0.1349
  285loPI   PO4 4548   9.731   8.302  10.441  0.3538 -0.0282 -0.0751
  285loPI   GL1 4549   9.719   8.123  10.041  0.1604 -0.1061  0.4018
  285loPI   GL2 4550   9.760   7.844  10.048  0.1795 -0.3059  0.2141
  285loPI   C1A 4551   9.662   8.148   9.636 -0.0241  0.1222 -0.0255
  285loPI   C2A 4552   9.863   8.031   9.133  0.0032 -0.0657  0.1398
  285loPI   C3A 4553   9.892   8.012   8.635  0.0271 -0.0880  0.2546
  285loPI   C4A 4554   9.914   8.150   8.212  0.1375 -0.0053  0.0982
  285loPI   C5A 4555  10.011   8.428   7.974 -0.2507 -0.2988  0.0761
  285loPI   C6A 4556  10.493   8.451   8.015 -0.0714 -0.0685 -0.2673
  285loPI   C1B 4557   9.797   7.677   9.556  0.2400  0.0897  0.0521
  285loPI   C2B 4558   9.602   7.459   9.143 -0.0044  0.3149 -0.0472
  285loPI   C3B 4559   9.547   7.432   8.710 -0.0598  0.2818 -0.1322
  285loPI   C4B 4560   9.623   7.304   8.265 -0.2344  0.0995 -0.0848
  286loPI    C1 4561   0.333  13.416  10.979  0.0476 -0.1379  0.2125
  286loPI    C2 4562   0.190  13.673  10.707  0.3426 -0.2018 -0.0077
  286loPI    C3 4563   0.010  13.637  11.062  0.1816  0.1648 -0.0478
  286loPI   PO4 4564   0.298  13.146  10.814 -0.0236  0.0617  0.1007
  286loPI   GL1 4565   0.417  13.094  10.435 -0.1641  0.0855  0.3624
  286loPI   GL2 4566   0.745  12.929  10.387 -0.2558 -0.1425  0.0207
  286loPI   C1A 4567   0.181  13.020  10.187 -0.2964 -0.0100  0.4182
  286loPI   C2A 4568   0.118  13.080   9.756 -0.2115  0.1019  0.5812
  286loPI   C3A 4569   0.042  13.059   9.334 -0.1302  0.1724  0.2873
  286loPI   C4A 4570   0.064  13.167   8.923  0.0592  0.2491 -0.1436
  286loPI   C5A 4571   0.163  13.146   8.522  0.0915  0.1294  0.2539
  286loPI   C6A 4572   0.048  13.257   8.195  0.2804  0.0098 -0.1304
  286loPI   C1B 4573   0.686  12.996   9.980  0.1551 -0.0754 -0.2224
  286loPI   C2B 4574   0.730  12.925   9.624 -0.1707 -0.5200  0.4990
  286loPI   C3B 4575   0.659  13.063   9.095 -0.0243 -0.0626 -0.2049
  286loPI   C4B 4576   0.674  12.913   8.686  0.1400  0.2666  0.0033
  287loPI    C1 4577  10.953  13.191  10.315 -0.1250 -0.2701 -0.1056
  287loPI    C2 4578  10.726  13.373  10.590  0.0251 -0.1188 -0.0798
  287loPI    C3 4579  10.851  12.998  10.651  0.3594  0.0372  0.2317
  287loPI   PO4 4580  10.856  13.368  10.130 -0.4242 -0.3329 -0.2632
  287loPI   GL1 4581  11.120  13.564   9.821  0.0478 -0.1603 -0.2496
  287loPI   GL2 4582  11.359  13.488   9.931  0.0411 -0.1939 -0.1569
  287loPI   C1A 4583  11.254  13.925   9.555  0.0670 -0.0759 -0.2503
  287loPI   C2A 4584  11.325  14.168   9.174  0.2070 -0.2383  0.0456
  287loPI   C3A 4585  11.261  14.219   8.861  0.3283  0.0992 -0.1184
  287loPI   C4A 4586  11.243  14.413   8.592  0.0389 -0.0028  0.0942
  287loPI   C5A 4587  11.545  14.345   8.337  0.2314  0.1207  0.1006
  287loPI   C6A 4588  11.949  14.431   8.068  0.1713  0.0060 -0.0824
  287loPI   C1B 4589  11.496  13.499   9.438  0.1360 -0.1368 -0.0956
  287loPI   C2B 4590  11.560  13.793   9.094 -0.1987 -0.0603 -0.2205
  287loPI   C3B 4591  11.583  13.860   8.558 -0.0094  0.2523 -0.3051
  287loPI   C4B 4592  11.876  13.805   8.071 -0.1106 -0.0919 -0.0585
  288loPI    C1 4593   2.824   0.784  10.871  0.0627  0.3207 -0.1678
  288loPI    C2 4594   3.118   0.913  11.110 -0.1447 -0.2528  0.4278
  288loPI    C3 4595   2.737   0.942  11.228 -0.2980 -0.0299 -0.0930
  288loPI   PO4 4596   2.978   0.883  10.603  0.0245  0.1693 -0.0752
  288loPI   GL1 4597   2.954   1.095  10.315 -0.3305 -0.0175 -0.0845
  288loPI   GL2 4598   2.594   1.074  10.358  0.0948  0.0949  0.0271
  288loPI   C1A 4599   2.973   1.048   9.868 -0.1035 -0.1750 -0.0118
  288loPI   C2A 4600   3.048   0.983   9.363  0.1803  0.0965  0.1743
  288loPI   C3A 4601   2.994   0.875   8.961  0.0804  0.0027 -0.0395
  288loPI   C4A 4602   3.008   0.949   8.477 -0.6333 -0.0712 -0.0769
  288loPI   C5A 4603   2.591   0.790   8.111  0.0413 -0.1900  0.0456
  288loPI   C6A 4604   2.380   0.753   7.767 -0.2626  0.1411 -0.1073
  288loPI   C1B 4605   2.306   1.182   9.978  0.1009  0.1040 -0.0310
  288loPI   C2B 4606   2.227   1.228   9.572  0.0607  0.1070 -0.0384
  288loPI   C3B 4607   2.334   1.331   9.093 -0.1669 -0.1077  0.0939
  288loPI   C4B 4608   2.492   1.714   8.981  0.1271  0.1132 -0.0556
  289loPI    C1 4609   4.524  11.026  10.728  0.0260 -0.0581  0.0787
  289loPI    C2 4610   4.852  11.081  10.950  0.0159  0.0720  0.0621
  289loPI    C3 4611   4.534  10.894  11.105  0.1088 -0.0823  0.0682
  289loPI   PO4 4612   4.672  10.922  10.496 -0.0684  0.0093  0.1445
  289loPI   GL1 4613   4.978  11.191  10.289  0.3725 -0.0062 -0.0748
  289loPI   GL2 4614   4.680  11.268  10.133  0.1836  0.0790 -0.2075
  289loPI   C1A 4615   5.032  11.124   9.869 -0.1071 -0.2807  0.1728
  289loPI   C2A 4616   5.108  11.228   9.497  0.0081  0.1972 -0.0759
  289loPI   C3A 4617   5.108  11.247   9.024  0.3542  0.0254  0.3481
  289loPI   C4A 4618   5.131  11.343   8.521 -0.0580  0.2264  0.1450
  289loPI   C5A 4619   5.009  11.221   8.123 -0.0712  0.0085  0.1337
  289loPI   C6A 4620   4.725  10.930   7.866  0.1321  0.1753 -0.1058
  289loPI   C1B 4621   4.624  11.402   9.733  0.3416 -0.1415 -0.0349
  289loPI   C2B 4622   4.602  11.417   9.229  0.1794 -0.1397  0.0967
  289loPI   C3B 4623   4.568  11.314   8.881  0.1874 -0.2594  0.0985
  289loPI   C4B 4624   4.586  11.334   8.465  0.0195 -0.1362 -0.0079
  290loPI    C1 4625   2.517   8.072  11.009 -0.2927 -0.0484 -0.1139
  290loPI    C2 4626   2.531   8.403  11.233 -0.0902  0.1013 -0.3421
  290loPI    C3 4627   2.278   8.108  11.328  0.0847  0.1024  0.1599
  290loPI   PO4 4628   2.535   8.166  10.728  0.2438 -0.0253  0.1456
  290loPI   GL1 4629   2.696   8.286  10.385 -0.0623 -0.1244  0.1212
  290loPI   GL2 4630   2.507   7.938  10.298 -0.2035 -0.1210  0.4477
  290loPI   C1A 4631   2.858   8.431   9.969  0.0932  0.1617 -0.2931
  290loPI   C2A 4632   2.914   8.523   9.481 -0.0546  0.1126  0.3584
  290loPI   C3A 4633   2.750   8.478   9.051 -0.2679 -0.1752  0.0850
  290loPI   C4A 4634   2.707   8.527   8.598 -0.1933 -0.4872  0.0199
  290loPI   C5A 4635   2.622   8.469   8.162 -0.0424  0.0623  0.0495
  290loPI   C6A 4636   2.214   8.653   7.961  0.0832 -0.1435  0.0473
  290loPI   C1B 4637   2.595   8.056   9.870 -0.0844 -0.3884  0.0788
  290loPI   C2B 4638   2.544   8.054   9.410  0.2144 -0.1576 -0.1143
  290loPI   C3B 4639   2.355   8.005   9.036  0.3133  0.1323  0.0458
  290loPI   C4B 4640   2.427   8.144   8.611 -0.1496  0.0844  0.2228
  291loPI    C1 4641   6.544   9.920  10.489 -0.0358  0.0101  0.1928
  291loPI    C2 4642   6.511  10.301  10.373 -0.1361 -0.0724 -0.0579
  291loPI    C3 4643   6.356  10.184  10.723  0.1373  0.1729  0.1503
  291loPI   PO4 4644   6.408   9.798  10.292  0.0773 -0.0806 -0.0472
  291loPI   GL1 4645   6.316   9.436  10.055  0.4212  0.0335 -0.1772
  291loPI   GL2 4646   6.446   9.164   9.925  0.1740  0.3725 -0.0236
  291loPI   C1A 4647   5.964   9.331   9.758 -0.2223 -0.1819  0.4068
  291loPI   C2A 4648   5.928   9.135   9.289  0.1991 -0.0831 -0.0199
  291loPI   C3A 4649   5.833   9.243   8.891  0.0085  0.1432 -0.1458
  291loPI   C4A 4650   5.849   9.219   8.566  0.1335 -0.0977 -0.3217
  291loPI   C5A 4651   5.981   9.280   8.214  0.1626  0.2929  0.1888
  291loPI   C6A 4652   6.243   9.604   8.051  0.1367  0.0513 -0.0099
  291loPI   C1B 4653   6.376   9.170   9.547 -0.0593 -0.2828  0.1867
  291loPI   C2B 4654   6.367   9.111   9.146  0.1146  0.0714 -0.1528
  291loPI   C3B 4655   6.322   9.184   8.762  0.1958  0.0370  0.1600
  291loPI   C4B 4656   6.325   9.022   8.419  0.0409  0.0247 -0.0740
  292loPI    C1 4657  15.073   0.248  11.317 -0.0193 -0.1278  0.2897
  292loPI    C2 4658  15.411   0.060  11.420  0.0574 -0.0257  0.2252
  292loPI    C3 4659  15.318   0.411  11.588 -0.0972 -0.1312  0.3628
  292loPI   PO4 4660  15.092   0.228  11.043  0.0374  0.0361 -0.3537
  292loPI   GL1 4661  15.206   0.213  10.629 -0.0177 -0.1066 -0.1092
  292loPI   GL2 4662  15.108   0.461  10.557 -0.1403 -0.2268 -0.1809
  292loPI   C1A 4663  15.127   0.246  10.153  0.0360  0.0891 -0.1899
  292loPI   C2A 4664  15.293   0.119   9.807 -0.0158 -0.2612 -0.1294
  292loPI   C3A 4665  15.415   0.252   9.501 -0.0945  0.1479 -0.0178
  292loPI   C4A 4666  15.330   0.199   9.002 -0.0669 -0.2541  0.0389
  292loPI   C5A 4667  15.230   0.265   8.603  0.0544 -0.1156 -0.2858
  292loPI   C6A 4668  15.434   0.373   8.333  0.2351 -0.2356 -0.0052
  292loPI   C1B 4669  14.938   0.657  10.145 -0.1892 -0.0572  0.0680
  292loPI   C2B 4670  15.054   0.666   9.696  0.1730  0.0843  0.0644
  292loPI   C3B 4671  15.233   0.702   9.221 -0.1655  0.0435  0.4715
  292loPI   C4B 4672  15.279   0.734   8.850  0.2304 -0.0791 -0.0495
  293loPI    C1 4673   9.719  14.909  10.309  0.2440 -0.0370 -0.2830
  293loPI    C2 4674  10.059  14.995  10.502  0.0039  0.1200  0.0801
  293loPI    C3 4675   9.873  15.278  10.289  0.1304  0.0171 -0.1706
  293loPI   PO4 4676   9.737  14.775  10.066 -0.0004 -0.0177  0.1317
  293loPI   GL1 4677  10.038  15.012   9.866  0.1951  0.1329  0.3327
  293loPI   GL2 4678  10.280  15.280   9.882 -0.1704 -0.2265  0.2018
  293loPI   C1A 4679  10.032  14.879   9.497 -0.2690 -0.1661 -0.1393
  293loPI   C2A 4680  10.194  14.955   9.059  0.2597 -0.0310 -0.0219
  293loPI   C3A 4681  10.139  15.026   8.647  0.2663 -0.1297 -0.3746
  293loPI   C4A 4682  10.127  15.100   8.196  0.2615  0.5886 -0.0238
  293loPI   C5A 4683  10.175  15.341   7.995 -0.3343 -0.1547 -0.1423
  293loPI   C6A 4684  10.490  15.593   7.705  0.2058  0.1744  0.0859
  293loPI   C1B 4685  10.316  15.295   9.402 -0.2063  0.3124 -0.0824
  293loPI   C2B 4686  10.507  15.327   8.940  0.1813 -0.1437 -0.0495
  293loPI   C3B 4687  10.635  15.164   8.501 -0.0923  0.2265 -0.0152
  293loPI   C4B 4688  10.678  15.082   8.122  0.0858  0.2448 -0.3431
  294loPI    C1 4689   5.640  11.112  10.528 -0.1393 -0.1027  0.0431
  294loPI    C2 4690   5.764  11.488  10.585 -0.0738 -0.0861 -0.1950
  294loPI    C3 4691   5.645  11.267  10.897  0.2216  0.0142 -0.0068
  294loPI   PO4 4692   5.763  10.986  10.348 -0.0264 -0.1574 -0.0483
  294loPI   GL1 4693   5.953  10.910   9.899  0.0246 -0.0235 -0.0759
  294loPI   GL2 4694   5.955  11.271   9.988  0.4533 -0.0896  0.0430
  294loPI   C1A 4695   5.859  10.809   9.431  0.0733 -0.2160  0.0973
  294loPI   C2A 4696   5.775  10.692   8.927 -0.2430 -0.1007 -0.1299
  294loPI   C3A 4697   5.792  10.766   8.523  0.1606  0.0275  0.1045
  294loPI   C4A 4698   5.683  10.584   8.199 -0.0050  0.0209  0.0415
  294loPI   C5A 4699   5.433  10.229   7.986 -0.1848  0.0252 -0.1324
  294loPI   C6A 4700   4.972  10.044   7.998  0.3063  0.0939  0.1661
  294loPI   C1B 4701   5.570  11.232   9.656  0.1322 -0.0145 -0.2970
  294loPI   C2B 4702   5.595  11.146   9.184 -0.0667 -0.1657  0.2556
  294loPI   C3B 4703   5.569  11.205   8.705 -0.4376  0.0100  0.1863
  294loPI   C4B 4704   5.642  11.195   8.261 -0.1316  0.2094 -0.0434
  295loPI    C1 4705   8.185   8.051  10.204 -0.1700  0.1331  0.1722
  295loPI    C2 4706   8.025   8.279  10.491 -0.0855  0.0833  0.2591
  295loPI    C3 4707   8.288   7.993  10.586 -0.0021  0.1142  0.1248
  295loPI   PO4 4708   7.929   7.960  10.074  0.0144  0.0802  0.1088
  295loPI   GL1 4709   7.958   7.909   9.674 -0.0875 -0.0764 -0.1198
  295loPI   GL2 4710   7.943   7.565   9.787 -0.0871 -0.1464  0.3584
  295loPI   C1A 4711   7.888   7.961   9.278 -0.1171 -0.0508 -0.2400
  295loPI   C2A 4712   7.785   8.124   8.844 -0.2733  0.1270 -0.2255
  295loPI   C3A 4713   7.715   8.124   8.424  0.1187  0.0162  0.0147
  295loPI   C4A 4714   7.852   8.411   8.132  0.0844 -0.3240 -0.0670
  295loPI   C5A 4715   7.840   8.752   7.852 -0.0902  0.0148 -0.0675
  295loPI   C6A 4716   7.691   9.243   7.710 -0.1156 -0.1478 -0.1848
  295loPI   C1B 4717   7.978   7.476   9.376 -0.4087 -0.0710 -0.0921
  295loPI   C2B 4718   7.936   7.551   8.971  0.1828  0.1859  0.2397
  295loPI   C3B 4719   7.995   7.540   8.570  0.3665  0.1038 -0.1692
  295loPI   C4B 4720   8.143   7.513   8.228  0.0251  0.1588  0.0377
  296loPI    C1 4721   4.324  16.538  11.266  0.0008 -0.1761  0.2132
  296loPI    C2 4722   3.925  16.510  11.257 -0.0223  0.1481  0.0828
  296loPI    C3 4723   4.102  16.867  11.215  0.2917 -0.0338 -0.1934
  296loPI   PO4 4724   4.553  16.375  10.963  0.0669 -0.1218  0.1626
  296loPI   GL1 4725   4.688  16.328  10.478 -0.0557  0.1333  0.0494
  296loPI   GL2 4726   4.320  16.387  10.399  0.0936  0.0204 -0.0114
  296loPI   C1A 4727   4.829  16.323  10.065 -0.1048  0.3550 -0.0428
  296loPI   C2A 4728   4.822  16.372   9.687 -0.2917 -0.1005  0.1724
  296loPI   C3A 4729   4.823  16.344   9.310  0.2754  0.1207  0.0754
  296loPI   C4A 4730   4.781  16.360   8.923 -0.1653 -0.1063 -0.2051
  296loPI   C5A 4731   4.712  16.390   8.461 -0.0585  0.0427  0.1011
  296loPI   C6A 4732   5.071  16.390   8.191  0.1778  0.4117  0.0387
  296loPI   C1B 4733   4.342  16.503  10.039 -0.4610  0.1495  0.1345
  296loPI   C2B 4734   4.323  16.415   9.690  0.1536 -0.0395 -0.2651
  296loPI   C3B 4735   4.320  16.428   9.191  0.0101 -0.0033  0.0134
  296loPI   C4B 4736   4.296  16.508   8.833  0.1150  0.0104  0.0745
  297loPI    C1 4737   6.979   0.897  10.700  0.0124 -0.0908 -0.1545
  297loPI    C2 4738   6.730   0.729  10.965 -0.1136  0.0787 -0.1641
  297loPI    C3 4739   7.073   0.893  11.088 -0.1139  0.0474 -0.1215
  297loPI   PO4 4740   7.010   0.781  10.508  0.1801 -0.2276 -0.0044
  297loPI   GL1 4741   7.289   0.856  10.266  0.2205 -0.0062 -0.1313
  297loPI   GL2 4742   7.722   0.777  10.240  0.1980  0.0168  0.0149
  297loPI   C1A 4743   7.337   0.676   9.831  0.0787  0.0012  0.0656
  297loPI   C2A 4744   7.314   0.662   9.435  0.1029  0.2205 -0.2437
  297loPI   C3A 4745   7.428   0.604   9.090 -0.2598  0.0693 -0.0564
  297loPI   C4A 4746   7.431   0.627   8.693  0.0386 -0.3904  0.1722
  297loPI   C5A 4747   7.338   0.532   8.342  0.4866 -0.0628 -0.3618
  297loPI   C6A 4748   7.262   0.580   7.946 -0.6574  0.0500 -0.0868
  297loPI   C1B 4749   7.815   0.727   9.825  0.0039 -0.2144 -0.2450
  297loPI   C2B 4750   7.847   0.668   9.356  0.0793  0.0113 -0.2320
  297loPI   C3B 4751   7.962   0.538   8.944 -0.1219  0.1209 -0.1550
  297loPI   C4B 4752   8.038   0.529   8.523  0.3444  0.1545 -0.1818
  298loPI    C1 4753   1.268   6.911  11.003  0.1776 -0.0436  0.2677
  298loPI    C2 4754   1.143   6.986  11.375 -0.0734  0.0141  0.1738
  298loPI    C3 4755   1.016   7.214  11.072  0.0448 -0.0992  0.0378
  298loPI   PO4 4756   1.610   6.952  10.940  0.3182  0.1675  0.0319
  298loPI   GL1 4757   1.754   6.881  10.530  0.0507  0.4192  0.0036
  298loPI   GL2 4758   1.757   6.568  10.574 -0.0563  0.0636  0.1978
  298loPI   C1A 4759   1.536   6.862  10.155 -0.1914 -0.1019  0.1446
  298loPI   C2A 4760   1.462   6.770   9.794 -0.4286 -0.3306 -0.4314
  298loPI   C3A 4761   1.532   6.773   9.395 -0.2123 -0.1171  0.1355
  298loPI   C4A 4762   1.534   6.754   8.915  0.1881  0.1736  0.1542
  298loPI   C5A 4763   1.467   6.492   8.516  0.0552 -0.0024 -0.1252
  298loPI   C6A 4764   1.077   6.360   8.392 -0.0313 -0.0478 -0.1870
  298loPI   C1B 4765   1.820   6.437  10.225 -0.1475 -0.1114 -0.0913
  298loPI   C2B 4766   1.732   6.277   9.818  0.0853 -0.2869 -0.2215
  298loPI   C3B 4767   1.701   6.329   9.501 -0.1505  0.1413  0.1064
  298loPI   C4B 4768   1.682   6.282   9.053 -0.0730 -0.0954  0.0768
  299loPI    C1 4769   2.128   4.905  11.376 -0.0257 -0.0454  0.0712
  299loPI    C2 4770   1.943   4.933  11.730  0.1899 -0.2102  0.1992
  299loPI    C3 4771   2.336   4.999  11.704  0.1421 -0.0030 -0.0463
  299loPI   PO4 4772   2.020   5.012  11.195 -0.0575 -0.0104 -0.1155
  299loPI   GL1 4773   1.960   5.113  10.805 -0.0514  0.1348  0.1613
  299loPI   GL2 4774   1.923   4.854  10.752  0.3417 -0.0940  0.1300
  299loPI   C1A 4775   2.229   5.178  10.528  0.0070 -0.0675 -0.0472
  299loPI   C2A 4776   2.175   5.174  10.080  0.1486  0.0147  0.1055
  299loPI   C3A 4777   2.227   5.294   9.654 -0.0355  0.1018 -0.2679
  299loPI   C4A 4778   2.139   5.181   9.219 -0.1594  0.1159  0.2968
  299loPI   C5A 4779   1.974   5.325   8.820  0.0207  0.0304  0.0517
  299loPI   C6A 4780   1.570   5.349   8.736 -0.4788  0.0082  0.1396
  299loPI   C1B 4781   1.827   4.842  10.380 -0.1308 -0.1177 -0.2338
  299loPI   C2B 4782   1.859   4.765   9.977  0.1250  0.0236  0.0883
  299loPI   C3B 4783   1.813   4.851   9.567  0.2724  0.0094  0.0849
  299loPI   C4B 4784   1.775   4.813   9.117  0.0373  0.1046  0.2696
  300loPI    C1 4785  16.036  14.935  11.049  0.0564 -0.0063  0.0247
  300loPI    C2 4786  16.191  15.096  11.381 -0.1529 -0.0268  0.1339
  300loPI    C3 4787  16.173  14.698  11.342  0.1241 -0.0260 -0.0229
  300loPI   PO4 4788  16.130  15.026  10.895 -0.2742 -0.0523  0.0352
  300loPI   GL1 4789  16.420  15.062  10.623 -0.1059 -0.2068  0.2647
  300loPI   GL2 4790  16.407  15.199  10.417  0.0244 -0.4838  0.2528
  300loPI   C1A 4791  16.505  14.705  10.379  0.2966  0.0022  0.1754
  300loPI   C2A 4792  16.444  14.600  10.078  0.0309  0.4751  0.0281
  300loPI   C3A 4793  16.488  14.663   9.613 -0.2553 -0.1417 -0.0871
  300loPI   C4A 4794  16.604  14.806   9.234  0.2819 -0.0486  0.1498
  300loPI   C5A 4795  16.614  14.768   8.737  0.0925 -0.0891 -0.0670
  300loPI   C6A 4796  16.472  14.555   8.286 -0.3100  0.0090 -0.1144
  300loPI   C1B 4797  16.344  15.072  10.036 -0.0976 -0.0967  0.0557
  300loPI   C2B 4798  16.373  15.179   9.635  0.0760 -0.1632  0.1036
  300loPI   C3B 4799  16.438  15.299   9.253 -0.1820 -0.4217  0.1749
  300loPI   C4B 4800  16.415  15.279   8.830  0.1336  0.2640 -0.0325
  301loPI    C1 4801  15.162   7.118  11.137  0.0147  0.2655 -0.3446
  301loPI    C2 4802  14.852   7.192  10.894 -0.1601  0.2504 -0.1291
  301loPI    C3 4803  14.792   7.146  11.287  0.0653 -0.1290 -0.1341
  301loPI   PO4 4804  15.302   7.316  10.965 -0.1008 -0.0570  0.1007
  301loPI   GL1 4805  15.462   7.513  10.589 -0.2468  0.3091  0.1012
  301loPI   GL2 4806  15.172   7.572  10.585  0.1510 -0.2610 -0.1670
  301loPI   C1A 4807  15.376   7.547  10.112 -0.0687 -0.2093 -0.0281
  301loPI   C2A 4808  15.437   7.507   9.635  0.3050 -0.1335 -0.1758
  301loPI   C3A 4809  15.556   7.552   9.211  0.2087  0.0280  0.2254
  301loPI   C4A 4810  15.516   7.445   8.729  0.1292 -0.0601  0.1158
  301loPI   C5A 4811  15.295   7.357   8.407 -0.1504  0.1802 -0.1190
  301loPI   C6A 4812  15.021   7.512   8.165 -0.0024  0.0448  0.1587
  301loPI   C1B 4813  14.977   7.160  10.391  0.2324 -0.1579 -0.0382
  301loPI   C2B 4814  15.038   7.024   9.897 -0.1949 -0.0554 -0.0176
  301loPI   C3B 4815  15.111   7.192   9.512 -0.3507  0.0559  0.3356
  301loPI   C4B 4816  15.287   7.104   9.111  0.1562 -0.0389 -0.1957
  302loPI    C1 4817   6.261   9.028  10.702 -0.0351  0.0282  0.1644
  302loPI    C2 4818   6.082   9.205  11.012  0.0081  0.1391  0.1266
  302loPI    C3 4819   6.481   9.187  10.995  0.0077  0.2049  0.0385
  302loPI   PO4 4820   6.122   9.163  10.467 -0.0897 -0.0055  0.2588
  302loPI   GL1 4821   5.758   8.993  10.108 -0.1949 -0.2950 -0.0403
  302loPI   GL2 4822   5.540   9.210  10.165  0.1611 -0.0922 -0.3835
  302loPI   C1A 4823   5.602   8.824   9.734 -0.3267  0.0440 -0.2900
  302loPI   C2A 4824   5.562   8.793   9.325 -0.1663  0.0971 -0.0360
  302loPI   C3A 4825   5.472   8.881   8.875  0.0727  0.3115 -0.0648
  302loPI   C4A 4826   5.561   8.839   8.442 -0.0878  0.4461  0.0254
  302loPI   C5A 4827   5.450   9.181   8.093 -0.3230 -0.0528  0.2667
  302loPI   C6A 4828   5.367   9.126   7.657  0.1617 -0.3794  0.3890
  302loPI   C1B 4829   5.475   9.312   9.753  0.2111 -0.0037  0.1588
  302loPI   C2B 4830   5.525   9.407   9.360 -0.2728 -0.1334 -0.3140
  302loPI   C3B 4831   5.342   9.373   8.924  0.0254  0.1557 -0.0192
  302loPI   C4B 4832   5.346   9.359   8.591 -0.0094 -0.1457  0.1789
  303loPI    C1 4833   6.035   3.059  10.663 -0.2140  0.0122  0.0707
  303loPI    C2 4834   5.972   3.319  10.961 -0.2088 -0.0830  0.1556
  303loPI    C3 4835   6.031   2.932  11.043  0.0036 -0.0756  0.0453
  303loPI   PO4 4836   6.181   3.185  10.539  0.2154 -0.0987  0.0087
  303loPI   GL1 4837   5.954   3.218  10.146  0.0314  0.2545  0.3538
  303loPI   GL2 4838   5.651   3.119  10.194  0.0151  0.2297 -0.3535
  303loPI   C1A 4839   5.835   3.298   9.727 -0.0098 -0.0164 -0.0847
  303loPI   C2A 4840   5.825   3.336   9.238  0.2771 -0.4527 -0.2243
  303loPI   C3A 4841   5.788   3.252   8.884 -0.0898 -0.4178  0.3705
  303loPI   C4A 4842   6.026   3.123   8.617 -0.2782 -0.2735 -0.0672
  303loPI   C5A 4843   6.176   2.876   8.255 -0.1213 -0.0123 -0.0225
  303loPI   C6A 4844   6.315   2.542   8.019  0.0321  0.4299  0.1499
  303loPI   C1B 4845   5.550   2.887   9.874  0.1932 -0.1474 -0.0454
  303loPI   C2B 4846   5.474   2.940   9.510  0.0817  0.0961 -0.0330
  303loPI   C3B 4847   5.543   2.896   9.081  0.0450 -0.0059 -0.1498
  303loPI   C4B 4848   5.700   2.778   8.731 -0.1578  0.1264 -0.1880
  304loPI    C1 4849  16.021  15.754  10.820  0.1257 -0.0274 -0.1401
  304loPI    C2 4850  16.083  15.463  11.087 -0.1073 -0.0066 -0.0611
  304loPI    C3 4851  16.336  15.510  10.781 -0.0374 -0.2570 -0.0445
  304loPI   PO4 4852  15.780  15.732  10.759 -0.1415 -0.0401 -0.0162
  304loPI   GL1 4853  15.481  15.527  10.533  0.2618  0.0507 -0.3715
  304loPI   GL2 4854  15.287  15.889  10.487 -0.3714  0.0507  0.1506
  304loPI   C1A 4855  15.264  15.472  10.230  0.1358  0.0524 -0.0022
  304loPI   C2A 4856  15.218  15.516   9.923 -0.1656 -0.1868  0.3601
  304loPI   C3A 4857  15.360  15.455   9.492 -0.0624 -0.0079  0.0254
  304loPI   C4A 4858  15.474  15.358   9.081 -0.0565  0.0751 -0.2252
  304loPI   C5A 4859  15.602  15.330   8.615 -0.2756 -0.3249 -0.0905
  304loPI   C6A 4860  15.938  15.542   8.448  0.2171 -0.2243 -0.0574
  304loPI   C1B 4861  15.068  15.943  10.126  0.2300 -0.3507  0.1485
  304loPI   C2B 4862  15.146  15.941   9.660  0.1373  0.2142  0.3221
  304loPI   C3B 4863  15.271  15.909   9.293 -0.2647 -0.1006 -0.1196
  304loPI   C4B 4864  15.248  15.959   8.883 -0.0854 -0.0452 -0.1071
  305loPI    C1 4865   4.565   0.209  11.205 -0.1970 -0.1975  0.3210
  305loPI    C2 4866   4.550   0.606  11.160  0.0933 -0.1915  0.2591
  305loPI    C3 4867   4.230   0.408  11.295 -0.3182 -0.0296 -0.4302
  305loPI   PO4 4868   4.611   0.043  10.933  0.0488  0.3151 -0.3521
  305loPI   GL1 4869   4.882   0.008  10.562  0.4344 -0.1442 -0.1164
  305loPI   GL2 4870   5.125   0.160  10.373  0.1910  0.0471 -0.0239
  305loPI   C1A 4871   4.818  -0.243  10.196 -0.2239 -0.0388 -0.0778
  305loPI   C2A 4872   4.866  -0.195   9.744  0.1754  0.1125 -0.0103
  305loPI   C3A 4873   4.841  -0.429   9.311  0.1085  0.1264 -0.0356
  305loPI   C4A 4874   4.786  -0.339   8.838  0.0525 -0.3750  0.0151
  305loPI   C5A 4875   4.753  -0.229   8.384 -0.0823  0.1015 -0.1755
  305loPI   C6A 4876   5.127  -0.218   8.166  0.1733  0.2012 -0.0794
  305loPI   C1B 4877   5.093   0.224   9.900 -0.2247  0.1432  0.2615
  305loPI   C2B 4878   5.106   0.137   9.443 -0.0165 -0.0897  0.2700
  305loPI   C3B 4879   5.132  -0.005   9.118  0.1379 -0.0517  0.1006
  305loPI   C4B 4880   5.139   0.096   8.654  0.1044  0.1666 -0.1994
  306loPI    C1 4881   2.819   0.154  10.942 -0.1760  0.0853  0.1276
  306loPI    C2 4882   3.096   0.339  10.721  0.1855 -0.2989  0.2450
  306loPI    C3 4883   3.069   0.415  11.113 -0.0462 -0.0779  0.1894
  306loPI   PO4 4884   2.710  -0.009  10.678  0.3963  0.1365 -0.1937
  306loPI   GL1 4885   2.899  -0.290  10.330  0.1394  0.3228 -0.0810
  306loPI   GL2 4886   2.703   0.063  10.189  0.0695 -0.0056 -0.2942
  306loPI   C1A 4887   2.871  -0.448   9.962 -0.2850  0.1051  0.1104
  306loPI   C2A 4888   2.901  -0.473   9.502 -0.1958 -0.1887  0.2421
  306loPI   C3A 4889   2.895  -0.492   9.084  0.0471 -0.0943  0.0782
  306loPI   C4A 4890   2.845  -0.548   8.611  0.0384 -0.0732 -0.0907
  306loPI   C5A 4891   2.634  -0.494   8.204 -0.2655 -0.2149 -0.0512
  306loPI   C6A 4892   2.345  -0.176   7.948 -0.1925  0.1026 -0.0467
  306loPI   C1B 4893   2.795  -0.038   9.690  0.0832  0.2124 -0.0569
  306loPI   C2B 4894   2.783  -0.015   9.234 -0.0625  0.2784 -0.1513
  306loPI   C3B 4895   2.895  -0.006   8.758 -0.1390  0.2797 -0.1619
  306loPI   C4B 4896   2.966  -0.063   8.341  0.0693 -0.0573 -0.1198
  307loPI    C1 4897   4.689  15.807  10.700  0.1051 -0.0496  0.0137
  307loPI    C2 4898   4.755  15.566  11.013 -0.1533  0.0350  0.1357
  307loPI    C3 4899   4.865  15.452  10.646 -0.1611 -0.2152  0.2097
  307loPI   PO4 4900   4.393  15.928  10.738  0.0358  0.2420 -0.0889
  307loPI   GL1 4901   4.161  15.850  10.422 -0.1566  0.0782 -0.2174
  307loPI   GL2 4902   4.256  15.585  10.341 -0.1387  0.0686 -0.1953
  307loPI   C1A 4903   4.012  16.109  10.118 -0.1517  0.4699  0.2328
  307loPI   C2A 4904   3.920  16.017   9.561 -0.2728  0.0529 -0.0897
  307loPI   C3A 4905   3.875  16.108   9.134  0.3175 -0.1784 -0.2814
  307loPI   C4A 4906   3.912  16.036   8.757 -0.2610  0.0145  0.0769
  307loPI   C5A 4907   3.778  16.063   8.359  0.0920  0.1905 -0.1719
  307loPI   C6A 4908   3.450  15.913   8.134  0.1835  0.0900  0.1600
  307loPI   C1B 4909   3.978  15.606   9.883  0.0832 -0.0953  0.1546
  307loPI   C2B 4910   4.049  15.471   9.533 -0.2296 -0.1738  0.1480
  307loPI   C3B 4911   4.108  15.499   9.085 -0.0379  0.2049 -0.1020
  307loPI   C4B 4912   4.112  15.621   8.725  0.1833  0.0639  0.0689
  308loPI    C1 4913  10.555  15.945  10.637  0.2503 -0.0256  0.1126
  308loPI    C2 4914  10.755  15.808  10.955  0.1791 -0.2496  0.0628
  308loPI    C3 4915  10.410  16.004  11.006 -0.0466 -0.6499  0.1075
  308loPI   PO4 4916  10.780  16.041  10.473  0.0759 -0.0504  0.2127
  308loPI   GL1 4917  11.027  16.274  10.295 -0.1709  0.0730 -0.2324
  308loPI   GL2 4918  10.749  16.506  10.142  0.4479  0.2033 -0.1045
  308loPI   C1A 4919  11.096  16.399   9.833  0.2034  0.0425 -0.0345
  308loPI   C2A 4920  11.109  16.658   9.550 -0.2383  0.0199  0.2217
  308loPI   C3A 4921  11.077  16.743   9.090 -0.0388 -0.2581 -0.0375
  308loPI   C4A 4922  10.980  16.736   8.754  0.0760  0.1443 -0.1610
  308loPI   C5A 4923  11.247  16.703   8.385  0.0788 -0.1708 -0.1949
  308loPI   C6A 4924  11.428  16.646   8.002  0.1795 -0.1733  0.1119
  308loPI   C1B 4925  10.630  16.699   9.845 -0.2411  0.4422  0.1376
  308loPI   C2B 4926  10.639  16.754   9.364  0.1307  0.2004 -0.1053
  308loPI   C3B 4927  10.557  16.770   8.998 -0.3277 -0.1795 -0.0331
  308loPI   C4B 4928  10.521  16.889   8.511 -0.1999 -0.2739  0.0694
  309loPI    C1 4929   6.693  13.984  10.777  0.0279 -0.1403 -0.0534
  309loPI    C2 4930   6.517  13.775  11.069  0.2759 -0.0304  0.1797
  309loPI    C3 4931   6.894  13.901  11.114  0.2617  0.1275 -0.1230
  309loPI   PO4 4932   6.735  13.951  10.612 -0.0029 -0.1271  0.2370
  309loPI   GL1 4933   6.682  14.048  10.098  0.0425  0.0718  0.0325
  309loPI   GL2 4934   6.775  13.750  10.081 -0.0850  0.0459 -0.1458
  309loPI   C1A 4935   6.606  14.249   9.833  0.0536 -0.0664  0.0997
  309loPI   C2A 4936   6.556  14.245   9.360 -0.3103 -0.0543  0.1908
  309loPI   C3A 4937   6.499  14.256   8.905  0.1591  0.3152  0.0729
  309loPI   C4A 4938   6.699  14.218   8.534 -0.1619 -0.2364  0.1161
  309loPI   C5A 4939   6.938  14.476   8.193  0.1084 -0.0002  0.0377
  309loPI   C6A 4940   7.300  14.712   8.063  0.1833  0.1828  0.0474
  309loPI   C1B 4941   6.622  13.741   9.616  0.0636  0.1295 -0.1008
  309loPI   C2B 4942   6.597  13.773   9.210 -0.1238  0.2290  0.1140
  309loPI   C3B 4943   6.668  13.700   8.747 -0.1003  0.0102  0.1650
  309loPI   C4B 4944   6.682  13.712   8.356 -0.0386 -0.3392  0.2406
  310loPI    C1 4945   2.362  10.712  11.230  0.0895  0.0472  0.3256
  310loPI    C2 4946   1.992  10.560  11.220  0.1431 -0.0689 -0.0773
  310loPI    C3 4947   2.046  10.949  11.298 -0.0614 -0.0548  0.0018
  310loPI   PO4 4948   2.548  10.578  10.928 -0.1309  0.0080 -0.2314
  310loPI   GL1 4949   2.585  10.527  10.541  0.0162  0.2448 -0.2044
  310loPI   GL2 4950   2.716  10.889  10.505  0.0228 -0.1612 -0.2469
  310loPI   C1A 4951   2.633  10.279  10.138  0.1491  0.0537 -0.0752
  310loPI   C2A 4952   2.565  10.375   9.764  0.1715  0.2626  0.1272
  310loPI   C3A 4953   2.534  10.428   9.265  0.0735 -0.1737  0.0548
  310loPI   C4A 4954   2.524  10.345   8.820 -0.1098 -0.1977  0.0926
  310loPI   C5A 4955   2.296  10.339   8.372  0.0436  0.0594 -0.1084
  310loPI   C6A 4956   2.058  10.327   7.956  0.2139  0.0343  0.3986
  310loPI   C1B 4957   2.514  10.864  10.058 -0.0767  0.2639 -0.1542
  310loPI   C2B 4958   2.568  10.866   9.626 -0.0692 -0.0086  0.1079
  310loPI   C3B 4959   2.420  10.948   9.277  0.0488 -0.1767 -0.1451
  310loPI   C4B 4960   2.342  10.918   8.801 -0.1750  0.1220  0.1569
  311loPI    C1 4961  17.258  14.523  10.946  0.1919 -0.1757  0.2439
  311loPI    C2 4962  17.288  14.912  11.036 -0.0492 -0.0414 -0.2250
  311loPI    C3 4963  17.028  14.681  11.233 -0.1510  0.1126 -0.1774
  311loPI   PO4 4964  17.546  14.493  10.890  0.1854  0.3539  0.0618
  311loPI   GL1 4965  17.712  14.698  10.509 -0.2368 -0.3256  0.0028
  311loPI   GL2 4966  17.943  14.959  10.432  0.1125  0.0207 -0.0294
  311loPI   C1A 4967  17.749  14.672  10.070  0.1908  0.0475 -0.2247
  311loPI   C2A 4968  17.579  14.481   9.711 -0.2461  0.2588  0.0468
  311loPI   C3A 4969  17.545  14.552   9.285  0.3586 -0.0422 -0.2020
  311loPI   C4A 4970  17.639  14.560   8.888  0.2770  0.0968 -0.2287
  311loPI   C5A 4971  17.568  14.967   8.520  0.1582  0.2090  0.0914
  311loPI   C6A 4972  17.798  15.247   8.438  0.0810 -0.1323 -0.2217
  311loPI   C1B 4973  18.019  15.058   9.986 -0.2338  0.0249  0.0740
  311loPI   C2B 4974  18.013  14.968   9.628  0.2199 -0.2678  0.2456
  311loPI   C3B 4975  17.994  14.994   9.251 -0.0265 -0.2740  0.0940
  311loPI   C4B 4976  17.924  14.976   8.854 -0.4489 -0.0165  0.0417
  312loPI    C1 4977  12.540  10.925  10.730 -0.1708  0.1693  0.0159
  312loPI    C2 4978  12.633  10.686  11.036 -0.1255 -0.1633 -0.2517
  312loPI    C3 4979  12.357  10.972  11.082  0.0887 -0.0178  0.1792
  312loPI   PO4 4980  12.688  10.759  10.521  0.1664  0.2654 -0.0518
  312loPI   GL1 4981  12.818  10.931  10.126  0.1183 -0.0298 -0.1227
  312loPI   GL2 4982  12.887  11.037   9.921  0.0243  0.2973 -0.0332
  312loPI   C1A 4983  13.177  10.629   9.836  0.1994 -0.0526  0.1439
  312loPI   C2A 4984  13.233  10.565   9.367 -0.0265  0.1523  0.1815
  312loPI   C3A 4985  13.368  10.628   9.030 -0.2228 -0.1603 -0.0464
  312loPI   C4A 4986  13.463  10.570   8.578  0.1226 -0.1965  0.2512
  312loPI   C5A 4987  13.471  10.793   8.179  0.1894 -0.2148 -0.1283
  312loPI   C6A 4988  13.412  11.201   8.057  0.4834 -0.0378  0.1517
  312loPI   C1B 4989  12.884  10.901   9.508 -0.0152 -0.1675  0.1765
  312loPI   C2B 4990  12.945  10.868   9.135  0.3934 -0.0512  0.0450
  312loPI   C3B 4991  12.994  10.768   8.700 -0.2776  0.2790  0.2210
  312loPI   C4B 4992  13.044  10.566   8.279 -0.1831  0.0214  0.1574
  313loPI    C1 4993   6.666   5.634  10.841  0.0195 -0.2861  0.1731
  313loPI    C2 4994   6.657   6.026  10.917 -0.1616 -0.1561 -0.4597
  313loPI    C3 4995   6.474   5.770  11.164  0.0272  0.1418  0.0037
  313loPI   PO4 4996   6.738   5.629  10.631 -0.1570 -0.0442  0.1543
  313loPI   GL1 4997   6.688   5.422  10.297  0.0849  0.1341  0.4103
  313loPI   GL2 4998   6.532   5.656  10.142  0.2145 -0.2609  0.0945
  313loPI   C1A 4999   6.496   5.228   9.822 -0.2178 -0.2667  0.1764
  313loPI   C2A 5000   6.367   5.207   9.471 -0.0376 -0.4285  0.0345
  313loPI   C3A 5001   6.399   5.225   9.032  0.3519 -0.0001 -0.1816
  313loPI   C4A 5002   6.429   5.207   8.594 -0.2994  0.1319 -0.0630
  313loPI   C5A 5003   6.440   4.968   8.337 -0.0150  0.2333  0.0604
  313loPI   C6A 5004   6.227   4.598   8.158  0.3311  0.0167  0.1833
  313loPI   C1B 5005   6.596   5.667   9.702  0.0307 -0.1053 -0.1396
  313loPI   C2B 5006   6.418   5.726   9.292  0.0890 -0.1258 -0.2354
  313loPI   C3B 5007   6.459   5.764   8.836 -0.1092 -0.0482 -0.2107
  313loPI   C4B 5008   6.591   5.656   8.395 -0.0166  0.0393  0.0858
  314loPI    C1 5009   2.979   3.359  11.030  0.0223 -0.1049  0.0516
  314loPI    C2 5010   2.611   3.204  11.045 -0.1317  0.2585  0.1536
  314loPI    C3 5011   2.823   3.247  11.381  0.0583 -0.0673  0.0797
  314loPI   PO4 5012   2.987   3.257  10.647 -0.0225 -0.2066  0.1171
  314loPI   GL1 5013   3.062   3.466  10.339  0.2907 -0.0673  0.1574
  314loPI   GL2 5014   3.236   3.832  10.310  0.1332  0.2088 -0.0237
  314loPI   C1A 5015   2.966   3.307   9.886  0.0450  0.2713  0.0177
  314loPI   C2A 5016   2.903   3.281   9.403 -0.0415 -0.1783 -0.0461
  314loPI   C3A 5017   3.039   3.257   9.100 -0.2127  0.1247  0.2477
  314loPI   C4A 5018   2.968   3.248   8.662 -0.2390 -0.1246 -0.0144
  314loPI   C5A 5019   3.250   3.221   8.389 -0.0438  0.0787  0.0925
  314loPI   C6A 5020   3.564   3.046   8.096 -0.1673 -0.0268  0.0326
  314loPI   C1B 5021   3.160   3.750   9.880 -0.1470 -0.1108 -0.1907
  314loPI   C2B 5022   3.267   3.695   9.295  0.2881  0.2892  0.1271
  314loPI   C3B 5023   3.307   3.661   8.814 -0.0051 -0.0166  0.1197
  314loPI   C4B 5024   3.522   3.641   8.412 -0.0309  0.1828 -0.2776
  315loPI    C1 5025   3.194  11.110  11.201 -0.0250 -0.1274 -0.1157
  315loPI    C2 5026   3.229  11.460  11.392 -0.0219 -0.1161 -0.1368
  315loPI    C3 5027   3.252  11.118  11.597 -0.1176 -0.1024 -0.1023
  315loPI   PO4 5028   3.350  11.221  10.961  0.1535  0.0220 -0.0595
  315loPI   GL1 5029   3.385  11.173  10.555 -0.0917 -0.1893  0.3193
  315loPI   GL2 5030   3.231  11.441  10.489 -0.2016 -0.2974  0.5030
  315loPI   C1A 5031   3.380  11.136  10.102 -0.0192 -0.0301 -0.0193
  315loPI   C2A 5032   3.342  11.219   9.573  0.2757 -0.0479 -0.1333
  315loPI   C3A 5033   3.331  11.149   9.176  0.0358  0.2856  0.3368
  315loPI   C4A 5034   3.248  11.224   8.694 -0.0505  0.0494 -0.0204
  315loPI   C5A 5035   2.838  11.117   8.446  0.1577 -0.0533  0.4411
  315loPI   C6A 5036   2.665  10.746   8.351  0.2089  0.0649  0.1709
  315loPI   C1B 5037   2.901  11.254  10.248 -0.0888 -0.1158  0.0420
  315loPI   C2B 5038   2.842  11.252   9.814  0.1692  0.1015 -0.1700
  315loPI   C3B 5039   2.809  11.215   9.362  0.0820 -0.2445 -0.0073
  315loPI   C4B 5040   2.720  11.227   8.940 -0.1246  0.1690 -0.1508
  316loPI    C1 5041  12.107  13.775  10.615  0.0430  0.1239  0.1871
  316loPI    C2 5042  11.744  13.761  10.781 -0.0085  0.2763  0.0903
  316loPI    C3 5043  12.007  14.038  10.898  0.0718  0.1769  0.1483
  316loPI   PO4 5044  12.194  13.560  10.569  0.3321 -0.0283  0.1007
  316loPI   GL1 5045  12.554  13.449  10.198  0.3049 -0.2927 -0.0081
  316loPI   GL2 5046  12.246  13.296  10.096 -0.0116 -0.0819 -0.3688
  316loPI   C1A 5047  12.466  13.429   9.688  0.1115  0.1175  0.1217
  316loPI   C2A 5048  12.496  13.558   9.247 -0.2168  0.0424  0.1888
  316loPI   C3A 5049  12.695  13.576   8.862  0.2107  0.0533  0.0507
  316loPI   C4A 5050  12.461  13.571   8.423 -0.0433 -0.1036 -0.2266
  316loPI   C5A 5051  12.124  13.233   8.137 -0.1157 -0.2121  0.4220
  316loPI   C6A 5052  11.898  13.040   7.778  0.1280  0.0392  0.1875
  316loPI   C1B 5053  12.221  12.997   9.784 -0.2535  0.2249  0.1489
  316loPI   C2B 5054  12.227  13.166   9.302  0.0138 -0.0338 -0.1984
  316loPI   C3B 5055  12.197  13.039   8.894 -0.1478 -0.0521  0.0306
  316loPI   C4B 5056  12.386  12.977   8.475 -0.1145  0.2429 -0.0986
  317loPI    C1 5057   9.875  15.834  10.928 -0.1161  0.2193 -0.0013
  317loPI    C2 5058  10.012  16.051  11.235  0.1526  0.1017 -0.0355
  317loPI    C3 5059   9.998  15.652  11.262 -0.0106  0.1019 -0.1034
  317loPI   PO4 5060  10.006  15.823  10.692 -0.2777 -0.0008  0.1953
  317loPI   GL1 5061   9.930  15.848  10.262 -0.2080 -0.0707  0.2654
  317loPI   GL2 5062   9.939  15.660   9.982  0.1041 -0.4777  0.2693
  317loPI   C1A 5063   9.871  16.101   9.856  0.2875 -0.3117  0.0859
  317loPI   C2A 5064  10.026  16.225   9.450  0.2471  0.2053  0.2315
  317loPI   C3A 5065  10.129  16.395   9.101 -0.2425 -0.3893 -0.1180
  317loPI   C4A 5066  10.243  16.496   8.715  0.1623  0.0261  0.0871
  317loPI   C5A 5067   9.996  16.437   8.322  0.1707 -0.3056  0.2423
  317loPI   C6A 5068   9.761  16.183   7.975  0.0693  0.0450 -0.1467
  317loPI   C1B 5069  10.094  15.714   9.580 -0.0012  0.1040  0.1172
  317loPI   C2B 5070  10.194  15.744   9.191  0.2447  0.1066 -0.1104
  317loPI   C3B 5071  10.373  15.899   8.848 -0.1802  0.0563  0.0193
  317loPI   C4B 5072  10.328  16.037   8.454 -0.0205 -0.0365  0.0048
  318loPI    C1 5073  10.467   0.163  11.255 -0.0617 -0.1283 -0.1791
  318loPI    C2 5074  10.837   0.072  11.377 -0.1268 -0.1930 -0.0279
  318loPI    C3 5075  10.651   0.393  11.526 -0.1999 -0.2621  0.0305
  318loPI   PO4 5076  10.479   0.104  10.975 -0.2016 -0.0694  0.2144
  318loPI   GL1 5077  10.605   0.147  10.534  0.0843  0.0212 -0.0939
  318loPI   GL2 5078  10.570   0.530  10.586 -0.3202  0.1342  0.0536
  318loPI   C1A 5079  10.379  -0.021  10.122 -0.1829 -0.1131  0.1542
  318loPI   C2A 5080  10.485   0.098   9.714 -0.2254  0.2507  0.1177
  318loPI   C3A 5081  10.423   0.220   9.282 -0.3400 -0.1830 -0.0099
  318loPI   C4A 5082  10.600   0.160   8.846 -0.3814  0.2766  0.3071
  318loPI   C5A 5083  10.693   0.115   8.361  0.0260  0.0514  0.3880
  318loPI   C6A 5084  10.616  -0.143   8.114 -0.1264 -0.0127  0.0115
  318loPI   C1B 5085  10.677   0.392  10.125  0.1094 -0.1663 -0.0611
  318loPI   C2B 5086  10.760   0.522   9.711  0.2812 -0.1540  0.0274
  318loPI   C3B 5087  10.814   0.592   9.339  0.0646 -0.1610 -0.1006
  318loPI   C4B 5088  10.986   0.571   8.882  0.1962  0.1112 -0.2906
  319loPI    C1 5089   9.609   1.259  11.080  0.1196 -0.0574  0.0084
  319loPI    C2 5090   9.297   1.417  11.275  0.0812 -0.0788 -0.0354
  319loPI    C3 5091   9.459   1.074  11.402 -0.0120 -0.1487 -0.1040
  319loPI   PO4 5092   9.543   1.327  10.837  0.0716 -0.1827  0.1426
  319loPI   GL1 5093   9.803   1.466  10.560  0.3856 -0.0376  0.1053
  319loPI   GL2 5094   9.934   1.659  10.762  0.0945  0.1345  0.3259
  319loPI   C1A 5095  10.056   1.236  10.249 -0.2475  0.1741  0.0116
  319loPI   C2A 5096   9.980   0.979   9.880 -0.0948  0.0744 -0.1074
  319loPI   C3A 5097  10.176   1.045   9.483  0.0054 -0.1708 -0.2587
  319loPI   C4A 5098  10.174   1.143   9.124  0.0299  0.0652 -0.3870
  319loPI   C5A 5099  10.309   1.089   8.780  0.2475  0.0636  0.3208
  319loPI   C6A 5100  10.066   1.100   8.313 -0.0689  0.1253 -0.2465
  319loPI   C1B 5101   9.992   1.738  10.216  0.2164  0.0719  0.0188
  319loPI   C2B 5102   9.956   1.486   9.809  0.0696 -0.0341 -0.3628
  319loPI   C3B 5103   9.996   1.557   9.338 -0.0150  0.0931  0.0195
  319loPI   C4B 5104  10.050   1.578   8.916 -0.2808  0.0990 -0.0186
  320loPI    C1 5105  15.674   3.904  11.103 -0.2261  0.1948  0.0107
  320loPI    C2 5106  15.842   3.956  11.462  0.0263 -0.1417 -0.0527
  320loPI    C3 5107  15.544   3.693  11.417  0.1199 -0.2362 -0.1247
  320loPI   PO4 5108  15.643   4.064  11.000 -0.0040  0.0362  0.3646
  320loPI   GL1 5109  15.469   4.224  10.692  0.0572 -0.1488  0.0917
  320loPI   GL2 5110  15.777   4.284  10.574  0.0386  0.0330  0.2656
  320loPI   C1A 5111  15.328   4.212  10.358  0.3818  0.3657  0.2527
  320loPI   C2A 5112  15.234   4.204   9.911 -0.2519  0.1492 -0.3108
  320loPI   C3A 5113  15.200   4.280   9.402 -0.3184 -0.0407 -0.2721
  320loPI   C4A 5114  15.191   4.263   8.963 -0.1795  0.3322  0.2225
  320loPI   C5A 5115  15.471   4.282   8.594  0.1014  0.0346  0.1028
  320loPI   C6A 5116  15.928   4.166   8.264 -0.1922  0.0591  0.2326
  320loPI   C1B 5117  15.785   4.177  10.201 -0.2265 -0.1853  0.2024
  320loPI   C2B 5118  15.747   4.192   9.700  0.0309 -0.1296  0.0562
  320loPI   C3B 5119  15.682   4.220   9.316 -0.1502  0.0079  0.4774
  320loPI   C4B 5120  15.746   4.062   8.962  0.0525 -0.0535  0.1598
  321loPI    C1 5121   7.060  12.267  10.557  0.0641 -0.0418 -0.0346
  321loPI    C2 5122   7.400  12.362  10.745 -0.1191  0.1446  0.2083
  321loPI    C3 5123   7.100  12.191  10.947 -0.0178 -0.4142 -0.0945
  321loPI   PO4 5124   7.020  12.344  10.316  0.3008  0.2738  0.0722
  321loPI   GL1 5125   6.954  12.201   9.885  0.0386  0.1256  0.0886
  321loPI   GL2 5126   7.283  12.381   9.866 -0.2727 -0.1508 -0.2264
  321loPI   C1A 5127   6.791  12.380   9.543  0.1047 -0.1563 -0.1723
  321loPI   C2A 5128   6.581  12.379   9.145 -0.1830  0.0043  0.2114
  321loPI   C3A 5129   6.625  12.427   8.802  0.0770 -0.1098  0.0621
  321loPI   C4A 5130   6.548  12.361   8.368  0.0119  0.0698 -0.1051
  321loPI   C5A 5131   6.634  12.504   7.955 -0.1065  0.0700 -0.3400
  321loPI   C6A 5132   6.810  12.533   7.534 -0.1052 -0.0052 -0.3298
  321loPI   C1B 5133   7.316  12.397   9.519  0.0578 -0.1319  0.0789
  321loPI   C2B 5134   7.333  12.233   9.082  0.1660 -0.0365  0.0558
  321loPI   C3B 5135   7.110  12.291   8.636 -0.0270 -0.1130 -0.0967
  321loPI   C4B 5136   7.125  12.252   8.199 -0.2114 -0.0763  0.0660
  322loPI    C1 5137   1.818  10.137  11.325 -0.1301 -0.0830  0.1506
  322loPI    C2 5138   1.420  10.174  11.331 -0.1232  0.0351 -0.0442
  322loPI    C3 5139   1.642  10.359  11.608 -0.1997  0.0178  0.0292
  322loPI   PO4 5140   1.792  10.202  10.937 -0.0443 -0.1626  0.0749
  322loPI   GL1 5141   1.732  10.140  10.539  0.0528 -0.3584  0.0909
  322loPI   GL2 5142   1.655  10.454  10.549 -0.1562  0.0338 -0.1620
  322loPI   C1A 5143   1.920  10.013  10.191 -0.0140  0.0649  0.1374
  322loPI   C2A 5144   1.884  10.066   9.799 -0.3042 -0.1304 -0.0006
  322loPI   C3A 5145   1.784   9.926   9.443 -0.0890  0.2617  0.2244
  322loPI   C4A 5146   1.666  10.001   9.024 -0.1267 -0.1076 -0.1370
  322loPI   C5A 5147   1.506  10.012   8.627 -0.0777  0.1129  0.2541
  322loPI   C6A 5148   1.555  10.092   8.185  0.2853  0.4678 -0.2531
  322loPI   C1B 5149   1.780  10.456  10.099  0.0653  0.0780  0.0331
  322loPI   C2B 5150   1.585  10.580   9.829  0.0148 -0.0404  0.0846
  322loPI   C3B 5151   1.578  10.440   9.384  0.2749  0.0746 -0.2122
  322loPI   C4B 5152   1.515  10.446   8.951  0.3307  0.3486 -0.0510
  323loPI    C1 5153  15.804   1.854  11.246 -0.1656 -0.2178 -0.0986
  323loPI    C2 5154  16.048   1.750  11.546 -0.0538  0.0545 -0.0918
  323loPI    C3 5155  16.045   2.127  11.412 -0.1143 -0.0599 -0.4240
  323loPI   PO4 5156  15.862   1.797  10.983  0.2800 -0.0970 -0.0748
  323loPI   GL1 5157  15.959   1.941  10.590 -0.0678  0.1313 -0.1801
  323loPI   GL2 5158  16.153   1.816  10.595 -0.0115 -0.1155 -0.3253
  323loPI   C1A 5159  15.912   2.297  10.259 -0.2925 -0.3395  0.1482
  323loPI   C2A 5160  15.902   2.310   9.829  0.3174  0.1377  0.1131
  323loPI   C3A 5161  15.951   2.312   9.342 -0.1389 -0.0991 -0.2173
  323loPI   C4A 5162  16.082   2.289   8.934 -0.0677  0.1021 -0.1811
  323loPI   C5A 5163  16.120   1.905   8.688  0.1759  0.0705  0.5481
  323loPI   C6A 5164  15.875   1.756   8.255 -0.0467  0.1411 -0.1085
  323loPI   C1B 5165  16.063   1.824  10.134  0.1272 -0.0508  0.3739
  323loPI   C2B 5166  16.192   1.836   9.686 -0.1841 -0.0170  0.1397
  323loPI   C3B 5167  16.179   1.848   9.200  0.0104 -0.2339 -0.3215
  323loPI   C4B 5168  16.351   1.613   8.980 -0.1427 -0.1396  0.0186
  324loPI    C1 5169   8.212   7.369  10.575  0.1334  0.0257  0.0751
  324loPI    C2 5170   7.854   7.310  10.743  0.0723  0.0325 -0.0516
  324loPI    C3 5171   8.092   7.602  10.877  0.0171  0.0485  0.0119
  324loPI   PO4 5172   8.224   7.129  10.426 -0.0370  0.1853  0.0882
  324loPI   GL1 5173   8.241   7.185   9.929 -0.1190 -0.0518  0.0943
  324loPI   GL2 5174   8.398   6.842   9.989 -0.0430  0.1157 -0.0659
  324loPI   C1A 5175   8.401   7.323   9.520 -0.0067 -0.0864  0.0946
  324loPI   C2A 5176   8.387   7.422   9.091 -0.3706  0.3627 -0.0191
  324loPI   C3A 5177   8.535   7.534   8.659  0.1355 -0.2042  0.2635
  324loPI   C4A 5178   8.616   7.617   8.311  0.1606  0.0732  0.0817
  324loPI   C5A 5179   8.428   7.751   7.983  0.1985 -0.1151 -0.0263
  324loPI   C6A 5180   8.051   7.898   7.925 -0.1950  0.0262 -0.3688
  324loPI   C1B 5181   8.568   6.903   9.644 -0.2377  0.3222  0.2365
  324loPI   C2B 5182   8.629   6.956   9.223 -0.1955 -0.1597  0.0452
  324loPI   C3B 5183   8.624   7.091   8.817 -0.0213  0.0883  0.1502
  324loPI   C4B 5184   8.660   6.929   8.357  0.2520  0.1118 -0.0866
  325loPI    C1 5185   8.584   5.949  10.219  0.2263  0.2525 -0.0641
  325loPI    C2 5186   8.673   5.801   9.858 -0.1276  0.0993 -0.0928
  325loPI    C3 5187   8.493   5.570  10.130 -0.1104  0.2945  0.0874
  325loPI   PO4 5188   8.766   6.125  10.208  0.2383  0.2676 -0.1618
  325loPI   GL1 5189   9.160   6.227   9.989 -0.0346  0.1516  0.1961
  325loPI   GL2 5190   9.101   6.065   9.806 -0.0666 -0.1682  0.1020
  325loPI   C1A 5191   9.110   6.464   9.578  0.1709 -0.1888 -0.0067
  325loPI   C2A 5192   9.177   6.636   9.207 -0.0282 -0.1879  0.0882
  325loPI   C3A 5193   9.310   6.603   8.804 -0.3160 -0.1143  0.1429
  325loPI   C4A 5194   9.458   6.435   8.413 -0.0187  0.2635 -0.1805
  325loPI   C5A 5195   9.386   6.184   7.988  0.3390 -0.4672 -0.0724
  325loPI   C6A 5196   9.027   6.039   7.818 -0.1833  0.0587  0.0530
  325loPI   C1B 5197   8.874   6.005   9.422  0.1003 -0.0072  0.0899
  325loPI   C2B 5198   9.164   6.132   9.090 -0.0831  0.0215  0.2793
  325loPI   C3B 5199   9.247   5.936   8.683  0.1725 -0.0541  0.1868
  325loPI   C4B 5200   9.035   5.851   8.354 -0.2932  0.2764 -0.1022
  326loPI    C1 5201  16.729   8.155  10.784  0.0898  0.1184  0.0072
  326loPI    C2 5202  16.575   8.442  11.016 -0.2467  0.0461 -0.1214
  326loPI    C3 5203  16.847   8.190  11.165 -0.0405  0.3512  0.0279
  326loPI   PO4 5204  16.768   8.198  10.594 -0.1559  0.4271 -0.1825
  326loPI   GL1 5205  16.512   8.168  10.308 -0.1549 -0.1822  0.0148
  326loPI   GL2 5206  16.319   7.935  10.423  0.3379  0.3583  0.0192
  326loPI   C1A 5207  16.550   8.244   9.906 -0.0784  0.2178  0.2028
  326loPI   C2A 5208  16.625   8.118   9.439  0.2777  0.0751  0.1585
  326loPI   C3A 5209  16.557   8.101   9.015 -0.0094 -0.1675 -0.0634
  326loPI   C4A 5210  16.513   8.079   8.554 -0.1197  0.0201  0.1162
  326loPI   C5A 5211  16.225   7.910   8.246  0.2681 -0.1510 -0.1957
  326loPI   C6A 5212  15.891   8.073   8.074  0.1351  0.0706  0.1207
  326loPI   C1B 5213  16.238   7.837   9.971 -0.0810 -0.0730  0.1781
  326loPI   C2B 5214  16.279   7.799   9.583 -0.2935  0.0105 -0.3367
  326loPI   C3B 5215  16.186   7.769   9.120 -0.0123  0.0215  0.2700
  326loPI   C4B 5216  16.278   7.590   8.733 -0.0214  0.2446 -0.1110
  327loPI    C1 5217   5.674  14.907  10.924 -0.2298 -0.2413 -0.1178
  327loPI    C2 5218   5.447  14.758  11.218 -0.0515 -0.1634  0.0621
  327loPI    C3 5219   5.840  14.683  11.212 -0.0548 -0.1688 -0.1610
  327loPI   PO4 5220   5.662  14.822  10.659 -0.1193  0.2561 -0.0621
  327loPI   GL1 5221   5.959  14.637  10.336  0.1966 -0.1485  0.2919
  327loPI   GL2 5222   5.973  14.326  10.162  0.1955 -0.1752  0.1386
  327loPI   C1A 5223   5.799  14.760   9.895 -0.2282  0.2355 -0.0143
  327loPI   C2A 5224   5.776  14.788   9.508 -0.1518 -0.2626 -0.0615
  327loPI   C3A 5225   5.836  14.826   9.098 -0.3963  0.0808  0.2292
  327loPI   C4A 5226   5.814  14.894   8.647  0.1403 -0.3288  0.0326
  327loPI   C5A 5227   5.610  14.809   8.294  0.1445  0.2891  0.1431
  327loPI   C6A 5228   5.497  14.973   7.846  0.2854  0.0116 -0.1764
  327loPI   C1B 5229   5.965  14.306   9.663  0.2990  0.0217 -0.1280
  327loPI   C2B 5230   5.994  14.370   9.227  0.0675  0.1199 -0.1550
  327loPI   C3B 5231   5.979  14.422   8.783  0.0171  0.1761 -0.0799
  327loPI   C4B 5232   6.082  14.342   8.360  0.0231 -0.1077  0.3856
  328loPI    C1 5233   0.986   0.137  10.903 -0.1510 -0.1268 -0.1713
  328loPI    C2 5234   0.738   0.237  11.200 -0.0075 -0.3537  0.0295
  328loPI    C3 5235   1.027  -0.032  11.264  0.0987 -0.3184 -0.2857
  328loPI   PO4 5236   0.806   0.224  10.677  0.0068 -0.0533 -0.1173
  328loPI   GL1 5237   0.704  -0.006  10.358 -0.0134  0.0912  0.3212
  328loPI   GL2 5238   0.877   0.331  10.191  0.3282  0.2805  0.2228
  328loPI   C1A 5239   0.625  -0.053   9.914 -0.1426 -0.0494 -0.3226
  328loPI   C2A 5240   0.704   0.004   9.471  0.1434 -0.4480 -0.1023
  328loPI   C3A 5241   0.680   0.097   9.063  0.1042  0.0537 -0.1790
  328loPI   C4A 5242   0.726  -0.016   8.699 -0.1049 -0.0334 -0.1923
  328loPI   C5A 5243   0.719  -0.094   8.310 -0.1660 -0.1972  0.0403
  328loPI   C6A 5244   0.526  -0.012   7.839  0.0636  0.2600  0.3807
  328loPI   C1B 5245   0.869   0.435   9.719  0.1941  0.0160  0.4148
  328loPI   C2B 5246   0.931   0.462   9.325 -0.1944  0.2515 -0.2965
  328loPI   C3B 5247   1.097   0.493   8.872 -0.0485  0.0687  0.0882
  328loPI   C4B 5248   1.130   0.428   8.411 -0.1273  0.0033 -0.3322
  329loPI    C1 5249   1.604   5.244  11.228 -0.0829  0.0959 -0.0456
  329loPI    C2 5250   1.788   5.394  11.551 -0.0852  0.1509 -0.0697
  329loPI    C3 5251   1.424   5.231  11.585 -0.1669  0.3299 -0.0777
  329loPI   PO4 5252   1.497   5.412  11.073 -0.0414  0.2349  0.2924
  329loPI   GL1 5253   1.295   5.631  10.761  0.2352 -0.0731 -0.2434
  329loPI   GL2 5254   0.902   5.549  10.728  0.2577  0.1727  0.0697
  329loPI   C1A 5255   1.297   5.453  10.397 -0.1248 -0.0438 -0.1281
  329loPI   C2A 5256   1.168   5.490   9.994  0.0514 -0.1170 -0.4347
  329loPI   C3A 5257   1.116   5.484   9.587 -0.1701 -0.1187 -0.0900
  329loPI   C4A 5258   1.074   5.471   9.215  0.1287 -0.2381  0.1612
  329loPI   C5A 5259   1.042   5.388   8.768  0.0611 -0.1919 -0.0580
  329loPI   C6A 5260   1.072   5.452   8.321  0.5845 -0.1873  0.0089
  329loPI   C1B 5261   0.709   5.586  10.279  0.0946 -0.0280 -0.1296
  329loPI   C2B 5262   0.628   5.567   9.873 -0.0849 -0.2813  0.3405
  329loPI   C3B 5263   0.592   5.498   9.368  0.0631 -0.0125 -0.0304
  329loPI   C4B 5264   0.527   5.527   8.940  0.0451  0.2865  0.1704
  330loPI    C1 5265   7.004   9.185  10.907 -0.0897 -0.1423 -0.1519
  330loPI    C2 5266   7.174   8.825  10.945  0.0795 -0.0529 -0.0526
  330loPI    C3 5267   6.895   8.942  11.206  0.3840  0.0847  0.2186
  330loPI   PO4 5268   7.121   9.227  10.632 -0.1193 -0.0554  0.0967
  330loPI   GL1 5269   7.144   9.175  10.272 -0.1195  0.2492  0.0448
  330loPI   GL2 5270   6.793   9.004  10.223 -0.3573 -0.1524  0.1355
  330loPI   C1A 5271   7.358   9.259   9.812 -0.2094  0.1255  0.0193
  330loPI   C2A 5272   7.445   9.258   9.378 -0.5210 -0.0357  0.0194
  330loPI   C3A 5273   7.631   8.983   9.059 -0.3621 -0.2819  0.1081
  330loPI   C4A 5274   7.764   9.050   8.648  0.1251  0.1931  0.0407
  330loPI   C5A 5275   7.884   9.109   8.237  0.1734  0.0896 -0.0259
  330loPI   C6A 5276   8.149   9.275   7.888  0.1713 -0.0940 -0.0339
  330loPI   C1B 5277   6.879   9.147   9.713 -0.3220 -0.0526 -0.0286
  330loPI   C2B 5278   6.888   9.231   9.323  0.2896 -0.0937 -0.1049
  330loPI   C3B 5279   6.840   9.064   8.860  0.1495 -0.1913 -0.1015
  330loPI   C4B 5280   6.827   9.087   8.353 -0.0226  0.1939 -0.1049
  331loPI    C1 5281  16.843   6.317  11.113 -0.0653 -0.1161  0.3268
  331loPI    C2 5282  16.621   6.510  11.385  0.0009  0.2058  0.1579
  331loPI    C3 5283  16.977   6.357  11.488 -0.0894  0.0974  0.3137
  331loPI   PO4 5284  16.661   6.265  10.899  0.3886 -0.3453  0.4294
  331loPI   GL1 5285  16.426   6.501  10.499 -0.1114 -0.0604 -0.2016
  331loPI   GL2 5286  16.497   6.849  10.500 -0.1961 -0.0328 -0.1008
  331loPI   C1A 5287  16.340   6.462  10.100  0.2447 -0.0189 -0.0798
  331loPI   C2A 5288  16.352   6.347   9.721  0.1641 -0.3348 -0.2001
  331loPI   C3A 5289  16.427   6.326   9.213  0.0480 -0.2956 -0.0088
  331loPI   C4A 5290  16.446   6.342   8.802 -0.2701 -0.2427 -0.1731
  331loPI   C5A 5291  16.492   6.400   8.436 -0.0623 -0.1289  0.0335
  331loPI   C6A 5292  16.569   6.124   8.145 -0.1898  0.2998  0.0811
  331loPI   C1B 5293  16.619   6.869  10.094  0.2368  0.2386  0.0660
  331loPI   C2B 5294  16.646   6.870   9.657  0.1226  0.1867 -0.0199
  331loPI   C3B 5295  16.680   6.839   9.192  0.2539  0.1085 -0.1473
  331loPI   C4B 5296  16.754   6.726   8.788 -0.2440 -0.0897  0.1561
  332loPI    C1 5297   2.649   2.723  11.523  0.0995  0.0134  0.0504
  332loPI    C2 5298   2.740   2.335  11.548 -0.0231 -0.0028  0.2708
  332loPI    C3 5299   2.490   2.499  11.813 -0.0690  0.2001  0.1048
  332loPI   PO4 5300   2.535   2.718  11.226  0.1619 -0.5056  0.1873
  332loPI   GL1 5301   2.659   2.624  10.767  0.1255 -0.5754  0.0295
  332loPI   GL2 5302   2.745   2.851  10.527  0.1893  0.2253 -0.0219
  332loPI   C1A 5303   2.487   2.590  10.258 -0.0727  0.2024  0.2764
  332loPI   C2A 5304   2.352   2.539   9.864  0.0336  0.2818  0.1840
  332loPI   C3A 5305   2.248   2.542   9.444 -0.3265  0.1250  0.0067
  332loPI   C4A 5306   2.284   2.594   8.984  0.0931  0.0194 -0.1040
  332loPI   C5A 5307   2.168   2.652   8.539  0.0519  0.0750 -0.2739
  332loPI   C6A 5308   2.131   2.374   8.237  0.2454 -0.3345 -0.0247
  332loPI   C1B 5309   2.625   3.031  10.146  0.3194 -0.2088 -0.0997
  332loPI   C2B 5310   2.616   2.969   9.628 -0.0897 -0.1217  0.2146
  332loPI   C3B 5311   2.587   2.933   9.219  0.0611  0.0742  0.0111
  332loPI   C4B 5312   2.645   2.909   8.756  0.1275  0.0831  0.1074
  333loPI    C1 5313   2.300  13.806  11.175 -0.0493  0.2597  0.2117
  333loPI    C2 5314   2.584  13.671  11.423  0.0623 -0.0457 -0.0740
  333loPI    C3 5315   2.208  13.539  11.459  0.0506  0.0114  0.0154
  333loPI   PO4 5316   2.445  13.806  10.926 -0.3381  0.2734 -0.0918
  333loPI   GL1 5317   2.492  13.437  10.523 -0.0212 -0.1950  0.2088
  333loPI   GL2 5318   2.560  13.761  10.380 -0.1645 -0.1988  0.0441
  333loPI   C1A 5319   2.598  13.224  10.161 -0.0452  0.3664 -0.1236
  333loPI   C2A 5320   2.533  13.204   9.772 -0.1900 -0.0562  0.1894
  333loPI   C3A 5321   2.456  13.171   9.400 -0.0224  0.1305 -0.2310
  333loPI   C4A 5322   2.496  13.144   8.960 -0.2820  0.1736 -0.0555
  333loPI   C5A 5323   2.349  13.215   8.516  0.3121 -0.1962  0.1965
  333loPI   C6A 5324   2.121  13.028   8.209 -0.1381  0.0011  0.2887
  333loPI   C1B 5325   2.331  13.597  10.046  0.2804  0.3156  0.0245
  333loPI   C2B 5326   2.262  13.609   9.589  0.1168 -0.0920  0.0637
  333loPI   C3B 5327   2.322  13.634   9.197  0.1920  0.0167  0.1133
  333loPI   C4B 5328   2.347  13.609   8.788  0.1910  0.1720  0.2361
  334loPI    C1 5329  13.946   9.556  10.941  0.0177 -0.2131  0.1904
  334loPI    C2 5330  13.920   9.266  10.666  0.2033 -0.1528  0.1081
  334loPI    C3 5331  13.759   9.213  11.028 -0.1337 -0.1925 -0.0444
  334loPI   PO4 5332  14.027   9.739  10.843  0.0565 -0.1063  0.1212
  334loPI   GL1 5333  14.188  10.077  10.532 -0.3216  0.1888  0.1810
  334loPI   GL2 5334  14.537   9.940  10.375  0.1187  0.0349  0.0758
  334loPI   C1A 5335  14.163  10.049  10.087  0.0185 -0.0439 -0.3033
  334loPI   C2A 5336  14.318  10.017   9.637 -0.2806 -0.3056 -0.0306
  334loPI   C3A 5337  14.519   9.911   9.191  0.3720 -0.0441  0.2687
  334loPI   C4A 5338  14.548  10.039   8.804  0.0236 -0.0464  0.1109
  334loPI   C5A 5339  14.596  10.192   8.318 -0.1606 -0.1452 -0.0795
  334loPI   C6A 5340  14.580  10.499   7.890 -0.1991  0.2939  0.2290
  334loPI   C1B 5341  14.536   9.721   9.977 -0.2182 -0.1469 -0.1209
  334loPI   C2B 5342  14.619   9.423   9.537  0.4194  0.4595 -0.2518
  334loPI   C3B 5343  14.670   9.405   9.164  0.0952  0.1027 -0.3366
  334loPI   C4B 5344  14.738   9.438   8.738 -0.3740 -0.1128  0.0847
  335loPI    C1 5345  15.790  11.808  10.928  0.1458  0.1883 -0.0507
  335loPI    C2 5346  15.464  11.616  11.058  0.2674  0.0379  0.0358
  335loPI    C3 5347  15.618  11.916  11.273  0.1331  0.1712 -0.0516
  335loPI   PO4 5348  15.745  11.886  10.695  0.0187 -0.2116  0.5098
  335loPI   GL1 5349  15.531  12.219  10.420  0.1178  0.2168  0.3746
  335loPI   GL2 5350  15.758  12.106  10.205 -0.0186  0.0212 -0.3434
  335loPI   C1A 5351  15.426  12.489   9.994  0.1096 -0.0135  0.2230
  335loPI   C2A 5352  15.430  12.549   9.501  0.2051  0.1693 -0.3329
  335loPI   C3A 5353  15.376  12.666   9.156  0.1803  0.0796 -0.0020
  335loPI   C4A 5354  15.381  12.802   8.709 -0.2938 -0.1275  0.1865
  335loPI   C5A 5355  15.502  13.202   8.601 -0.2486 -0.0100  0.0723
  335loPI   C6A 5356  15.627  13.581   8.619  0.0393 -0.0335  0.2654
  335loPI   C1B 5357  15.596  11.997   9.866 -0.1832  0.2900  0.5178
  335loPI   C2B 5358  15.569  12.101   9.408 -0.0624 -0.2530  0.1981
  335loPI   C3B 5359  15.611  12.084   8.929  0.2774 -0.2529  0.1231
  335loPI   C4B 5360  15.597  12.357   8.647  0.1618 -0.0861 -0.1656
  336loPI    C1 5361  10.006  13.230  10.222  0.1392 -0.0812 -0.1701
  336loPI    C2 5362  10.404  13.232  10.187  0.1548  0.2831 -0.0232
  336loPI    C3 5363  10.236  13.181  10.546  0.0662  0.0778 -0.0925
  336loPI   PO4 5364   9.961  13.123  10.074  0.1352  0.0988  0.0717
  336loPI   GL1 5365  10.175  13.017   9.696  0.0063 -0.0328  0.1137
  336loPI   GL2 5366  10.325  12.723   9.611  0.2716  0.0535  0.0900
  336loPI   C1A 5367  10.011  13.138   9.305  0.1370  0.2103 -0.1146
  336loPI   C2A 5368  10.108  13.394   8.911  0.2131  0.1938  0.0826
  336loPI   C3A 5369   9.986  13.610   8.578 -0.1502 -0.0392  0.1289
  336loPI   C4A 5370   9.545  13.482   8.263 -0.0405  0.0836 -0.0131
  336loPI   C5A 5371   9.328  13.227   7.978 -0.0755  0.0525  0.0364
  336loPI   C6A 5372   8.897  13.210   7.764  0.2318 -0.1315  0.2408
  336loPI   C1B 5373  10.276  12.707   9.275  0.2171  0.1066 -0.2668
  336loPI   C2B 5374  10.082  12.693   8.787 -0.2564 -0.2610 -0.2892
  336loPI   C3B 5375  10.000  12.737   8.374 -0.4277  0.0944  0.1331
  336loPI   C4B 5376   9.803  12.904   7.994  0.2353  0.0348 -0.3580
  337loPI    C1 5377  10.412   4.160  10.948  0.0544 -0.1984  0.1302
  337loPI    C2 5378  10.492   4.319  11.306  0.0668 -0.1957  0.1262
  337loPI    C3 5379  10.751   4.066  11.137  0.0716 -0.1791  0.1089
  337loPI   PO4 5380  10.200   4.349  10.735 -0.2511 -0.0522 -0.0282
  337loPI   GL1 5381  10.398   4.335  10.316 -0.2646 -0.0620 -0.0632
  337loPI   GL2 5382  10.592   4.132  10.218 -0.2514 -0.2904  0.0342
  337loPI   C1A 5383  10.200   4.285   9.940 -0.1212  0.0266 -0.1154
  337loPI   C2A 5384  10.334   4.423   9.586  0.1170  0.0859 -0.1943
  337loPI   C3A 5385  10.426   4.312   9.268  0.4455  0.3440 -0.2095
  337loPI   C4A 5386  10.478   4.210   8.899 -0.1868  0.2609  0.1102
  337loPI   C5A 5387  10.469   4.211   8.413 -0.0027 -0.4599  0.0648
  337loPI   C6A 5388  10.048   4.316   8.183  0.1014 -0.0913 -0.0385
  337loPI   C1B 5389  10.500   3.959   9.776 -0.2763  0.4034  0.1964
  337loPI   C2B 5390  10.523   3.791   9.389 -0.0383 -0.1285  0.0172
  337loPI   C3B 5391  10.602   3.748   8.944 -0.4319  0.3330  0.0664
  337loPI   C4B 5392  10.376   3.763   8.547  0.0645 -0.1878 -0.2568
  338loPI    C1 5393   5.533  11.978  10.407  0.0015  0.1279  0.0729
  338loPI    C2 5394   5.516  11.877  10.794 -0.0931  0.4191  0.1478
  338loPI    C3 5395   5.863  11.992  10.633  0.0152 -0.0071  0.0623
  338loPI   PO4 5396   5.346  12.129  10.358  0.0104  0.2027 -0.0503
  338loPI   GL1 5397   5.176  12.167  10.020 -0.0995 -0.0866  0.0206
  338loPI   GL2 5398   5.028  12.447   9.982  0.1515 -0.0736  0.0652
  338loPI   C1A 5399   5.286  12.128   9.609  0.3017 -0.0883  0.1044
  338loPI   C2A 5400   5.279  12.132   9.191 -0.2059  0.2790  0.2288
  338loPI   C3A 5401   5.286  12.149   8.747 -0.1182 -0.1750  0.3403
  338loPI   C4A 5402   5.302  12.212   8.248  0.1076  0.3363  0.1185
  338loPI   C5A 5403   5.031  12.218   7.836 -0.1414 -0.1339  0.0756
  338loPI   C6A 5404   4.600  12.474   7.888  0.0503  0.0222  0.1573
  338loPI   C1B 5405   5.153  12.681   9.605 -0.1226 -0.0717 -0.1979
  338loPI   C2B 5406   5.194  12.622   9.204  0.1280  0.0495 -0.2375
  338loPI   C3B 5407   5.199  12.653   8.820  0.0313 -0.0083  0.0763
  338loPI   C4B 5408   5.055  12.602   8.447  0.1298  0.0706 -0.1506
  339loPI    C1 5409   6.923   3.868  10.492  0.0702  0.1705 -0.0196
  339loPI    C2 5410   6.872   4.263  10.526  0.3352  0.2053 -0.0105
  339loPI    C3 5411   7.017   4.108  10.187 -0.1254  0.0772 -0.1556
  339loPI   PO4 5412   6.714   3.746  10.493  0.2634  0.1341 -0.1789
  339loPI   GL1 5413   6.378   3.946  10.249  0.2094 -0.3670  0.2113
  339loPI   GL2 5414   6.275   3.631  10.327 -0.1672 -0.1314  0.1186
  339loPI   C1A 5415   6.356   4.144   9.786 -0.2599 -0.0051 -0.1458
  339loPI   C2A 5416   6.327   4.153   9.351 -0.0210  0.1212  0.0551
  339loPI   C3A 5417   6.454   4.163   8.888 -0.0287  0.1616 -0.0557
  339loPI   C4A 5418   6.373   4.140   8.453  0.2358 -0.0253  0.2676
  339loPI   C5A 5419   6.631   4.397   8.124  0.0158 -0.0251 -0.0966
  339loPI   C6A 5420   6.553   4.349   7.677  0.1385 -0.0674 -0.0239
  339loPI   C1B 5421   6.145   3.644   9.883  0.0207 -0.1153  0.0970
  339loPI   C2B 5422   6.162   3.648   9.461 -0.0170 -0.3052  0.2963
  339loPI   C3B 5423   6.183   3.746   9.051  0.1698 -0.0039 -0.3028
  339loPI   C4B 5424   6.155   3.685   8.617 -0.0325 -0.4597 -0.2727
  340loPI    C1 5425   2.413  14.768  11.008 -0.1215  0.3580 -0.0277
  340loPI    C2 5426   2.661  15.032  10.838  0.1727  0.1714  0.1055
  340loPI    C3 5427   2.608  15.034  11.235 -0.0578  0.2241  0.0757
  340loPI   PO4 5428   2.224  14.692  10.789 -0.2933  0.0677 -0.0467
  340loPI   GL1 5429   2.394  14.729  10.364  0.0044 -0.1202  0.2228
  340loPI   GL2 5430   2.312  14.973  10.266 -0.4692  0.1309  0.4039
  340loPI   C1A 5431   2.520  14.554  10.009  0.1101 -0.0468 -0.0845
  340loPI   C2A 5432   2.489  14.508   9.581  0.0634 -0.0057  0.1971
  340loPI   C3A 5433   2.568  14.483   9.103  0.0227 -0.0358  0.4509
  340loPI   C4A 5434   2.449  14.496   8.725  0.5792 -0.0307 -0.2992
  340loPI   C5A 5435   2.344  14.678   8.306 -0.0873 -0.3088 -0.2328
  340loPI   C6A 5436   2.391  14.997   8.051 -0.2154 -0.1163 -0.0141
  340loPI   C1B 5437   2.294  15.019   9.798  0.1244 -0.2931  0.3557
  340loPI   C2B 5438   2.301  15.075   9.409 -0.3050  0.0019 -0.0590
  340loPI   C3B 5439   2.415  14.978   8.997 -0.0920 -0.0543  0.4831
  340loPI   C4B 5440   2.305  15.065   8.611 -0.1502  0.0350  0.0048
  341loPI    C1 5441   3.846   2.427  10.819 -0.0329  0.0926 -0.0571
  341loPI    C2 5442   3.880   2.389  11.216 -0.0353 -0.0695 -0.0716
  341loPI    C3 5443   3.598   2.627  11.061 -0.2311 -0.2383  0.0202
  341loPI   PO4 5444   4.083   2.508  10.681 -0.1572  0.1149 -0.1346
  341loPI   GL1 5445   4.073   2.566  10.357  0.1626  0.2577 -0.0960
  341loPI   GL2 5446   4.047   2.261  10.250 -0.2418 -0.0458 -0.2264
  341loPI   C1A 5447   4.196   2.705   9.977  0.0231 -0.0656 -0.1276
  341loPI   C2A 5448   4.198   2.715   9.579 -0.0566 -0.0774  0.0196
  341loPI   C3A 5449   4.295   2.523   9.168  0.0159 -0.0273 -0.0009
  341loPI   C4A 5450   4.224   2.425   8.789  0.2430  0.0708  0.2664
  341loPI   C5A 5451   4.192   2.441   8.361  0.2299  0.1814 -0.2364
  341loPI   C6A 5452   4.446   2.307   7.993  0.3019 -0.1005  0.1478
  341loPI   C1B 5453   3.998   2.263   9.865 -0.0437  0.0611 -0.3180
  341loPI   C2B 5454   3.927   2.362   9.440  0.1219 -0.2645  0.2698
  341loPI   C3B 5455   3.871   2.171   9.004  0.3034 -0.0796 -0.3513
  341loPI   C4B 5456   3.875   2.082   8.530 -0.3519  0.1366 -0.1564
  342loPI    C1 5457   1.526   1.726  11.054 -0.2689  0.3014  0.1173
  342loPI    C2 5458   1.678   1.497  11.346 -0.0541  0.1393 -0.1170
  342loPI    C3 5459   1.293   1.461  11.242 -0.0262 -0.1061 -0.1401
  342loPI   PO4 5460   1.695   1.698  10.826  0.0897  0.0697  0.1213
  342loPI   GL1 5461   1.768   1.659  10.454 -0.0508 -0.3233  0.0375
  342loPI   GL2 5462   1.578   1.384  10.349  0.1886 -0.2337 -0.0869
  342loPI   C1A 5463   2.167   1.658  10.099 -0.0108 -0.0039 -0.0676
  342loPI   C2A 5464   2.027   1.734   9.696 -0.1937  0.0784 -0.1995
  342loPI   C3A 5465   2.062   1.667   9.291  0.0063  0.5545 -0.1164
  342loPI   C4A 5466   2.058   1.578   8.747 -0.0244 -0.0187  0.0206
  342loPI   C5A 5467   2.534   1.588   8.492 -0.0674 -0.1628 -0.1733
  342loPI   C6A 5468   2.919   1.524   8.456  0.2565  0.1384 -0.1027
  342loPI   C1B 5469   1.595   1.533  10.001 -0.0434 -0.2499 -0.0110
  342loPI   C2B 5470   1.564   1.562   9.553 -0.0287 -0.0835  0.1222
  342loPI   C3B 5471   1.563   1.613   9.166  0.3004  0.1621 -0.0216
  342loPI   C4B 5472   1.383   1.870   8.748  0.2178 -0.0804 -0.1228
  343loPI    C1 5473  12.250   8.007  10.881  0.0473 -0.2062  0.1079
  343loPI    C2 5474  12.586   7.817  10.986  0.0197 -0.3101  0.0106
  343loPI    C3 5475  12.325   7.933  11.267  0.1502 -0.2028  0.0886
  343loPI   PO4 5476  12.370   7.968  10.544  0.2424 -0.1124  0.0951
  343loPI   GL1 5477  12.295   7.808  10.268 -0.0604  0.0372 -0.1462
  343loPI   GL2 5478  11.948   7.810  10.217 -0.0680 -0.0059 -0.2241
  343loPI   C1A 5479  12.583   7.870   9.939 -0.3157  0.0868 -0.1914
  343loPI   C2A 5480  12.825   7.915   9.517 -0.1013  0.1124 -0.1800
  343loPI   C3A 5481  12.927   7.879   9.066 -0.0236 -0.0918  0.0119
  343loPI   C4A 5482  12.747   7.938   8.645 -0.0388  0.0614  0.0669
  343loPI   C5A 5483  12.547   8.081   8.253 -0.3331 -0.1976 -0.2971
  343loPI   C6A 5484  12.422   7.963   7.840 -0.1145  0.3215 -0.0208
  343loPI   C1B 5485  12.094   7.875   9.743  0.3279 -0.6342  0.1890
  343loPI   C2B 5486  12.354   7.937   9.396 -0.0765 -0.0702 -0.1168
  343loPI   C3B 5487  12.345   8.015   8.940 -0.0795 -0.1467 -0.1264
  343loPI   C4B 5488  12.304   7.770   8.566 -0.0947  0.1280 -0.0314
  344loPI    C1 5489   9.914   6.765  10.640 -0.1874 -0.0044  0.0405
  344loPI    C2 5490  10.184   6.879  10.912  0.1109 -0.1425 -0.1926
  344loPI    C3 5491  10.004   6.524  10.947 -0.0821 -0.0284 -0.0087
  344loPI   PO4 5492  10.105   6.756  10.345 -0.0175 -0.1219  0.0310
  344loPI   GL1 5493   9.931   6.988  10.013  0.1125  0.1667 -0.0715
  344loPI   GL2 5494   9.925   6.670   9.824  0.2723 -0.2195  0.3354
  344loPI   C1A 5495  10.115   7.213   9.738 -0.3066 -0.2569  0.1273
  344loPI   C2A 5496  10.011   7.246   9.273  0.2160  0.0440 -0.0282
  344loPI   C3A 5497  10.086   7.369   8.817 -0.2413  0.0787  0.3227
  344loPI   C4A 5498   9.972   7.586   8.432 -0.2922  0.0511 -0.0809
  344loPI   C5A 5499   9.626   7.785   8.125  0.1288  0.2902 -0.2938
  344loPI   C6A 5500   9.637   7.993   7.734 -0.0212 -0.1073  0.2194
  344loPI   C1B 5501  10.001   6.684   9.401 -0.0390  0.1337 -0.1797
  344loPI   C2B 5502  10.278   6.507   9.114  0.0727 -0.0232  0.2383
  344loPI   C3B 5503  10.410   6.333   8.818  0.1422 -0.1460 -0.0086
  344loPI   C4B 5504  10.325   6.070   8.406 -0.3010 -0.2353  0.3376
  345loPI    C1 5505   4.263  17.874  11.383  0.0074 -0.0615  0.0449
  345loPI    C2 5506   3.928  17.780  11.581  0.0311  0.1220  0.1752
  345loPI    C3 5507   4.283  17.671  11.727  0.0312 -0.0429  0.0545
  345loPI   PO4 5508   4.229  17.791  11.036  0.3395 -0.0323  0.0291
  345loPI   GL1 5509   4.014  17.672  10.641  0.2498  0.0980 -0.2214
  345loPI   GL2 5510   4.008  17.874  10.490 -0.1164  0.0274  0.2157
  345loPI   C1A 5511   3.841  17.507  10.259 -0.1738  0.0401 -0.0437
  345loPI   C2A 5512   3.946  17.409   9.818 -0.0277  0.0765  0.1835
  345loPI   C3A 5513   3.937  17.389   9.431  0.1003 -0.0939  0.0340
  345loPI   C4A 5514   3.968  17.377   8.953 -0.0152 -0.0001 -0.0985
  345loPI   C5A 5515   4.005  17.408   8.539  0.4539  0.2442  0.3042
  345loPI   C6A 5516   3.810  17.434   8.123 -0.1614  0.0951  0.0551
  345loPI   C1B 5517   4.125  17.820  10.048  0.1654 -0.2601  0.1742
  345loPI   C2B 5518   4.272  17.744   9.661 -0.3079  0.2500 -0.1387
  345loPI   C3B 5519   4.237  17.768   9.266 -0.0364 -0.4109 -0.1154
  345loPI   C4B 5520   4.284  17.786   8.752 -0.0944 -0.2119  0.2281
  346loPI    C1 5521  16.812  10.627  10.815  0.3687  0.0502  0.0765
  346loPI    C2 5522  16.938  10.407  11.124  0.1573  0.2031  0.2757
  346loPI    C3 5523  16.862  10.796  11.174  0.1274  0.2308  0.0278
  346loPI   PO4 5524  16.945  10.596  10.658 -0.2162  0.2275 -0.1408
  346loPI   GL1 5525  17.165  10.389  10.270  0.0347  0.1877  0.0488
  346loPI   GL2 5526  17.399  10.190  10.213 -0.0876 -0.2705 -0.0055
  346loPI   C1A 5527  17.114  10.508   9.955  0.1225  0.1989  0.0562
  346loPI   C2A 5528  17.142  10.472   9.526  0.2369 -0.0739  0.1107
  346loPI   C3A 5529  17.124  10.382   9.214 -0.1341 -0.2806 -0.0863
  346loPI   C4A 5530  17.231  10.292   8.860  0.1061 -0.2547 -0.4271
  346loPI   C5A 5531  17.097  10.524   8.445 -0.2628 -0.0827 -0.0346
  346loPI   C6A 5532  17.214  10.537   8.029  0.0840 -0.2630  0.0265
  346loPI   C1B 5533  17.570  10.213   9.834  0.1292 -0.0004  0.1606
  346loPI   C2B 5534  17.580  10.175   9.365 -0.1666 -0.1370 -0.0276
  346loPI   C3B 5535  17.393   9.873   9.123  0.0139  0.3452 -0.0461
  346loPI   C4B 5536  17.397   9.781   8.617 -0.1030  0.0944  0.1343
  347loPI    C1 5537   5.910  17.225  11.276  0.1373  0.1278 -0.0402
  347loPI    C2 5538   6.287  17.094  11.259 -0.0083 -0.3009 -0.0871
  347loPI    C3 5539   5.987  16.833  11.300 -0.3138  0.0210 -0.2309
  347loPI   PO4 5540   5.973  17.417  11.051 -0.2157  0.2253 -0.0510
  347loPI   GL1 5541   5.951  17.516  10.566 -0.0997 -0.1823 -0.2113
  347loPI   GL2 5542   5.701  17.295  10.450 -0.0175 -0.0781  0.0285
  347loPI   C1A 5543   6.011  17.443  10.105  0.0133 -0.0028 -0.0447
  347loPI   C2A 5544   6.045  17.162   9.706  0.1167  0.1048  0.0930
  347loPI   C3A 5545   6.065  17.103   9.324 -0.0420 -0.0739 -0.2970
  347loPI   C4A 5546   6.028  17.049   8.981  0.0279 -0.2954  0.1380
  347loPI   C5A 5547   5.977  17.041   8.538  0.0081 -0.2168  0.0710
  347loPI   C6A 5548   6.030  17.333   8.348 -0.0653 -0.1513 -0.0619
  347loPI   C1B 5549   5.552  17.292   9.990  0.1246 -0.3500 -0.1821
  347loPI   C2B 5550   5.514  17.224   9.558 -0.1258  0.3254  0.1947
  347loPI   C3B 5551   5.477  17.094   9.262 -0.1760  0.0446 -0.0498
  347loPI   C4B 5552   5.549  17.194   8.853 -0.1623  0.2423  0.3853
  348loPI    C1 5553   6.047   7.096  10.830  0.1189 -0.1649  0.0305
  348loPI    C2 5554   5.941   7.459  10.960 -0.0871 -0.1684 -0.1218
  348loPI    C3 5555   6.202   7.240  11.170  0.1086  0.1027 -0.0759
  348loPI   PO4 5556   6.173   7.120  10.633 -0.1127  0.0883  0.0034
  348loPI   GL1 5557   6.285   7.234  10.232 -0.2465  0.0610  0.1877
  348loPI   GL2 5558   6.564   7.080  10.087 -0.2886  0.0865 -0.0233
  348loPI   C1A 5559   6.243   7.402   9.831 -0.3338 -0.1467  0.2882
  348loPI   C2A 5560   6.162   7.501   9.408  0.0764 -0.3622 -0.0368
  348loPI   C3A 5561   6.196   7.411   8.967 -0.1037  0.2114  0.1356
  348loPI   C4A 5562   6.179   7.262   8.625 -0.4264  0.4242 -0.1516
  348loPI   C5A 5563   6.154   7.015   8.250 -0.0248 -0.0067  0.3794
  348loPI   C6A 5564   6.163   6.559   8.310  0.3691 -0.1968 -0.0794
  348loPI   C1B 5565   6.662   7.278   9.594 -0.0035 -0.0264 -0.2371
  348loPI   C2B 5566   6.612   7.389   9.226  0.1343  0.0278  0.4012
  348loPI   C3B 5567   6.659   7.222   8.886  0.2156  0.0489 -0.0229
  348loPI   C4B 5568   6.632   7.305   8.372 -0.0721 -0.0808  0.1033
  349loPI    C1 5569  15.698   5.172  11.236  0.0392  0.1637 -0.0281
  349loPI    C2 5570  15.484   4.886  11.416 -0.1009  0.2518 -0.0534
  349loPI    C3 5571  15.629   5.191  11.630  0.2267  0.0551  0.0110
  349loPI   PO4 5572  15.851   5.114  11.039  0.1235  0.0152 -0.1620
  349loPI   GL1 5573  15.908   5.292  10.584 -0.0970  0.4528  0.0541
  349loPI   GL2 5574  16.211   5.434  10.577  0.2632 -0.1714 -0.0757
  349loPI   C1A 5575  15.864   5.041  10.186 -0.2687  0.0957 -0.0056
  349loPI   C2A 5576  15.950   5.129   9.836  0.0205  0.0445  0.0824
  349loPI   C3A 5577  15.935   5.068   9.450 -0.0517 -0.1597 -0.0972
  349loPI   C4A 5578  15.922   5.029   9.058 -0.1638  0.3729  0.3266
  349loPI   C5A 5579  15.861   5.058   8.671  0.0101 -0.3197 -0.3202
  349loPI   C6A 5580  15.982   5.297   8.334  0.0158 -0.1238  0.0738
  349loPI   C1B 5581  16.156   5.445  10.184  0.1532 -0.0949 -0.0036
  349loPI   C2B 5582  16.255   5.517   9.672  0.0138 -0.1413 -0.0931
  349loPI   C3B 5583  16.236   5.491   9.241 -0.1298 -0.1080  0.1673
  349loPI   C4B 5584  16.229   5.416   8.809 -0.0205  0.0987  0.1042
  350loPI    C1 5585   6.364  16.759  10.825 -0.1312 -0.0171  0.0785
  350loPI    C2 5586   6.413  16.450  11.074  0.1064 -0.0064  0.0477
  350loPI    C3 5587   6.673  16.754  11.080 -0.0387  0.1206 -0.0289
  350loPI   PO4 5588   6.189  16.632  10.630  0.0927  0.1615 -0.1089
  350loPI   GL1 5589   6.302  16.489  10.194 -0.1998 -0.1132  0.2157
  350loPI   GL2 5590   6.368  16.237  10.202  0.2523 -0.1665 -0.1512
  350loPI   C1A 5591   6.343  16.681   9.880  0.1165  0.0458 -0.0084
  350loPI   C2A 5592   6.324  16.761   9.503  0.0176 -0.3046 -0.0961
  350loPI   C3A 5593   6.137  16.614   9.186  0.0500  0.0052 -0.1890
  350loPI   C4A 5594   6.173  16.638   8.741 -0.0611 -0.1009 -0.0205
  350loPI   C5A 5595   6.349  16.638   8.270 -0.2910  0.0587 -0.2572
  350loPI   C6A 5596   6.553  16.234   8.057 -0.1744 -0.1766 -0.0658
  350loPI   C1B 5597   6.325  16.217   9.717  0.3039  0.1493  0.1485
  350loPI   C2B 5598   6.317  16.222   9.352 -0.1463 -0.2487 -0.1749
  350loPI   C3B 5599   6.295  16.084   8.931 -0.1841  0.3140 -0.1889
  350loPI   C4B 5600   6.213  16.219   8.491 -0.3946 -0.5278  0.1495
  351loPI    C1 5601  11.318  12.031  10.482  0.0381 -0.0550  0.1672
  351loPI    C2 5602  11.216  12.319  10.740  0.1544  0.0295  0.1201
  351loPI    C3 5603  11.227  11.938  10.861 -0.1819  0.0210  0.1340
  351loPI   PO4 5604  11.270  12.084  10.319 -0.2060 -0.1401  0.6766
  351loPI   GL1 5605  11.404  12.281   9.923  0.1635 -0.3497  0.0641
  351loPI   GL2 5606  11.629  12.194   9.975  0.1032 -0.0991 -0.2619
  351loPI   C1A 5607  11.423  12.586   9.570  0.1188  0.0301  0.1625
  351loPI   C2A 5608  11.477  12.608   9.083 -0.1297  0.0481  0.2115
  351loPI   C3A 5609  11.573  12.864   8.716 -0.0902  0.1033  0.1422
  351loPI   C4A 5610  11.552  12.937   8.257 -0.0964  0.1236  0.1960
  351loPI   C5A 5611  11.325  12.710   7.867 -0.0375 -0.2395  0.0523
  351loPI   C6A 5612  11.250  12.707   7.455  0.0349  0.0059 -0.1901
  351loPI   C1B 5613  11.654  12.089   9.542 -0.1135 -0.2557  0.1666
  351loPI   C2B 5614  11.595  12.132   9.161 -0.0654 -0.1675 -0.0030
  351loPI   C3B 5615  11.524  12.021   8.676 -0.0843 -0.0601 -0.0015
  351loPI   C4B 5616  11.349  12.032   8.197 -0.1798 -0.0609 -0.4632
  352loPI    C1 5617   3.677   9.523  10.828 -0.0670 -0.1002 -0.0980
  352loPI    C2 5618   3.700   9.151  10.973  0.0812 -0.0447  0.0238
  352loPI    C3 5619   3.945   9.436  11.112 -0.2314  0.1696  0.1461
  352loPI   PO4 5620   3.698   9.495  10.522 -0.2074  0.1453  0.1162
  352loPI   GL1 5621   3.887   9.261  10.269 -0.1216  0.1775 -0.1041
  352loPI   GL2 5622   3.606   9.209  10.085 -0.0792  0.0675 -0.4789
  352loPI   C1A 5623   4.056   9.133   9.849 -0.3255 -0.1671  0.3752
  352loPI   C2A 5624   3.974   9.154   9.414  0.0247  0.2914 -0.0910
  352loPI   C3A 5625   3.878   9.153   8.878  0.4609 -0.1016 -0.0568
  352loPI   C4A 5626   3.754   9.017   8.465 -0.2133 -0.0397  0.3869
  352loPI   C5A 5627   3.431   8.898   8.188  0.0291  0.1388  0.1845
  352loPI   C6A 5628   3.316   8.850   7.823 -0.0024 -0.2521  0.0999
  352loPI   C1B 5629   3.579   9.284   9.689  0.0871 -0.0166  0.2939
  352loPI   C2B 5630   3.479   9.269   9.251 -0.4019  0.2010  0.0422
  352loPI   C3B 5631   3.276   9.266   8.882  0.2432  0.0595  0.0522
  352loPI   C4B 5632   3.297   9.257   8.463 -0.0074  0.0927  0.2639
  353loPI    C1 5633   7.374   7.114  10.737 -0.1068  0.1761  0.0318
  353loPI    C2 5634   7.373   6.853  11.040 -0.1738 -0.2546 -0.3283
  353loPI    C3 5635   7.030   7.015  10.915 -0.0995  0.2527  0.0891
  353loPI   PO4 5636   7.459   7.058  10.501  0.0586  0.1136 -0.0782
  353loPI   GL1 5637   7.560   6.754  10.213  0.0997 -0.1892 -0.2398
  353loPI   GL2 5638   7.812   6.927  10.137  0.4285  0.2292 -0.1904
  353loPI   C1A 5639   7.442   6.780   9.831 -0.0508 -0.3210 -0.1914
  353loPI   C2A 5640   7.576   6.661   9.462 -0.0656  0.2930 -0.0146
  353loPI   C3A 5641   7.526   6.706   9.147 -0.3389 -0.1335  0.1241
  353loPI   C4A 5642   7.449   6.739   8.666  0.1684  0.0215 -0.0673
  353loPI   C5A 5643   7.269   6.858   8.322 -0.0608 -0.0173  0.2111
  353loPI   C6A 5644   7.269   7.114   7.971  0.0517 -0.2991  0.3728
  353loPI   C1B 5645   7.758   7.097   9.641  0.3132  0.0681 -0.4569
  353loPI   C2B 5646   7.628   7.154   9.188 -0.2081 -0.4393 -0.1404
  353loPI   C3B 5647   7.583   7.199   8.756  0.0553  0.1044 -0.2687
  353loPI   C4B 5648   7.685   7.086   8.394  0.0194  0.2261 -0.1148
  354loPI    C1 5649  17.961   7.617  11.111 -0.1500 -0.1249  0.0606
  354loPI    C2 5650  18.259   7.515  11.357 -0.1469  0.3508  0.2656
  354loPI    C3 5651  17.884   7.535  11.495 -0.2478 -0.0283  0.0622
  354loPI   PO4 5652  18.125   7.538  10.857  0.4371  0.1069  0.2492
  354loPI   GL1 5653  18.361   7.441  10.518  0.1452  0.1034 -0.1590
  354loPI   GL2 5654  18.175   7.163  10.545 -0.2020 -0.1995  0.0167
  354loPI   C1A 5655  18.433   7.347  10.001 -0.1362 -0.0621 -0.0733
  354loPI   C2A 5656  18.399   7.420   9.509  0.2462 -0.0919  0.3095
  354loPI   C3A 5657  18.389   7.466   9.105  0.0507  0.1000  0.1124
  354loPI   C4A 5658  18.388   7.374   8.718 -0.0160  0.2136  0.0854
  354loPI   C5A 5659  18.053   7.306   8.555  0.1539  0.0398  0.0768
  354loPI   C6A 5660  17.762   7.556   8.532  0.2174 -0.0302  0.3279
  354loPI   C1B 5661  18.076   7.073  10.111 -0.2877 -0.0358  0.1451
  354loPI   C2B 5662  18.124   7.079   9.727  0.2277 -0.0633 -0.2277
  354loPI   C3B 5663  17.947   6.993   9.348  0.1288  0.1002  0.1420
  354loPI   C4B 5664  17.983   6.959   8.900  0.0625 -0.0183  0.4239
  355loPI    C1 5665  15.120   2.450  11.366 -0.0942 -0.0848  0.1553
  355loPI    C2 5666  15.343   2.717  11.563 -0.0538 -0.0010 -0.0020
  355loPI    C3 5667  15.043   2.531  11.750  0.0112  0.0449  0.1501
  355loPI   PO4 5668  15.134   2.555  11.082  0.1069  0.1510  0.0897
  355loPI   GL1 5669  15.291   2.582  10.699  0.3137 -0.3429 -0.0383
  355loPI   GL2 5670  15.476   2.458  10.492  0.0363 -0.1972 -0.1366
  355loPI   C1A 5671  15.219   2.871  10.349 -0.0005 -0.0373 -0.0349
  355loPI   C2A 5672  15.260   2.926   9.805 -0.1880 -0.2046  0.2778
  355loPI   C3A 5673  15.240   2.854   9.323 -0.1968  0.0001  0.2981
  355loPI   C4A 5674  15.273   2.852   8.932 -0.1199 -0.1899  0.0788
  355loPI   C5A 5675  15.429   2.788   8.531  0.1900 -0.2963  0.3456
  355loPI   C6A 5676  15.200   3.245   8.599  0.1560 -0.2842  0.1097
  355loPI   C1B 5677  15.427   2.428  10.041 -0.1159 -0.0581 -0.1656
  355loPI   C2B 5678  15.416   2.416   9.605 -0.1361  0.2267 -0.0192
  355loPI   C3B 5679  15.479   2.440   9.171 -0.1847  0.3221 -0.3740
  355loPI   C4B 5680  15.492   2.312   8.738  0.3186  0.2435 -0.4085
  356loPI    C1 5681   0.139   0.899  11.222  0.0164 -0.1091  0.0597
  356loPI    C2 5682  -0.056   0.874  11.570  0.0557 -0.1129  0.0814
  356loPI    C3 5683   0.322   1.005  11.561  0.0245 -0.0252  0.0293
  356loPI   PO4 5684   0.187   0.651  11.064  0.2203 -0.3359 -0.0476
  356loPI   GL1 5685  -0.101   0.598  10.796 -0.1942  0.4513  0.3882
  356loPI   GL2 5686  -0.298   0.829  10.744 -0.4432 -0.1185 -0.1157
  356loPI   C1A 5687  -0.116   0.471  10.404  0.1176 -0.2824  0.1696
  356loPI   C2A 5688  -0.090   0.537   9.962  0.0676  0.0092  0.3459
  356loPI   C3A 5689  -0.065   0.600   9.516 -0.2705  0.2061 -0.2574
  356loPI   C4A 5690  -0.036   0.591   9.092  0.0884  0.1963  0.2832
  356loPI   C5A 5691   0.041   0.638   8.677 -0.0997  0.0036 -0.1860
  356loPI   C6A 5692  -0.157   0.887   8.382  0.3713  0.0237  0.0511
  356loPI   C1B 5693  -0.185   0.983  10.311  0.1738  0.2601  0.4202
  356loPI   C2B 5694  -0.185   1.005   9.833  0.2983 -0.0951  0.0274
  356loPI   C3B 5695  -0.156   1.110   9.418  0.2378 -0.0906 -0.3106
  356loPI   C4B 5696  -0.129   1.120   9.004 -0.1253  0.1248  0.1125
  357loPI    C1 5697  15.338  12.755  10.908 -0.1274  0.0660 -0.2065
  357loPI    C2 5698  15.544  12.728  10.566  0.1690 -0.4571  0.0017
  357loPI    C3 5699  15.729  12.838  10.903 -0.0020 -0.4644  0.0991
  357loPI   PO4 5700  15.120  12.517  10.799  0.0540  0.1356 -0.1182
  357loPI   GL1 5701  15.068  12.558  10.408 -0.0821  0.0127  0.1380
  357loPI   GL2 5702  14.720  12.774  10.391 -0.1097  0.0811 -0.0492
  357loPI   C1A 5703  14.989  12.172  10.140 -0.0442  0.1645 -0.0749
  357loPI   C2A 5704  15.143  12.131   9.656  0.0490  0.4766 -0.2960
  357loPI   C3A 5705  15.115  12.172   9.213 -0.1470  0.3800  0.1074
  357loPI   C4A 5706  15.081  12.328   8.736  0.0842 -0.1343 -0.0407
  357loPI   C5A 5707  15.223  12.161   8.362  0.2000  0.0195 -0.1136
  357loPI   C6A 5708  15.518  12.061   8.173 -0.2339 -0.0048 -0.0940
  357loPI   C1B 5709  14.838  12.627   9.967  0.0807 -0.1232 -0.0269
  357loPI   C2B 5710  14.933  12.555   9.562 -0.0034  0.1820 -0.1762
  357loPI   C3B 5711  14.901  12.634   9.176  0.0351  0.0668 -0.1449
  357loPI   C4B 5712  14.839  12.768   8.774  0.0026 -0.0981  0.1962
  358loPI    C1 5713  11.686  15.935  11.008  0.2495 -0.0467  0.2335
  358loPI    C2 5714  11.407  16.166  11.179 -0.0758 -0.0280 -0.3011
  358loPI    C3 5715  11.542  15.840  11.369 -0.2404  0.1270  0.0910
  358loPI   PO4 5716  11.616  15.872  10.784 -0.3006  0.2213  0.2565
  358loPI   GL1 5717  11.547  15.918  10.340  0.0845 -0.0860 -0.2218
  358loPI   GL2 5718  11.372  15.918  10.091  0.2151 -0.1819  0.0173
  358loPI   C1A 5719  11.876  16.044  10.107 -0.1318 -0.2774 -0.2275
  358loPI   C2A 5720  12.027  16.384   9.776  0.1409  0.1365 -0.2182
  358loPI   C3A 5721  12.034  16.442   9.380  0.0434  0.0707  0.0964
  358loPI   C4A 5722  12.092  16.487   8.965 -0.4671  0.2516 -0.1104
  358loPI   C5A 5723  12.148  16.496   8.552  0.1041  0.1425  0.2944
  358loPI   C6A 5724  12.270  16.188   8.243  0.0113 -0.1955 -0.0853
  358loPI   C1B 5725  11.600  15.988   9.666 -0.1204  0.1873 -0.2590
  358loPI   C2B 5726  11.651  16.088   9.395 -0.1576 -0.0813 -0.0609
  358loPI   C3B 5727  11.808  16.106   9.022  0.1708 -0.0175  0.2682
  358loPI   C4B 5728  11.846  16.134   8.573  0.0609 -0.1615  0.0130
  359loPI    C1 5729   6.741  11.037  10.499  0.2140  0.1179  0.3229
  359loPI    C2 5730   6.657  10.692  10.683 -0.1154  0.0635  0.0805
  359loPI    C3 5731   6.490  11.032  10.811 -0.1901  0.0552  0.0059
  359loPI   PO4 5732   6.785  11.121  10.111 -0.4448 -0.2526  0.0164
  359loPI   GL1 5733   6.834  11.125   9.685 -0.0084  0.1678 -0.1624
  359loPI   GL2 5734   6.519  11.168   9.706  0.1631  0.1403  0.0339
  359loPI   C1A 5735   6.693  11.019   9.268  0.2917  0.0150 -0.1156
  359loPI   C2A 5736   6.636  11.044   8.769 -0.0185  0.4119  0.2524
  359loPI   C3A 5737   6.548  11.057   8.231  0.1192 -0.1661 -0.0370
  359loPI   C4A 5738   6.569  11.089   7.826 -0.0623 -0.5635 -0.0696
  359loPI   C5A 5739   6.585  11.564   7.587 -0.1191 -0.2315  0.0013
  359loPI   C6A 5740   6.595  12.032   7.742  0.3087  0.3379  0.3550
  359loPI   C1B 5741   6.173  11.162   9.387 -0.1829  0.1608  0.3118
  359loPI   C2B 5742   6.152  11.013   8.898 -0.0336 -0.1328 -0.2292
  359loPI   C3B 5743   6.155  11.068   8.473 -0.0945  0.1573 -0.1685
  359loPI   C4B 5744   6.035  11.111   8.003 -0.4550 -0.3062  0.2477
  360loPI    C1 5745   4.541   5.537  10.827  0.0493 -0.1770 -0.0118
  360loPI    C2 5746   4.251   5.580  11.100 -0.0612 -0.1634 -0.1301
  360loPI    C3 5747   4.611   5.445  11.210 -0.1307 -0.2383  0.0077
  360loPI   PO4 5748   4.426   5.520  10.582 -0.0299 -0.0459 -0.1436
  360loPI   GL1 5749   4.641   5.631  10.229  0.0465  0.0900 -0.2559
  360loPI   GL2 5750   4.358   5.830  10.225  0.1029 -0.2056  0.3415
  360loPI   C1A 5751   4.590   5.471   9.776  0.0614 -0.0715 -0.1961
  360loPI   C2A 5752   4.547   5.396   9.448  0.0045  0.2421  0.0093
  360loPI   C3A 5753   4.489   5.338   8.986 -0.0764  0.0074 -0.0746
  360loPI   C4A 5754   4.638   5.303   8.590 -0.4407 -0.0936 -0.1355
  360loPI   C5A 5755   4.720   5.422   8.171  0.2325 -0.1204  0.0502
  360loPI   C6A 5756   4.573   5.464   7.723 -0.0124 -0.3500 -0.0279
  360loPI   C1B 5757   4.325   6.140   9.863 -0.2506 -0.0628 -0.1407
  360loPI   C2B 5758   4.107   6.217   9.533 -0.0090 -0.2113 -0.2651
  360loPI   C3B 5759   4.158   6.172   9.041 -0.0326 -0.2964 -0.1620
  360loPI   C4B 5760   4.136   6.222   8.576 -0.3350 -0.2162  0.0176
  361loPI    C1 5761   0.390   8.742  11.054 -0.0889 -0.3563 -0.4116
  361loPI    C2 5762   0.037   8.860  11.199  0.1212  0.0781 -0.2353
  361loPI    C3 5763   0.153   8.480  11.239 -0.1461  0.0251  0.0751
  361loPI   PO4 5764   0.433   8.926  10.813 -0.1007  0.1118 -0.1275
  361loPI   GL1 5765   0.598   8.831  10.389  0.1012 -0.0067  0.1676
  361loPI   GL2 5766   0.222   8.798  10.360 -0.0970 -0.1629 -0.0514
  361loPI   C1A 5767   0.815   8.841   9.935 -0.1057 -0.0839 -0.2312
  361loPI   C2A 5768   0.814   8.794   9.498 -0.1691 -0.2391 -0.0038
  361loPI   C3A 5769   0.764   8.772   8.991 -0.1878  0.0797  0.3615
  361loPI   C4A 5770   0.725   8.714   8.630  0.1107 -0.2281  0.0211
  361loPI   C5A 5771   0.718   8.554   8.295 -0.1612 -0.1317  0.3258
  361loPI   C6A 5772   0.664   8.116   8.132  0.0634 -0.5916  0.2316
  361loPI   C1B 5773   0.347   8.669   9.984  0.0061  0.0892  0.2773
  361loPI   C2B 5774   0.376   8.573   9.529  0.5950 -0.0398  0.1608
  361loPI   C3B 5775   0.462   8.420   9.191 -0.0487  0.0480  0.1098
  361loPI   C4B 5776   0.378   8.321   8.756  0.1132 -0.0237  0.0883
  362loPI    C1 5777  12.155  11.642  10.514 -0.2393 -0.0945  0.0777
  362loPI    C2 5778  12.350  11.411  10.776  0.0788 -0.0325 -0.0991
  362loPI    C3 5779  12.541  11.713  10.595 -0.1111 -0.1257 -0.4656
  362loPI   PO4 5780  12.021  11.525  10.390  0.3956 -0.1653 -0.1051
  362loPI   GL1 5781  12.156  11.525   9.999 -0.0504  0.2620  0.0195
  362loPI   GL2 5782  11.938  11.709   9.702  0.0465 -0.2293 -0.2843
  362loPI   C1A 5783  12.404  11.703   9.655 -0.0834  0.1772 -0.0087
  362loPI   C2A 5784  12.517  11.745   9.270  0.0230  0.2662 -0.0023
  362loPI   C3A 5785  12.692  11.667   8.928 -0.3058  0.0537 -0.0683
  362loPI   C4A 5786  12.894  11.629   8.558 -0.0000  0.1211 -0.0784
  362loPI   C5A 5787  12.935  11.531   8.101  0.0978  0.0376  0.1283
  362loPI   C6A 5788  13.122  11.517   7.700  0.1575 -0.0886 -0.0431
  362loPI   C1B 5789  12.022  11.656   9.298 -0.0080  0.1125 -0.1411
  362loPI   C2B 5790  12.200  11.558   8.922  0.6196  0.3438  0.1581
  362loPI   C3B 5791  12.354  11.467   8.623 -0.0516 -0.3775 -0.0634
  362loPI   C4B 5792  12.567  11.236   8.292 -0.2592  0.1307 -0.2351
  363loPI    C1 5793  16.363   5.404  11.166  0.0965  0.0355  0.1385
  363loPI    C2 5794  16.122   5.328  11.476 -0.0124  0.1756  0.0899
  363loPI    C3 5795  16.456   5.542  11.529  0.0096  0.1332  0.1243
  363loPI   PO4 5796  16.348   5.225  11.031 -0.1049 -0.0744  0.1921
  363loPI   GL1 5797  16.536   5.061  10.727 -0.0645  0.1575  0.0900
  363loPI   GL2 5798  16.321   4.929  10.574  0.1144 -0.2342 -0.0500
  363loPI   C1A 5799  16.874   5.013  10.354 -0.0900 -0.1981  0.1408
  363loPI   C2A 5800  16.883   4.941   9.922  0.1059  0.1332 -0.3218
  363loPI   C3A 5801  16.897   4.899   9.442 -0.1447 -0.0735  0.0207
  363loPI   C4A 5802  16.876   4.898   9.020  0.0597 -0.1670 -0.1317
  363loPI   C5A 5803  16.897   4.762   8.556 -0.0647  0.1343  0.0031
  363loPI   C6A 5804  16.815   4.531   8.168  0.1385 -0.1163  0.2901
  363loPI   C1B 5805  16.407   4.977  10.141  0.2789 -0.0224  0.0626
  363loPI   C2B 5806  16.380   4.974   9.679  0.0417  0.0500  0.2779
  363loPI   C3B 5807  16.430   5.039   9.258  0.1913  0.1394  0.1687
  363loPI   C4B 5808  16.414   4.787   8.907 -0.2238 -0.0733  0.0779
  364loPI    C1 5809  12.897   3.096  11.142 -0.0092  0.2518  0.0150
  364loPI    C2 5810  13.162   2.906  11.373 -0.0586  0.0029 -0.1294
  364loPI    C3 5811  12.899   3.158  11.537 -0.0500 -0.1199  0.0768
  364loPI   PO4 5812  12.939   3.169  10.969  0.1195  0.0026 -0.0556
  364loPI   GL1 5813  13.023   2.989  10.549 -0.1590  0.2847  0.2061
  364loPI   GL2 5814  13.005   3.271  10.389 -0.0980 -0.3830 -0.1442
  364loPI   C1A 5815  13.288   2.752  10.189  0.1138  0.1051 -0.1410
  364loPI   C2A 5816  13.349   2.752   9.732 -0.0825  0.0853  0.3955
  364loPI   C3A 5817  13.425   2.874   9.315  0.2300  0.1375 -0.2955
  364loPI   C4A 5818  13.489   2.808   8.832 -0.4812  0.0791 -0.1341
  364loPI   C5A 5819  13.421   2.447   8.531 -0.1875 -0.3929  0.1614
  364loPI   C6A 5820  13.336   2.201   8.178 -0.1126 -0.2978  0.0894
  364loPI   C1B 5821  13.137   3.177   9.994 -0.2172  0.2219 -0.1848
  364loPI   C2B 5822  13.234   3.313   9.537  0.3151  0.2445 -0.2260
  364loPI   C3B 5823  13.291   3.351   9.197  0.0737 -0.0415 -0.2149
  364loPI   C4B 5824  13.213   3.282   8.753  0.0291 -0.0936 -0.2811
  365loPI    C1 5825   0.620   4.638  11.567 -0.0057  0.1532  0.0047
  365loPI    C2 5826   0.260   4.812  11.545 -0.0010  0.1442 -0.1488
  365loPI    C3 5827   0.495   4.878  11.862 -0.1746  0.0786 -0.0049
  365loPI   PO4 5828   0.754   4.758  11.226 -0.0891 -0.0209 -0.0790
  365loPI   GL1 5829   1.026   4.609  10.898 -0.1585 -0.0190  0.2360
  365loPI   GL2 5830   1.315   4.611  10.681  0.2243 -0.0770  0.1822
  365loPI   C1A 5831   1.079   4.158  10.697  0.0037 -0.1853  0.1046
  365loPI   C2A 5832   1.057   4.042  10.273  0.3946  0.0954  0.0290
  365loPI   C3A 5833   1.179   4.104   9.871 -0.3220 -0.0671 -0.3282
  365loPI   C4A 5834   1.172   4.109   9.533  0.0480  0.1230 -0.4044
  365loPI   C5A 5835   1.160   4.021   9.201 -0.2037 -0.1967 -0.2533
  365loPI   C6A 5836   1.147   4.122   8.746  0.1625  0.0760 -0.1648
  365loPI   C1B 5837   1.071   4.549  10.248 -0.0430  0.1081  0.0295
  365loPI   C2B 5838   0.945   4.614   9.864  0.1138  0.0584  0.2478
  365loPI   C3B 5839   0.966   4.495   9.358  0.1979 -0.0754 -0.1972
  365loPI   C4B 5840   0.929   4.495   8.976 -0.0407 -0.1494 -0.0672
  366loPI    C1 5841   6.059   3.889  10.902  0.1704  0.2578 -0.0948
  366loPI    C2 5842   6.334   3.614  10.806  0.1852  0.1896  0.1371
  366loPI    C3 5843   6.368   3.821  11.147 -0.1955 -0.0162  0.3064
  366loPI   PO4 5844   5.965   3.980  10.592  0.1840  0.3078 -0.3188
  366loPI   GL1 5845   5.777   4.295  10.401 -0.1532 -0.1052 -0.0624
  366loPI   GL2 5846   5.495   4.298  10.281 -0.1692  0.1834 -0.1681
  366loPI   C1A 5847   5.947   4.286  10.056 -0.0954  0.0547 -0.1942
  366loPI   C2A 5848   5.942   4.446   9.615 -0.1038  0.0668  0.0609
  366loPI   C3A 5849   5.873   4.447   9.120  0.2760  0.0538 -0.2979
  366loPI   C4A 5850   5.924   4.190   8.868 -0.1525 -0.4214 -0.2072
  366loPI   C5A 5851   5.839   4.079   8.415  0.0550 -0.0671  0.1194
  366loPI   C6A 5852   5.676   3.922   8.055  0.2826  0.1099  0.0596
  366loPI   C1B 5853   5.492   4.422   9.898 -0.1502 -0.0384  0.3772
  366loPI   C2B 5854   5.479   4.335   9.485 -0.1569 -0.4397  0.0909
  366loPI   C3B 5855   5.406   4.312   9.017 -0.1003  0.4565 -0.2052
  366loPI   C4B 5856   5.397   4.167   8.631  0.2425  0.0718 -0.2078
  367loPI    C1 5857  16.061   8.780  10.802 -0.2036  0.1017  0.0216
  367loPI    C2 5858  15.786   8.803  11.092  0.0280  0.3764  0.2251
  367loPI    C3 5859  16.102   8.561  11.134 -0.2345 -0.0267 -0.0588
  367loPI   PO4 5860  16.127   9.011  10.756 -0.0517 -0.2641  0.1874
  367loPI   GL1 5861  16.380   9.104  10.472  0.1232  0.0921  0.1039
  367loPI   GL2 5862  16.486   9.396  10.445  0.1120 -0.0624 -0.0930
  367loPI   C1A 5863  16.268   9.194  10.070  0.0736  0.0399  0.0107
  367loPI   C2A 5864  16.165   9.157   9.707  0.3112 -0.0397 -0.1896
  367loPI   C3A 5865  16.230   9.197   9.264  0.0761 -0.0574  0.4228
  367loPI   C4A 5866  16.304   9.166   8.789 -0.2051 -0.1658 -0.0604
  367loPI   C5A 5867  16.557   9.307   8.453 -0.2145  0.0945  0.1391
  367loPI   C6A 5868  16.778   9.607   8.218  0.2237  0.0703 -0.0078
  367loPI   C1B 5869  16.615   9.648  10.091 -0.0079  0.1528 -0.1130
  367loPI   C2B 5870  16.510   9.548   9.706  0.3788 -0.2425 -0.1927
  367loPI   C3B 5871  16.486   9.579   9.278  0.0276 -0.0698 -0.0269
  367loPI   C4B 5872  16.627   9.575   8.902  0.2526  0.1419  0.2031
  368loPI    C1 5873  16.378  13.112  11.034 -0.1681  0.1158  0.0089
  368loPI    C2 5874  16.310  13.181  11.422 -0.2252  0.0228  0.0158
  368loPI    C3 5875  16.534  13.436  11.210  0.0183 -0.0587  0.1702
  368loPI   PO4 5876  16.226  13.106  10.919 -0.0527  0.2526  0.1102
  368loPI   GL1 5877  16.021  13.283  10.589 -0.3026 -0.1941 -0.0123
  368loPI   GL2 5878  15.868  13.664  10.521 -0.0045  0.0491  0.1542
  368loPI   C1A 5879  15.778  13.141  10.325  0.1126 -0.0386 -0.0628
  368loPI   C2A 5880  15.725  13.055   9.861 -0.1946  0.0132  0.1928
  368loPI   C3A 5881  15.705  12.935   9.453  0.1140  0.5259  0.0288
  368loPI   C4A 5882  15.809  13.033   9.032 -0.0357  0.1718 -0.0099
  368loPI   C5A 5883  15.927  12.867   8.559  0.1853  0.0607 -0.2263
  368loPI   C6A 5884  16.094  12.856   8.140 -0.2958 -0.0258  0.0242
  368loPI   C1B 5885  16.005  13.489  10.108 -0.0040  0.0065 -0.1913
  368loPI   C2B 5886  15.946  13.498   9.739 -0.0582 -0.2058 -0.1037
  368loPI   C3B 5887  16.074  13.332   9.347  0.0590 -0.1293 -0.1507
  368loPI   C4B 5888  16.132  13.440   8.956 -0.0988 -0.1655 -0.2067
  369loPI    C1 5889   7.269   5.757  10.538  0.1502  0.0501 -0.1033
  369loPI    C2 5890   7.145   6.107  10.686 -0.1869  0.0094 -0.2788
  369loPI    C3 5891   7.145   5.780  10.917  0.3062  0.1561 -0.0582
  369loPI   PO4 5892   7.128   5.746  10.353 -0.2154 -0.1184  0.1337
  369loPI   GL1 5893   6.965   5.854   9.965 -0.1466  0.0162  0.1627
  369loPI   GL2 5894   6.814   6.100   9.843  0.0153  0.2990  0.0045
  369loPI   C1A 5895   6.898   5.879   9.372 -0.1152  0.1923 -0.3000
  369loPI   C2A 5896   6.963   6.034   8.892 -0.0152 -0.1203  0.1084
  369loPI   C3A 5897   7.039   5.946   8.448 -0.1329 -0.1080  0.1009
  369loPI   C4A 5898   7.220   5.998   8.064 -0.0237  0.0764  0.1450
  369loPI   C5A 5899   7.734   6.005   8.000  0.1148  0.2290 -0.1763
  369loPI   C6A 5900   8.239   5.986   7.977  0.3210 -0.3162 -0.1002
  369loPI   C1B 5901   6.560   6.217   9.519 -0.0408  0.1715 -0.0669
  369loPI   C2B 5902   6.514   6.239   9.049  0.1895 -0.1744 -0.1579
  369loPI   C3B 5903   6.539   6.250   8.655  0.2377 -0.1103 -0.2151
  369loPI   C4B 5904   6.610   6.283   8.288  0.0295  0.0847 -0.2313
  370loPI    C1 5905   5.519   4.118  10.776  0.2247  0.3819 -0.1032
  370loPI    C2 5906   5.675   4.148  11.143 -0.0415  0.0278  0.0444
  370loPI    C3 5907   5.384   4.397  11.029 -0.1651 -0.0520  0.1823
  370loPI   PO4 5908   5.467   3.802  10.668  0.0045 -0.0445  0.0441
  370loPI   GL1 5909   5.362   3.502  10.289 -0.0977  0.0911  0.1574
  370loPI   GL2 5910   5.214   3.368  10.394 -0.0107  0.1829  0.1219
  370loPI   C1A 5911   5.367   3.427   9.890  0.4146  0.0617  0.3054
  370loPI   C2A 5912   5.286   3.395   9.492 -0.1668 -0.0594 -0.1258
  370loPI   C3A 5913   5.250   3.359   9.023 -0.5269  0.4476 -0.2045
  370loPI   C4A 5914   5.343   3.197   8.688 -0.0519  0.0596  0.0090
  370loPI   C5A 5915   5.434   3.245   8.289  0.1629  0.3561 -0.1031
  370loPI   C6A 5916   5.357   3.038   7.930 -0.2258  0.1722  0.1687
  370loPI   C1B 5917   4.884   3.384  10.083 -0.0185 -0.2341 -0.2044
  370loPI   C2B 5918   4.838   3.600   9.699 -0.3356  0.2651  0.0977
  370loPI   C3B 5919   4.818   3.577   9.252 -0.1880  0.0173  0.0386
  370loPI   C4B 5920   4.795   3.329   8.909  0.0413 -0.0215 -0.0155
  371loPI    C1 5921  12.291   7.027  10.970  0.1477 -0.1788  0.0686
  371loPI    C2 5922  12.622   6.879  11.139  0.2540  0.1984  0.1999
  371loPI    C3 5923  12.296   6.944  11.361  0.2421  0.2596  0.1649
  371loPI   PO4 5924  12.290   6.903  10.688 -0.1039 -0.2758  0.1784
  371loPI   GL1 5925  12.486   7.094  10.358 -0.3225 -0.0738  0.1684
  371loPI   GL2 5926  12.694   7.427  10.348 -0.3341 -0.2263 -0.0673
  371loPI   C1A 5927  12.570   6.998   9.912  0.1301 -0.0351 -0.0827
  371loPI   C2A 5928  12.681   7.020   9.481 -0.0293  0.0384 -0.0221
  371loPI   C3A 5929  12.767   6.968   9.071 -0.0811  0.3543  0.0858
  371loPI   C4A 5930  12.658   6.935   8.619 -0.1970  0.1000  0.2075
  371loPI   C5A 5931  12.877   7.053   8.188 -0.2231 -0.1585  0.3141
  371loPI   C6A 5932  13.070   7.142   7.826 -0.0026  0.1675  0.0283
  371loPI   C1B 5933  12.817   7.417   9.852  0.0462 -0.1822  0.1006
  371loPI   C2B 5934  13.054   7.451   9.401  0.1313 -0.1916 -0.1487
  371loPI   C3B 5935  13.208   7.422   8.951  0.0329  0.1025  0.1256
  371loPI   C4B 5936  12.949   7.488   8.550  0.1245 -0.1967 -0.1276
  372loPI    C1 5937   3.525   0.305  10.965  0.0582 -0.0282  0.0369
  372loPI    C2 5938   3.670   0.601  11.192 -0.1097  0.0240  0.0776
  372loPI    C3 5939   3.749   0.220  11.285 -0.0478  0.0503  0.1330
  372loPI   PO4 5940   3.655   0.292  10.748 -0.2822 -0.0154 -0.3086
  372loPI   GL1 5941   3.575   0.428  10.359  0.1313  0.0245 -0.0684
  372loPI   GL2 5942   3.950   0.386  10.325  0.1997  0.0007 -0.1357
  372loPI   C1A 5943   3.489   0.486   9.977  0.1367 -0.0650  0.1709
  372loPI   C2A 5944   3.611   0.355   9.591 -0.0722  0.0153  0.0339
  372loPI   C3A 5945   3.682   0.373   9.142 -0.1013  0.1016 -0.0006
  372loPI   C4A 5946   3.851   0.247   8.682  0.0141  0.0646 -0.1211
  372loPI   C5A 5947   3.918  -0.102   8.493  0.1030 -0.0205  0.1833
  372loPI   C6A 5948   4.195  -0.078   8.193  0.0204 -0.0611 -0.0485
  372loPI   C1B 5949   4.050   0.350   9.889  0.0023 -0.1816  0.1984
  372loPI   C2B 5950   4.086   0.238   9.386 -0.1890 -0.0025  0.4361
  372loPI   C3B 5951   4.244   0.305   8.997  0.0576  0.2661 -0.0275
  372loPI   C4B 5952   4.486   0.358   8.519 -0.0273  0.0058 -0.3125
  373loPI    C1 5953   4.070  10.906  10.975  0.2120 -0.0129 -0.1076
  373loPI    C2 5954   3.928  10.693  11.283 -0.0079 -0.0968 -0.2640
  373loPI    C3 5955   3.802  11.068  11.224  0.1141 -0.0437 -0.1921
  373loPI   PO4 5956   4.025  10.785  10.757 -0.0913  0.0965 -0.2543
  373loPI   GL1 5957   3.755  10.842  10.400  0.1243  0.0586  0.0742
  373loPI   GL2 5958   3.649  10.520  10.390  0.0070 -0.3168 -0.1451
  373loPI   C1A 5959   3.811  10.961   9.849  0.0690 -0.1129 -0.0345
  373loPI   C2A 5960   3.826  11.154   9.405 -0.1523 -0.0332 -0.1776
  373loPI   C3A 5961   3.801  11.088   8.983  0.0189  0.1109  0.0051
  373loPI   C4A 5962   3.729  10.975   8.550 -0.1864  0.1893  0.0494
  373loPI   C5A 5963   3.865  10.731   8.315  0.0333  0.1834  0.1974
  373loPI   C6A 5964   4.291  10.837   8.145  0.0258 -0.2725  0.2632
  373loPI   C1B 5965   3.484  10.604  10.049  0.0103 -0.0059 -0.0490
  373loPI   C2B 5966   3.482  10.520   9.631  0.0014  0.4739 -0.2817
  373loPI   C3B 5967   3.445  10.660   9.261 -0.0688  0.5662  0.1165
  373loPI   C4B 5968   3.405  10.703   8.876  0.2779  0.0216 -0.0398
  374loPI    C1 5969  15.406  10.717  11.173  0.0303  0.1174 -0.1676
  374loPI    C2 5970  15.013  10.745  11.243 -0.0390 -0.2998 -0.3592
  374loPI    C3 5971  15.246  10.532  11.489  0.0750 -0.0310 -0.2308
  374loPI   PO4 5972  15.499  10.653  10.928 -0.3869  0.0143 -0.1039
  374loPI   GL1 5973  15.436  10.458  10.524  0.0737 -0.0312  0.0393
  374loPI   GL2 5974  15.675  10.499  10.425 -0.0779  0.0463 -0.2796
  374loPI   C1A 5975  15.322  10.366  10.052  0.1450 -0.0980 -0.2791
  374loPI   C2A 5976  15.206  10.184   9.683 -0.4496 -0.0333 -0.2937
  374loPI   C3A 5977  15.310  10.292   9.315 -0.0580  0.1023 -0.0835
  374loPI   C4A 5978  15.366  10.213   8.932 -0.0294 -0.5620 -0.0925
  374loPI   C5A 5979  15.333  10.140   8.411  0.2586  0.0822 -0.0139
  374loPI   C6A 5980  15.056  10.544   8.128  0.0976 -0.1263  0.1657
  374loPI   C1B 5981  15.651  10.717   9.879 -0.3521  0.1012 -0.5136
  374loPI   C2B 5982  15.596  10.732   9.374  0.1392  0.3285  0.3344
  374loPI   C3B 5983  15.657  10.613   8.892  0.0759 -0.2833  0.1619
  374loPI   C4B 5984  15.382  10.575   8.535  0.0355  0.0062 -0.2946
  375loPI    C1 5985  10.529  17.705  11.029 -0.0174  0.1047  0.2568
  375loPI    C2 5986  10.525  17.696  11.429 -0.1096 -0.3467  0.2516
  375loPI    C3 5987  10.183  17.743  11.226 -0.0306  0.1642  0.2226
  375loPI   PO4 5988  10.605  17.512  10.824 -0.2490 -0.0391  0.3039
  375loPI   GL1 5989  10.602  17.609  10.462  0.3517  0.3517  0.3936
  375loPI   GL2 5990  10.502  17.487  10.259 -0.0627 -0.2155 -0.0166
  375loPI   C1A 5991  10.907  17.946  10.275  0.0715  0.5203 -0.0962
  375loPI   C2A 5992  10.942  17.973   9.885 -0.0344  0.2568  0.3986
  375loPI   C3A 5993  11.010  18.175   9.473 -0.0993  0.2171 -0.2090
  375loPI   C4A 5994  11.104  18.136   9.036 -0.0638 -0.1578 -0.0528
  375loPI   C5A 5995  11.068  18.176   8.665  0.0035 -0.1142 -0.1330
  375loPI   C6A 5996  11.463  18.312   8.418 -0.0781 -0.3876 -0.2404
  375loPI   C1B 5997  10.626  17.589   9.879  0.1066  0.1611  0.3012
  375loPI   C2B 5998  10.633  17.700   9.499  0.0717  0.0426  0.3437
  375loPI   C3B 5999  10.688  17.756   9.053  0.0164  0.1120 -0.1377
  375loPI   C4B 6000  10.716  17.702   8.581 -0.3315 -0.0497 -0.0539
  376loPI    C1 6001   0.170  10.879  11.151 -0.3033  0.2889  0.1404
  376loPI    C2 6002  -0.167  10.716  11.292  0.0249 -0.3420  0.2324
  376loPI    C3 6003   0.060  10.943  11.530 -0.0902 -0.3123  0.3150
  376loPI   PO4 6004   0.144  10.889  10.919  0.2052  0.2047 -0.0256
  376loPI   GL1 6005   0.381  10.886  10.532 -0.1731 -0.1907  0.2763
  376loPI   GL2 6006   0.506  10.609  10.298  0.1316  0.0202 -0.2776
  376loPI   C1A 6007   0.498  11.100  10.115  0.1509 -0.3058 -0.0716
  376loPI   C2A 6008   0.406  11.228   9.680  0.6055 -0.0426 -0.1775
  376loPI   C3A 6009   0.255  11.130   9.305 -0.3376  0.0945  0.2378
  376loPI   C4A 6010   0.306  11.116   8.877 -0.0802 -0.0388 -0.0528
  376loPI   C5A 6011   0.504  11.326   8.535  0.1723  0.1644 -0.1468
  376loPI   C6A 6012   0.796  11.309   8.207 -0.0527 -0.2386 -0.5246
  376loPI   C1B 6013   0.500  10.700   9.781 -0.0168  0.1659  0.0150
  376loPI   C2B 6014   0.486  10.652   9.365 -0.4155 -0.1891 -0.1339
  376loPI   C3B 6015   0.465  10.619   8.828  0.1444 -0.0472 -0.0643
  376loPI   C4B 6016   0.421  10.809   8.450  0.0407  0.0326 -0.2063
  377loPI    C1 6017  17.016   9.514  10.969  0.3983  0.0857  0.0776
  377loPI    C2 6018  16.912   9.515  11.355  0.0872  0.0638 -0.0033
  377loPI    C3 6019  17.086   9.192  11.196  0.4328  0.1591  0.1715
  377loPI   PO4 6020  16.807   9.563  10.810 -0.0035  0.0995 -0.0582
  377loPI   GL1 6021  16.968   9.395  10.390 -0.2594  0.0378 -0.0027
  377loPI   GL2 6022  17.129   9.464  10.155  0.0586  0.0825 -0.4231
  377loPI   C1A 6023  16.752   9.142  10.087  0.0631  0.1683  0.0492
  377loPI   C2A 6024  16.669   9.129   9.607 -0.0623 -0.1870 -0.0265
  377loPI   C3A 6025  16.776   9.040   9.155 -0.0531 -0.2716 -0.3109
  377loPI   C4A 6026  16.756   9.028   8.819  0.0057 -0.1926 -0.0757
  377loPI   C5A 6027  16.933   8.993   8.387 -0.2835  0.4574  0.4124
  377loPI   C6A 6028  17.144   9.198   8.031 -0.1259 -0.1454  0.1157
  377loPI   C1B 6029  16.982   9.470   9.803  0.2345 -0.2379 -0.1630
  377loPI   C2B 6030  17.079   9.543   9.451 -0.5930  0.1891  0.0908
  377loPI   C3B 6031  17.081   9.411   9.100 -0.2318  0.2876 -0.0064
  377loPI   C4B 6032  17.054   9.411   8.624  0.3041 -0.2447  0.0688
  378loPI    C1 6033   1.956  11.453  11.035 -0.1399 -0.0107 -0.1939
  378loPI    C2 6034   1.673  11.691  11.187 -0.0687 -0.0023 -0.0734
  378loPI    C3 6035   1.827  11.395  11.409  0.1180  0.0827 -0.0880
  378loPI   PO4 6036   1.913  11.378  10.727 -0.2485 -0.1739  0.1935
  378loPI   GL1 6037   1.713  11.299  10.409 -0.3778  0.0870  0.0801
  378loPI   GL2 6038   1.886  11.286  10.264  0.1596  0.2218  0.2857
  378loPI   C1A 6039   1.519  11.075   9.904 -0.2193 -0.3749 -0.0431
  378loPI   C2A 6040   1.322  10.883   9.419  0.2161 -0.2203 -0.0091
  378loPI   C3A 6041   1.291  10.959   9.054 -0.0496 -0.3507 -0.1737
  378loPI   C4A 6042   1.318  10.942   8.652  0.1383  0.2144  0.2551
  378loPI   C5A 6043   1.405  10.764   8.211 -0.1343 -0.3426  0.0989
  378loPI   C6A 6044   1.599  10.521   7.788 -0.0196 -0.0762 -0.0376
  378loPI   C1B 6045   1.902  11.438   9.937 -0.0051  0.1291 -0.2551
  378loPI   C2B 6046   1.718  11.519   9.506 -0.0525 -0.1634  0.1828
  378loPI   C3B 6047   1.690  11.518   9.010  0.0113  0.0405  0.0153
  378loPI   C4B 6048   1.571  11.881   8.823  0.2621 -0.1911  0.4640
  379loPI    C1 6049  11.355   9.354  10.690 -0.0019 -0.0763  0.0200
  379loPI    C2 6050  11.008   9.262  10.867 -0.0388 -0.0491 -0.0382
  379loPI    C3 6051  11.283   8.978  10.807 -0.0051 -0.0482  0.1089
  379loPI   PO4 6052  11.273   9.383  10.373 -0.0757  0.0974 -0.3137
  379loPI   GL1 6053  11.377   9.604  10.088 -0.1185 -0.0788  0.0015
  379loPI   GL2 6054  11.737   9.588  10.066  0.2001 -0.0446 -0.2204
  379loPI   C1A 6055  11.083   9.526   9.718  0.2016 -0.3956  0.1019
  379loPI   C2A 6056  10.941   9.599   9.368 -0.2487 -0.2453  0.2067
  379loPI   C3A 6057  11.025   9.640   8.923  0.0754  0.0084  0.2911
  379loPI   C4A 6058  10.991   9.636   8.409 -0.0016  0.1102 -0.4742
  379loPI   C5A 6059  11.040   9.379   8.029 -0.1517  0.1032  0.0035
  379loPI   C6A 6060  11.083   9.192   7.630 -0.1309  0.3361  0.1917
  379loPI   C1B 6061  11.579   9.656   9.640  0.0977  0.3441 -0.3905
  379loPI   C2B 6062  11.486   9.717   9.237 -0.1070  0.0828 -0.0095
  379loPI   C3B 6063  11.466   9.708   8.703  0.1384  0.1189 -0.1190
  379loPI   C4B 6064  11.526   9.576   8.261  0.2166 -0.0487  0.2538
  380loPI    C1 6065  11.419   6.225  10.641  0.0686  0.1280 -0.1527
  380loPI    C2 6066  11.640   6.200  10.973  0.0857  0.1129 -0.1651
  380loPI    C3 6067  11.389   6.508  10.922 -0.0181  0.0437 -0.0762
  380loPI   PO4 6068  11.606   6.191  10.457  0.2066 -0.2284 -0.0598
  380loPI   GL1 6069  11.667   6.058  10.124  0.0277 -0.0591 -0.1613
  380loPI   GL2 6070  11.590   5.689  10.202 -0.1578  0.0682  0.0150
  380loPI   C1A 6071  11.767   5.933   9.780  0.3635  0.1313 -0.1296
  380loPI   C2A 6072  11.695   5.889   9.408 -0.3736 -0.1295 -0.2315
  380loPI   C3A 6073  11.793   5.843   9.033 -0.3022  0.0512  0.3024
  380loPI   C4A 6074  12.013   5.962   8.603 -0.0729  0.3310 -0.1038
  380loPI   C5A 6075  12.133   5.784   8.223  0.1118 -0.3590 -0.0104
  380loPI   C6A 6076  12.537   5.951   8.026  0.1350 -0.0745 -0.0274
  380loPI   C1B 6077  11.784   5.458   9.839  0.0685  0.2848  0.0670
  380loPI   C2B 6078  11.922   5.433   9.470 -0.0600  0.3317  0.1714
  380loPI   C3B 6079  11.928   5.156   9.078 -0.0188 -0.0050  0.3082
  380loPI   C4B 6080  12.054   4.788   8.701 -0.0788 -0.0945 -0.0177
  381loPI    C1 6081  14.445   6.783  11.273 -0.0374 -0.2432 -0.1630
  381loPI    C2 6082  14.523   6.393  11.237  0.2773 -0.1767 -0.2296
  381loPI    C3 6083  14.761   6.625  11.459  0.0308 -0.0405 -0.1036
  381loPI   PO4 6084  14.276   6.796  11.100 -0.0682  0.0723  0.1898
  381loPI   GL1 6085  14.500   6.578  10.670 -0.1528 -0.1015 -0.0628
  381loPI   GL2 6086  14.696   6.750  10.530  0.3370 -0.1971  0.0240
  381loPI   C1A 6087  14.417   6.312  10.286 -0.2159  0.1728  0.0607
  381loPI   C2A 6088  14.586   6.259   9.863 -0.2045 -0.0105 -0.1502
  381loPI   C3A 6089  14.506   6.291   9.410 -0.0317  0.2921  0.1842
  381loPI   C4A 6090  14.477   6.354   9.001  0.0862  0.0030 -0.1295
  381loPI   C5A 6091  14.637   6.398   8.646  0.2031  0.0874 -0.2335
  381loPI   C6A 6092  14.656   6.795   8.450 -0.1058  0.3703 -0.0613
  381loPI   C1B 6093  14.753   6.741  10.150  0.0821  0.3694  0.1834
  381loPI   C2B 6094  14.784   6.638   9.673 -0.2744 -0.0066  0.3610
  381loPI   C3B 6095  14.848   6.674   9.288  0.0715  0.2886  0.2649
  381loPI   C4B 6096  14.885   6.753   8.948 -0.0618  0.0418 -0.0924
  382loPI    C1 6097   8.913  12.815  10.377  0.0558 -0.1675 -0.2319
  382loPI    C2 6098   9.170  12.785  10.682  0.0155 -0.0705 -0.1882
  382loPI    C3 6099   8.779  12.725  10.743  0.0106 -0.0760 -0.2255
  382loPI   PO4 6100   9.099  12.574  10.132  0.1672  0.3793 -0.1450
  382loPI   GL1 6101   9.347  12.435   9.762  0.2039 -0.2172 -0.0792
  382loPI   GL2 6102   9.588  12.251   9.513  0.0068  0.0609  0.0957
  382loPI   C1A 6103   9.164  12.480   9.363 -0.1991  0.1039  0.1021
  382loPI   C2A 6104   8.783  12.402   9.181 -0.1639 -0.2689 -0.5149
  382loPI   C3A 6105   8.578  12.482   8.710 -0.4000  0.0061 -0.0127
  382loPI   C4A 6106   8.532  12.241   8.380  0.0132  0.1542 -0.1979
  382loPI   C5A 6107   8.434  12.123   7.987  0.0764 -0.3805  0.0061
  382loPI   C6A 6108   8.401  12.199   7.623  0.2608  0.0077 -0.0301
  382loPI   C1B 6109   9.482  12.152   9.123 -0.0087  0.1204  0.1703
  382loPI   C2B 6110   9.415  12.008   8.689 -0.0828 -0.4126  0.0617
  382loPI   C3B 6111   9.422  12.169   8.271  0.0847 -0.0138 -0.2426
  382loPI   C4B 6112   9.686  12.099   7.854 -0.4171  0.1508  0.2307
  383loPI    C1 6113   9.227   9.540  10.415  0.0987 -0.0005  0.0463
  383loPI    C2 6114   8.967   9.329  10.634  0.1053  0.0780  0.1306
  383loPI    C3 6115   9.220   9.582  10.813  0.0198  0.2432  0.0213
  383loPI   PO4 6116   9.181   9.599  10.190 -0.3252  0.3200  0.1237
  383loPI   GL1 6117   9.225   9.341   9.774  0.0761 -0.0804  0.0034
  383loPI   GL2 6118   8.851   9.344   9.840 -0.1533  0.2700  0.1264
  383loPI   C1A 6119   9.164   9.196   9.289  0.0931  0.0659  0.1139
  383loPI   C2A 6120   9.251   9.207   8.732 -0.0554 -0.0614 -0.1302
  383loPI   C3A 6121   9.344   9.254   8.267 -0.3583 -0.3372  0.1212
  383loPI   C4A 6122   9.219   9.365   7.875  0.0369 -0.3734 -0.0509
  383loPI   C5A 6123   9.039   9.301   7.548 -0.0904 -0.1964 -0.0650
  383loPI   C6A 6124   9.029   9.534   7.143  0.0860 -0.0164  0.1794
  383loPI   C1B 6125   8.643   9.136   9.400  0.2857  0.1827 -0.1405
  383loPI   C2B 6126   8.738   9.155   8.957 -0.1039 -0.1551  0.0170
  383loPI   C3B 6127   8.773   9.092   8.570 -0.2125  0.1522  0.0999
  383loPI   C4B 6128   8.567   9.106   8.179  0.0964 -0.3599  0.2233
  384loPI    C1 6129  17.977  13.145  11.163 -0.0861 -0.0430 -0.0739
  384loPI    C2 6130  17.931  12.991  11.529 -0.3170 -0.3217 -0.2169
  384loPI    C3 6131  17.840  13.374  11.461 -0.2655 -0.2663  0.0178
  384loPI   PO4 6132  17.779  12.975  10.966  0.0147  0.2229 -0.2629
  384loPI   GL1 6133  17.653  13.164  10.524 -0.2958 -0.4300 -0.1549
  384loPI   GL2 6134  17.933  13.284  10.613 -0.1737  0.0397 -0.0823
  384loPI   C1A 6135  17.503  13.197  10.101  0.0565  0.1743 -0.0782
  384loPI   C2A 6136  17.546  13.211   9.665 -0.3314 -0.1479 -0.0085
  384loPI   C3A 6137  17.661  13.087   9.240  0.0461  0.4228 -0.1742
  384loPI   C4A 6138  17.614  13.016   8.755 -0.1715  0.0628 -0.1106
  384loPI   C5A 6139  17.772  12.905   8.407  0.0329 -0.1505 -0.1769
  384loPI   C6A 6140  17.778  12.514   8.279 -0.1946  0.1875 -0.0987
  384loPI   C1B 6141  17.957  13.429  10.270  0.2385  0.2521  0.1837
  384loPI   C2B 6142  17.816  13.543   9.901 -0.1745  0.0638  0.2210
  384loPI   C3B 6143  17.889  13.521   9.499 -0.1216  0.3126  0.2783
  384loPI   C4B 6144  17.887  13.591   9.078  0.1209  0.1801 -0.2979
  385loPI    C1 6145  12.011  11.122  10.613  0.0966  0.4266 -0.0135
  385loPI    C2 6146  11.674  10.998  10.789  0.0526  0.0992 -0.3167
  385loPI    C3 6147  11.883  11.299  10.948 -0.0377 -0.1156  0.2331
  385loPI   PO4 6148  12.135  10.842  10.511 -0.0671  0.0173 -0.0741
  385loPI   GL1 6149  12.130  10.610  10.259  0.1146  0.1233  0.0027
  385loPI   GL2 6150  12.378  10.734  10.095  0.3159 -0.1068 -0.4518
  385loPI   C1A 6151  12.185  10.339   9.839 -0.0605 -0.2784  0.0509
  385loPI   C2A 6152  12.253  10.249   9.499  0.1654  0.0308 -0.2085
  385loPI   C3A 6153  12.182  10.173   9.074  0.1157  0.0865 -0.2097
  385loPI   C4A 6154  12.210  10.070   8.648  0.1824 -0.0897 -0.0504
  385loPI   C5A 6155  12.171  10.361   8.311 -0.0892  0.0084  0.0088
  385loPI   C6A 6156  12.029  10.494   7.931 -0.1534 -0.0866 -0.0606
  385loPI   C1B 6157  12.511  10.716   9.663 -0.0597 -0.0885  0.2166
  385loPI   C2B 6158  12.552  10.549   9.214 -0.2308 -0.0967 -0.2663
  385loPI   C3B 6159  12.514  10.421   8.843 -0.0269  0.1365  0.0033
  385loPI   C4B 6160  12.663  10.183   8.393  0.0740  0.0423  0.0243
  386loPI    C1 6161  15.221   9.128  11.127  0.1859  0.0587  0.1733
  386loPI    C2 6162  15.366   9.457  10.953 -0.0428  0.1624  0.1753
  386loPI    C3 6163  15.586   9.261  11.223  0.2073  0.1516 -0.0318
  386loPI   PO4 6164  15.119   8.931  10.849 -0.0435 -0.1978 -0.1790
  386loPI   GL1 6165  15.175   9.079  10.477  0.1142 -0.1160  0.0498
  386loPI   GL2 6166  15.173   8.663  10.420  0.2683  0.0724 -0.0911
  386loPI   C1A 6167  15.353   8.985  10.082 -0.1002 -0.0622 -0.0394
  386loPI   C2A 6168  15.274   8.927   9.619  0.1373  0.1880  0.0435
  386loPI   C3A 6169  15.329   8.800   9.132  0.2423 -0.2804  0.1061
  386loPI   C4A 6170  15.451   8.811   8.717  0.1113 -0.0521 -0.1945
  386loPI   C5A 6171  15.410   8.598   8.394  0.0281  0.0573  0.1623
  386loPI   C6A 6172  14.943   8.578   8.107 -0.2062  0.1055  0.0898
  386loPI   C1B 6173  15.064   8.611   9.970  0.1662  0.3769  0.0154
  386loPI   C2B 6174  15.025   8.473   9.510  0.1579 -0.1032 -0.1123
  386loPI   C3B 6175  14.916   8.483   9.146 -0.0803 -0.2004 -0.0455
  386loPI   C4B 6176  15.123   8.467   8.770  0.1841 -0.1478 -0.0781
  387loPI    C1 6177   5.911  15.985  10.990 -0.0545 -0.1215  0.2809
  387loPI    C2 6178   6.259  15.995  10.793 -0.2603 -0.1031 -0.0910
  387loPI    C3 6179   6.236  15.818  11.151  0.1258 -0.1158 -0.0690
  387loPI   PO4 6180   5.748  15.949  10.756  0.2493 -0.1318  0.0766
  387loPI   GL1 6181   5.627  15.928  10.430  0.2550  0.1058 -0.0771
  387loPI   GL2 6182   5.919  16.282  10.452 -0.2716 -0.1987  0.2141
  387loPI   C1A 6183   5.554  15.784   9.950  0.3572 -0.2941  0.1740
  387loPI   C2A 6184   5.496  15.788   9.514 -0.0900 -0.3410 -0.2578
  387loPI   C3A 6185   5.468  15.739   9.044 -0.1236 -0.0264  0.6066
  387loPI   C4A 6186   5.553  15.794   8.605  0.1813 -0.1578 -0.0456
  387loPI   C5A 6187   5.685  16.096   8.319  0.0808 -0.3155 -0.1165
  387loPI   C6A 6188   5.873  16.534   8.325  0.1714 -0.2670  0.1025
  387loPI   C1B 6189   5.872  16.264  10.039 -0.0251 -0.4132 -0.1130
  387loPI   C2B 6190   5.843  16.208   9.676 -0.1145 -0.0493 -0.1670
  387loPI   C3B 6191   5.832  16.082   9.242 -0.1169  0.1538 -0.1227
  387loPI   C4B 6192   5.822  16.211   8.834 -0.1329 -0.3688 -0.1587
  388loPI    C1 6193   0.211   3.370  11.452  0.1669 -0.0934  0.1649
  388loPI    C2 6194   0.463   3.603  11.659 -0.0193  0.0895  0.1890
  388loPI    C3 6195   0.089   3.546  11.790 -0.0406 -0.0522  0.0699
  388loPI   PO4 6196   0.129   3.472  11.221 -0.2394  0.1282 -0.1236
  388loPI   GL1 6197   0.246   3.681  10.904  0.0326  0.0124  0.0288
  388loPI   GL2 6198   0.214   4.042  10.764  0.1759  0.1675  0.0352
  388loPI   C1A 6199   0.291   3.603  10.463  0.1252  0.2808  0.2455
  388loPI   C2A 6200   0.348   3.725  10.030  0.0246  0.0008  0.0952
  388loPI   C3A 6201   0.410   3.649   9.695  0.0417  0.2846 -0.0348
  388loPI   C4A 6202   0.268   3.803   9.212  0.2697 -0.0967 -0.1530
  388loPI   C5A 6203   0.429   4.097   8.754 -0.0110 -0.1506 -0.1732
  388loPI   C6A 6204   0.745   4.410   8.537 -0.2687 -0.0047  0.3500
  388loPI   C1B 6205   0.098   4.234  10.371  0.3702 -0.2282  0.0848
  388loPI   C2B 6206   0.253   4.283   9.900  0.0069 -0.3278 -0.2455
  388loPI   C3B 6207   0.040   4.294   9.567 -0.2942 -0.1973  0.0717
  388loPI   C4B 6208   0.179   4.310   9.172 -0.0291  0.0467 -0.2427
  389loPI    C1 6209  13.287  10.483  11.012 -0.0510  0.1227 -0.0601
  389loPI    C2 6210  13.641  10.450  11.196 -0.0588 -0.0246 -0.0705
  389loPI    C3 6211  13.350  10.186  11.273 -0.2325  0.2085  0.0830
  389loPI   PO4 6212  13.448  10.519  10.679 -0.0663  0.0853 -0.1244
  389loPI   GL1 6213  13.467  10.174  10.374  0.1024 -0.1488  0.0972
  389loPI   GL2 6214  13.245  10.065  10.180  0.1912 -0.2617 -0.0410
  389loPI   C1A 6215  13.707  10.110  10.058 -0.2838 -0.1491 -0.1589
  389loPI   C2A 6216  13.815  10.016   9.684 -0.1674 -0.0799  0.4706
  389loPI   C3A 6217  13.952  10.063   9.252 -0.1395 -0.0675  0.1091
  389loPI   C4A 6218  14.069  10.078   8.864  0.0191  0.3224 -0.2947
  389loPI   C5A 6219  14.159  10.057   8.470 -0.0912  0.0952  0.3332
  389loPI   C6A 6220  14.255   9.735   8.137 -0.0732 -0.1621 -0.2130
  389loPI   C1B 6221  13.380  10.143   9.729  0.3447  0.1532 -0.0274
  389loPI   C2B 6222  13.478  10.146   9.300  0.2278  0.0493 -0.0159
  389loPI   C3B 6223  13.608  10.175   8.949  0.0281  0.2131  0.2930
  389loPI   C4B 6224  13.661  10.150   8.504  0.2443  0.0702  0.2069
  390loPI    C1 6225   7.414   1.647  10.786  0.1137  0.0842  0.0697
  390loPI    C2 6226   7.125   1.395  10.898  0.2016 -0.0878 -0.0849
  390loPI    C3 6227   7.292   1.640  11.166  0.2275 -0.3077  0.1033
  390loPI   PO4 6228   7.540   1.535  10.709 -0.3851 -0.1093 -0.3411
  390loPI   GL1 6229   7.635   1.383  10.335  0.1090 -0.0034  0.0834
  390loPI   GL2 6230   7.934   1.398  10.265 -0.2519  0.0549  0.1243
  390loPI   C1A 6231   7.576   1.149   9.974  0.1667 -0.2112 -0.1304
  390loPI   C2A 6232   7.717   1.168   9.552 -0.1638 -0.0605  0.4595
  390loPI   C3A 6233   7.772   1.040   9.074 -0.1927  0.1498  0.2350
  390loPI   C4A 6234   7.728   1.033   8.662  0.2343 -0.2550 -0.0670
  390loPI   C5A 6235   7.628   0.971   8.213 -0.0607  0.0208 -0.0403
  390loPI   C6A 6236   7.559   0.977   7.772 -0.2184 -0.2315  0.0510
  390loPI   C1B 6237   8.014   1.486   9.777  0.1775  0.2232 -0.2799
  390loPI   C2B 6238   8.079   1.502   9.383  0.1036  0.1451 -0.1683
  390loPI   C3B 6239   8.089   1.400   9.042 -0.0030 -0.2277 -0.2188
  390loPI   C4B 6240   8.155   1.425   8.611  0.0721  0.3364  0.0511
  391loPI    C1 6241   2.667  16.249  10.770  0.0097 -0.0090  0.1486
  391loPI    C2 6242   2.448  16.350  11.088  0.0989  0.0267  0.1991
  391loPI    C3 6243   2.434  15.976  10.947  0.0054  0.0290  0.2014
  391loPI   PO4 6244   2.659  16.377  10.601  0.0126 -0.1127 -0.2561
  391loPI   GL1 6245   2.770  16.241  10.144  0.0793 -0.1785 -0.1224
  391loPI   GL2 6246   2.969  16.468  10.087  0.1741  0.2497  0.0334
  391loPI   C1A 6247   2.513  15.978   9.847  0.2510  0.0230 -0.0580
  391loPI   C2A 6248   2.424  15.906   9.401  0.0762 -0.2656 -0.5155
  391loPI   C3A 6249   2.550  15.894   9.004 -0.3350  0.2496 -0.4351
  391loPI   C4A 6250   2.641  15.854   8.670  0.1670  0.0088  0.3962
  391loPI   C5A 6251   2.763  15.595   8.288 -0.2572 -0.0847 -0.1128
  391loPI   C6A 6252   2.796  15.221   8.251  0.0385 -0.4178 -0.1234
  391loPI   C1B 6253   2.826  16.393   9.655 -0.0785  0.2514  0.0945
  391loPI   C2B 6254   2.823  16.370   9.158 -0.0117 -0.2559 -0.0502
  391loPI   C3B 6255   2.944  16.294   8.767  0.0726  0.2105  0.0546
  391loPI   C4B 6256   3.023  15.977   8.379  0.2406 -0.3332  0.1147
  392loPI    C1 6257  13.090   0.074  11.181  0.0237 -0.2219  0.1625
  392loPI    C2 6258  12.957  -0.170  10.894  0.0677  0.0775 -0.1178
  392loPI    C3 6259  12.720  -0.077  11.202  0.0244 -0.2558 -0.0459
  392loPI   PO4 6260  13.221   0.199  11.055 -0.1445 -0.0278  0.0981
  392loPI   GL1 6261  13.391   0.235  10.775 -0.0175 -0.0004 -0.2119
  392loPI   GL2 6262  13.261  -0.085  10.565  0.4094 -0.2731  0.1815
  392loPI   C1A 6263  13.555   0.323  10.477  0.1284  0.2682 -0.1146
  392loPI   C2A 6264  13.691   0.369  10.045 -0.3067  0.0069  0.1845
  392loPI   C3A 6265  13.710   0.382   9.496  0.2200  0.1603 -0.2910
  392loPI   C4A 6266  13.826   0.401   8.963  0.2921  0.0368 -0.3156
  392loPI   C5A 6267  13.800   0.259   8.567 -0.2075  0.0540  0.3353
  392loPI   C6A 6268  13.765   0.496   8.230  0.1041  0.0398  0.1672
  392loPI   C1B 6269  13.336  -0.022  10.147  0.2715  0.0237 -0.1986
  392loPI   C2B 6270  13.416  -0.030   9.691 -0.1883  0.1186 -0.0821
  392loPI   C3B 6271  13.423   0.017   9.242 -0.0225 -0.0021 -0.0527
  392loPI   C4B 6272  13.345   0.443   8.919 -0.1649  0.0035  0.1683
  393loPI    C1 6273  11.575  12.567  10.409 -0.2382 -0.0091  0.0086
  393loPI    C2 6274  11.372  12.836  10.624 -0.0842  0.0083  0.1345
  393loPI    C3 6275  11.683  12.645  10.786 -0.2006 -0.2574  0.0509
  393loPI   PO4 6276  11.572  12.705  10.151  0.0421 -0.5002 -0.0139
  393loPI   GL1 6277  11.657  12.975   9.830 -0.1651 -0.0908 -0.1370
  393loPI   GL2 6278  11.813  13.149   9.923 -0.2068 -0.0251  0.0469
  393loPI   C1A 6279  11.750  13.025   9.407  0.0580 -0.0621 -0.1073
  393loPI   C2A 6280  11.706  13.320   9.033 -0.3807  0.0706  0.2088
  393loPI   C3A 6281  11.460  13.344   8.651  0.0807  0.2730 -0.0594
  393loPI   C4A 6282  11.428  13.468   8.249 -0.0667 -0.0119 -0.0502
  393loPI   C5A 6283  11.128  13.680   8.007 -0.3407 -0.1851 -0.2498
  393loPI   C6A 6284  10.874  14.075   7.842 -0.1200 -0.0449 -0.1756
  393loPI   C1B 6285  11.915  13.482   9.740  0.1623 -0.0075  0.0083
  393loPI   C2B 6286  12.020  13.648   9.270 -0.0491 -0.0199 -0.1533
  393loPI   C3B 6287  12.128  13.713   8.872 -0.1067  0.1429  0.0250
  393loPI   C4B 6288  11.963  13.502   8.542 -0.2903  0.1520  0.3229
  394loPI    C1 6289  14.933  12.014  10.969  0.1532 -0.4595  0.0524
  394loPI    C2 6290  15.012  12.015  10.577  0.1384  0.1063  0.0436
  394loPI    C3 6291  15.308  12.067  10.841  0.1283 -0.1371  0.1047
  394loPI   PO4 6292  14.639  11.918  10.958 -0.0589  0.0614  0.1354
  394loPI   GL1 6293  14.466  11.879  10.508  0.1025 -0.1699 -0.1489
  394loPI   GL2 6294  14.302  11.845  10.230  0.0743  0.1530 -0.1296
  394loPI   C1A 6295  14.757  11.709  10.267 -0.0927  0.1047 -0.0718
  394loPI   C2A 6296  14.741  11.770   9.728  0.1881  0.0928 -0.0944
  394loPI   C3A 6297  14.733  11.688   9.303  0.1389  0.1097 -0.1041
  394loPI   C4A 6298  14.824  11.815   8.927 -0.0816  0.1475  0.3740
  394loPI   C5A 6299  14.719  11.908   8.490  0.2841 -0.3969 -0.2129
  394loPI   C6A 6300  14.590  11.696   8.178 -0.0622 -0.1738  0.0823
  394loPI   C1B 6301  14.202  11.843   9.849  0.0297 -0.0171  0.2851
  394loPI   C2B 6302  14.241  11.772   9.438  0.0808  0.0889  0.1150
  394loPI   C3B 6303  14.246  11.834   8.996  0.0744  0.0145 -0.0854
  394loPI   C4B 6304  14.189  12.128   8.642  0.1471  0.0931  0.0407
  395loPI    C1 6305   4.381  12.976  10.895 -0.0220 -0.1268  0.0558
  395loPI    C2 6306   4.060  12.956  11.133 -0.1586  0.3452 -0.0778
  395loPI    C3 6307   4.408  13.090  11.277 -0.0864  0.0809 -0.0003
  395loPI   PO4 6308   4.297  12.763  10.706 -0.2299 -0.0913 -0.0895
  395loPI   GL1 6309   3.964  12.676  10.430 -0.0570  0.1715 -0.3714
  395loPI   GL2 6310   3.780  12.946  10.219  0.3779  0.3922  0.1659
  395loPI   C1A 6311   3.911  12.467  10.050  0.4589  0.1040 -0.2109
  395loPI   C2A 6312   3.843  12.478   9.561 -0.1397 -0.1759  0.2942
  395loPI   C3A 6313   3.701  12.449   9.138 -0.2963 -0.1349 -0.1952
  395loPI   C4A 6314   3.629  12.505   8.668 -0.1260  0.3029 -0.0086
  395loPI   C5A 6315   3.671  12.468   8.319 -0.2479  0.0110  0.1407
  395loPI   C6A 6316   3.760  12.250   7.955 -0.0066 -0.1269 -0.5858
  395loPI   C1B 6317   3.711  12.960   9.836 -0.0233  0.2131  0.2066
  395loPI   C2B 6318   3.606  12.933   9.417  0.2129 -0.0591  0.4733
  395loPI   C3B 6319   3.569  12.951   8.949 -0.2799 -0.1628  0.2269
  395loPI   C4B 6320   3.560  12.992   8.513 -0.1053  0.0968 -0.1825
  396loPI    C1 6321   4.771   5.077  10.563 -0.1217 -0.1265  0.0445
  396loPI    C2 6322   5.012   4.835  10.770  0.2794 -0.0143 -0.2790
  396loPI    C3 6323   4.932   5.201  10.908  0.0170 -0.1714 -0.0033
  396loPI   PO4 6324   4.779   5.152  10.376  0.1340 -0.2539  0.0213
  396loPI   GL1 6325   4.546   5.061  10.076 -0.2291  0.0968  0.0196
  396loPI   GL2 6326   4.538   4.749  10.125 -0.1181  0.0798  0.0728
  396loPI   C1A 6327   4.252   5.014   9.673 -0.1042 -0.0205  0.1809
  396loPI   C2A 6328   4.254   4.976   9.193  0.0836 -0.1289 -0.3620
  396loPI   C3A 6329   4.195   4.979   8.761 -0.2165  0.2804  0.0178
  396loPI   C4A 6330   3.959   4.959   8.389 -0.5000  0.0256 -0.1272
  396loPI   C5A 6331   3.888   4.730   7.985  0.0856 -0.1744 -0.1432
  396loPI   C6A 6332   4.060   4.550   7.699  0.1114 -0.0509 -0.1087
  396loPI   C1B 6333   4.501   4.536   9.784  0.1193  0.1985 -0.2016
  396loPI   C2B 6334   4.418   4.436   9.292 -0.3265 -0.2027 -0.0129
  396loPI   C3B 6335   4.392   4.405   8.938  0.0094  0.1498  0.1178
  396loPI   C4B 6336   4.261   4.554   8.514  0.2770  0.0391  0.0349
  397loPI    C1 6337   1.815   2.555  11.373  0.0311 -0.1964  0.0303
  397loPI    C2 6338   2.188   2.414  11.401  0.1206 -0.0146 -0.2184
  397loPI    C3 6339   2.098   2.773  11.551 -0.0293 -0.1876  0.1165
  397loPI   PO4 6340   1.755   2.479  11.136 -0.1447 -0.3349  0.1162
  397loPI   GL1 6341   1.796   2.443  10.660  0.0897 -0.0050 -0.1626
  397loPI   GL2 6342   1.618   2.639  10.676  0.1972  0.0772 -0.0939
  397loPI   C1A 6343   1.778   2.524  10.144 -0.2582 -0.0104 -0.0152
  397loPI   C2A 6344   1.806   2.537   9.724  0.1379  0.0330  0.2365
  397loPI   C3A 6345   1.684   2.614   9.347 -0.2277  0.4021 -0.1299
  397loPI   C4A 6346   1.668   2.523   8.963 -0.0625  0.0740  0.1045
  397loPI   C5A 6347   1.662   2.692   8.559 -0.1865  0.0019 -0.1623
  397loPI   C6A 6348   1.426   3.026   8.268 -0.1297  0.1683 -0.0439
  397loPI   C1B 6349   1.335   2.566  10.419 -0.0025  0.1173  0.0144
  397loPI   C2B 6350   1.298   2.591  10.115 -0.2819  0.0458 -0.4451
  397loPI   C3B 6351   1.235   2.633   9.655 -0.3797  0.1608 -0.1841
  397loPI   C4B 6352   1.219   2.666   9.183 -0.5064  0.0017  0.0669
  398loPI    C1 6353  13.554  13.785  11.008  0.2647 -0.0907 -0.1127
  398loPI    C2 6354  13.832  13.827  11.291  0.3578 -0.0699 -0.2065
  398loPI    C3 6355  13.662  13.470  11.229  0.0936 -0.0017  0.1011
  398loPI   PO4 6356  13.678  13.832  10.737 -0.0518 -0.1434  0.1057
  398loPI   GL1 6357  13.965  13.707  10.408  0.0087 -0.2016  0.0949
  398loPI   GL2 6358  13.706  13.613  10.280 -0.0370 -0.0566  0.1711
  398loPI   C1A 6359  13.964  13.816   9.895  0.1180  0.0098  0.1900
  398loPI   C2A 6360  14.021  13.742   9.454  0.3479 -0.0288 -0.0757
  398loPI   C3A 6361  14.028  13.923   9.016 -0.0052  0.3522 -0.0476
  398loPI   C4A 6362  14.137  13.883   8.566 -0.1090 -0.2227 -0.2502
  398loPI   C5A 6363  14.432  13.830   8.248  0.0052 -0.0999 -0.0412
  398loPI   C6A 6364  14.607  14.046   7.881 -0.1793  0.2450 -0.0112
  398loPI   C1B 6365  13.664  13.403   9.967  0.1741  0.0028  0.4706
  398loPI   C2B 6366  13.685  13.360   9.561 -0.0922  0.0245 -0.2180
  398loPI   C3B 6367  13.738  13.513   9.120 -0.1295  0.4502 -0.2740
  398loPI   C4B 6368  13.734  13.495   8.734 -0.3173 -0.2443 -0.2553
  399loPI    C1 6369   2.585   9.959  11.014  0.1453 -0.0064 -0.0080
  399loPI    C2 6370   2.266  10.031  10.784  0.0973  0.0019  0.0608
  399loPI    C3 6371   2.286  10.187  11.152  0.1213 -0.1048  0.1050
  399loPI   PO4 6372   2.628   9.747  11.020  0.0659 -0.1495  0.2232
  399loPI   GL1 6373   2.625   9.607  10.614 -0.3269  0.0745 -0.1686
  399loPI   GL2 6374   2.731   9.336  10.521 -0.0107  0.0057 -0.2027
  399loPI   C1A 6375   2.488   9.875  10.366 -0.0962  0.0718 -0.1896
  399loPI   C2A 6376   2.401   9.910   9.933  0.3032  0.0704 -0.1092
  399loPI   C3A 6377   2.264  10.099   9.462  0.0521 -0.0405  0.0249
  399loPI   C4A 6378   2.162  10.101   9.069 -0.0518  0.2413 -0.3154
  399loPI   C5A 6379   2.143  10.001   8.731  0.3632  0.0005  0.0383
  399loPI   C6A 6380   1.976   9.722   8.516 -0.0770  0.2420  0.0285
  399loPI   C1B 6381   2.544   9.385  10.146  0.0544 -0.1046  0.0768
  399loPI   C2B 6382   2.514   9.440   9.796  0.0343  0.0437 -0.0415
  399loPI   C3B 6383   2.468   9.567   9.375  0.1880  0.1944 -0.1678
  399loPI   C4B 6384   2.360   9.438   8.925  0.0822  0.2450  0.2340
  400loPI    C1 6385  17.260   5.123  11.295 -0.1198  0.1274  0.1409
  400loPI    C2 6386  17.537   4.865  11.423  0.0137  0.1784 -0.0396
  400loPI    C3 6387  17.350   5.104  11.684  0.1733  0.1764  0.0782
  400loPI   PO4 6388  17.355   5.133  10.998 -0.0641  0.0687  0.4896
  400loPI   GL1 6389  17.309   4.919  10.480 -0.1442 -0.1415 -0.0247
  400loPI   GL2 6390  17.579   5.094  10.601 -0.2700 -0.1302  0.1932
  400loPI   C1A 6391  17.477   4.862  10.169  0.1290  0.0569 -0.2172
  400loPI   C2A 6392  17.436   4.823   9.673 -0.1624 -0.1800 -0.1587
  400loPI   C3A 6393  17.457   4.851   9.240 -0.1728 -0.1494 -0.1115
  400loPI   C4A 6394  17.361   4.890   8.783 -0.1169 -0.0539  0.0828
  400loPI   C5A 6395  17.416   4.558   8.394  0.3586 -0.1816  0.0063
  400loPI   C6A 6396  17.481   4.211   8.090 -0.0329  0.0397  0.3533
  400loPI   C1B 6397  17.674   5.302  10.201  0.0889 -0.0406  0.2226
  400loPI   C2B 6398  17.735   5.248   9.736  0.1862 -0.0695 -0.2635
  400loPI   C3B 6399  17.802   5.263   9.256 -0.3809  0.0709  0.0721
  400loPI   C4B 6400  17.812   5.106   8.800  0.0606 -0.3835  0.0797
  401loPI    C1 6401  16.794  15.339  10.895 -0.3490  0.4194 -0.0351
  401loPI    C2 6402  16.940  15.215  11.247 -0.2136  0.1137 -0.1945
  401loPI    C3 6403  16.571  15.369  11.225 -0.3814 -0.2470  0.0173
  401loPI   PO4 6404  16.869  15.133  10.750 -0.1654  0.0181  0.0889
  401loPI   GL1 6405  16.862  15.211  10.272 -0.4651  0.2064 -0.2159
  401loPI   GL2 6406  17.019  15.462  10.448 -0.2341 -0.0553  0.2737
  401loPI   C1A 6407  16.794  15.218   9.882 -0.1952 -0.0737  0.0810
  401loPI   C2A 6408  16.930  15.226   9.517 -0.3540  0.0593  0.1543
  401loPI   C3A 6409  16.920  15.190   9.129 -0.1190 -0.0034 -0.1692
  401loPI   C4A 6410  16.927  15.165   8.658  0.1795 -0.2627  0.0845
  401loPI   C5A 6411  17.087  15.563   8.422  0.0100  0.2092 -0.1746
  401loPI   C6A 6412  17.186  15.784   8.105 -0.0393  0.0089  0.0488
  401loPI   C1B 6413  17.305  15.520  10.166  0.1641 -0.3288 -0.0406
  401loPI   C2B 6414  17.226  15.567   9.733  0.0982  0.0369 -0.1847
  401loPI   C3B 6415  17.303  15.503   9.379  0.0637  0.0155  0.0783
  401loPI   C4B 6416  17.273  15.443   8.898 -0.0288  0.0224  0.0302
  402loPI    C1 6417  16.679   0.860  11.262 -0.0593  0.2500 -0.0796
  402loPI    C2 6418  16.490   0.832  11.614  0.1565 -0.0047  0.0195
  402loPI    C3 6419  16.803   1.078  11.574  0.2931 -0.1659  0.0823
  402loPI   PO4 6420  16.588   0.889  11.021 -0.1346 -0.1361  0.0678
  402loPI   GL1 6421  16.477   0.595  10.734  0.1769  0.1488  0.3483
  402loPI   GL2 6422  16.508   0.289  10.581 -0.0419 -0.1083  0.1897
  402loPI   C1A 6423  16.500   0.783  10.375  0.1281 -0.2153 -0.0716
  402loPI   C2A 6424  16.476   0.723   9.999 -0.0270  0.0089 -0.4158
  402loPI   C3A 6425  16.550   0.880   9.673  0.0062 -0.2171 -0.1469
  402loPI   C4A 6426  16.537   0.943   9.268 -0.2909 -0.1243  0.2612
  402loPI   C5A 6427  16.229   1.162   9.027  0.1373 -0.0315 -0.0891
  402loPI   C6A 6428  16.005   1.360   8.595  0.0117  0.1417 -0.0036
  402loPI   C1B 6429  16.681   0.312  10.167 -0.4096 -0.0643 -0.1910
  402loPI   C2B 6430  16.586   0.374   9.695 -0.1164 -0.1111  0.0231
  402loPI   C3B 6431  16.615   0.428   9.252 -0.2407 -0.3214  0.1201
  402loPI   C4B 6432  16.511   0.402   8.877 -0.3248  0.0495  0.2487
  403loPI    C1 6433   9.380  14.323  10.158 -0.4821  0.0340 -0.4161
  403loPI    C2 6434   9.266  14.591  10.433  0.0533 -0.3107  0.1683
  403loPI    C3 6435   9.021  14.292  10.332 -0.3058  0.0442 -0.0392
  403loPI   PO4 6436   9.432  14.391   9.999 -0.4256 -0.0305  0.0878
  403loPI   GL1 6437   9.377  14.289   9.530 -0.3809  0.1591 -0.0004
  403loPI   GL2 6438   9.321  13.937   9.432 -0.0453  0.0661  0.0709
  403loPI   C1A 6439   9.514  14.287   9.212 -0.3070 -0.0424 -0.4474
  403loPI   C2A 6440   9.763  14.208   8.869 -0.0925  0.1515  0.2367
  403loPI   C3A 6441   9.901  14.161   8.492 -0.2938  0.0336  0.3075
  403loPI   C4A 6442  10.214  14.154   8.138 -0.0526  0.0487  0.1008
  403loPI   C5A 6443  10.288  13.911   7.837  0.0028 -0.0002 -0.1661
  403loPI   C6A 6444  10.599  13.610   7.737 -0.0986  0.0158  0.0885
  403loPI   C1B 6445   9.041  14.189   9.172  0.2139  0.0409  0.3371
  403loPI   C2B 6446   9.151  14.424   8.868 -0.0827  0.1131  0.3000
  403loPI   C3B 6447   9.434  14.303   8.487  0.1976  0.4020  0.0419
  403loPI   C4B 6448   9.440  13.981   8.248 -0.0588  0.1452  0.0864
  404loPI    C1 6449   9.461  12.874  10.182 -0.0148 -0.1362  0.0066
  404loPI    C2 6450   9.303  13.150  10.425 -0.0012  0.0675 -0.2122
  404loPI    C3 6451   9.683  13.033  10.474 -0.0518 -0.0224 -0.0266
  404loPI   PO4 6452   9.482  12.949   9.985 -0.2004  0.0798  0.5034
  404loPI   GL1 6453   9.161  13.044   9.783 -0.2488  0.0268  0.2349
  404loPI   GL2 6454   8.937  12.807   9.700 -0.4732  0.0680  0.0438
  404loPI   C1A 6455   9.305  12.946   9.354  0.3006 -0.1373  0.0406
  404loPI   C2A 6456   9.046  12.979   9.011 -0.1800  0.1243  0.4250
  404loPI   C3A 6457   8.929  12.781   8.722 -0.3468 -0.1171  0.0321
  404loPI   C4A 6458   8.786  13.055   8.534  0.1210  0.0768  0.2023
  404loPI   C5A 6459   8.672  13.194   8.205 -0.1787 -0.0540  0.1777
  404loPI   C6A 6460   8.398  13.172   7.869  0.1109  0.1972  0.2468
  404loPI   C1B 6461   8.661  12.911   9.293  0.0070  0.0407  0.4733
  404loPI   C2B 6462   8.364  12.910   8.829  0.0343  0.0242  0.0598
  404loPI   C3B 6463   8.313  12.740   8.383 -0.1136  0.0809  0.0404
  404loPI   C4B 6464   8.185  12.657   7.881 -0.1971  0.0250  0.2695
  405loPI    C1 6465   0.846  13.672  11.351  0.0576 -0.2093 -0.0654
  405loPI    C2 6466   1.225  13.581  11.441  0.0940  0.1472  0.1619
  405loPI    C3 6467   1.100  13.961  11.461 -0.1647  0.0974 -0.3374
  405loPI   PO4 6468   0.805  13.459  11.178 -0.1004  0.1362 -0.2730
  405loPI   GL1 6469   0.893  13.450  10.715  0.0061  0.1649  0.1104
  405loPI   GL2 6470   0.589  13.488  10.550  0.0668 -0.1805  0.1265
  405loPI   C1A 6471   0.989  13.299  10.273  0.0700  0.2733  0.0635
  405loPI   C2A 6472   0.982  13.373   9.748 -0.0794 -0.2532 -0.1211
  405loPI   C3A 6473   0.948  13.482   9.270  0.4628 -0.2100  0.1020
  405loPI   C4A 6474   0.993  13.402   8.834  0.2088  0.3128  0.1483
  405loPI   C5A 6475   0.980  13.237   8.504 -0.4441 -0.0972  0.1343
  405loPI   C6A 6476   0.901  13.483   8.005 -0.2047  0.2377 -0.1386
  405loPI   C1B 6477   0.613  13.578  10.103 -0.0149 -0.3332  0.2257
  405loPI   C2B 6478   0.520  13.408   9.693  0.1978  0.1926  0.0605
  405loPI   C3B 6479   0.341  13.462   9.283  0.1315  0.0533 -0.0921
  405loPI   C4B 6480   0.464  13.470   8.799  0.0063  0.1794 -0.2105
  406loPI    C1 6481  10.928   2.343  11.095  0.1376  0.1413 -0.1102
  406loPI    C2 6482  10.691   2.392  11.414  0.1492  0.0837 -0.0926
  406loPI    C3 6483  11.058   2.550  11.412  0.1908 -0.0117 -0.0312
  406loPI   PO4 6484  10.891   2.156  11.015 -0.2593 -0.1079  0.1979
  406loPI   GL1 6485  10.782   2.138  10.630 -0.0163  0.1893 -0.0122
  406loPI   GL2 6486  10.845   1.868  10.514  0.0446  0.0567  0.2588
  406loPI   C1A 6487  11.031   2.210  10.242 -0.0189 -0.1397  0.0097
  406loPI   C2A 6488  10.958   2.241   9.822 -0.0954  0.1580  0.2830
  406loPI   C3A 6489  11.004   2.317   9.398 -0.1590  0.1103 -0.0338
  406loPI   C4A 6490  11.215   2.358   9.084 -0.0204 -0.1428 -0.2468
  406loPI   C5A 6491  11.186   2.627   8.677  0.0816 -0.3585  0.0562
  406loPI   C6A 6492  11.418   2.761   8.300 -0.4130 -0.0757 -0.2283
  406loPI   C1B 6493  10.621   1.936  10.133 -0.0389  0.2627  0.3041
  406loPI   C2B 6494  10.614   1.852   9.694 -0.0172  0.0362  0.1239
  406loPI   C3B 6495  10.766   1.890   9.279 -0.0101  0.0213 -0.1882
  406loPI   C4B 6496  10.883   1.926   8.962 -0.0305  0.1076  0.0985
  407loPI    C1 6497  10.860   7.018  10.718  0.1087  0.0365  0.0039
  407loPI    C2 6498  11.242   7.069  10.826  0.1969 -0.2815 -0.1465
  407loPI    C3 6499  11.006   6.825  11.037  0.0319  0.0287  0.0345
  407loPI   PO4 6500  10.852   6.997  10.474 -0.1807  0.3873  0.0619
  407loPI   GL1 6501  10.775   6.588  10.227 -0.4830  0.2906 -0.1091
  407loPI   GL2 6502  10.543   6.763  10.106 -0.3632 -0.2678 -0.0041
  407loPI   C1A 6503  11.086   6.720   9.916 -0.0475  0.0816  0.1313
  407loPI   C2A 6504  11.289   6.711   9.579 -0.2514 -0.2610  0.1261
  407loPI   C3A 6505  11.280   6.754   9.120 -0.0253  0.1987 -0.0338
  407loPI   C4A 6506  11.216   6.490   8.758  0.0074  0.2518  0.0004
  407loPI   C5A 6507  11.309   6.290   8.422  0.5515 -0.0236 -0.2221
  407loPI   C6A 6508  11.614   6.015   8.315 -0.0948  0.0820  0.0289
  407loPI   C1B 6509  10.447   6.809   9.658 -0.2086  0.2878  0.0905
  407loPI   C2B 6510  10.478   7.001   9.175  0.0020 -0.1061 -0.3363
  407loPI   C3B 6511  10.352   6.882   8.757  0.1269 -0.5465 -0.3676
  407loPI   C4B 6512  10.270   6.627   8.417  0.0810  0.1686 -0.1581
  408loPI    C1 6513  17.680   8.918  10.863  0.0128  0.0337 -0.1399
  408loPI    C2 6514  17.595   9.093  11.212  0.0078  0.0917 -0.1701
  408loPI    C3 6515  17.372   8.788  11.083  0.0628  0.0132 -0.0815
  408loPI   PO4 6516  17.873   9.136  10.781 -0.1524  0.5508 -0.1996
  408loPI   GL1 6517  18.127   9.275  10.424 -0.3812 -0.0943 -0.1418
  408loPI   GL2 6518  18.054   9.459  10.243  0.1780 -0.0592  0.1157
  408loPI   C1A 6519  18.431   9.184  10.108 -0.0671  0.0109  0.0827
  408loPI   C2A 6520  18.415   9.057   9.626  0.0372 -0.0151 -0.4807
  408loPI   C3A 6521  18.356   8.965   9.161  0.0632  0.1137  0.1410
  408loPI   C4A 6522  18.319   8.839   8.684  0.0467 -0.0534  0.2329
  408loPI   C5A 6523  18.247   8.646   8.208  0.2872 -0.2370 -0.4509
  408loPI   C6A 6524  18.129   8.568   7.709  0.0926 -0.2865  0.0795
  408loPI   C1B 6525  17.931   9.457   9.814 -0.0508  0.0842  0.1243
  408loPI   C2B 6526  18.136   9.385   9.339  0.0022  0.0386  0.1130
  408loPI   C3B 6527  18.089   9.327   8.947  0.1954  0.1509  0.2157
  408loPI   C4B 6528  18.068   9.262   8.494  0.0364 -0.1085 -0.0504
  409loPI    C1 6529   7.999   3.248  10.579  0.1017  0.0459 -0.2307
  409loPI    C2 6530   8.303   3.258  10.838 -0.0201 -0.0478 -0.0818
  409loPI    C3 6531   7.980   3.485  10.900 -0.0083  0.0037 -0.2054
  409loPI   PO4 6532   8.130   3.281  10.335  0.1347 -0.2140 -0.1939
  409loPI   GL1 6533   8.153   3.304   9.855 -0.0138  0.0224  0.2436
  409loPI   GL2 6534   8.272   2.871   9.857 -0.0498  0.0203  0.2430
  409loPI   C1A 6535   8.128   3.375   9.389 -0.0625 -0.2596 -0.0229
  409loPI   C2A 6536   8.173   3.390   9.019  0.1742 -0.3113 -0.1987
  409loPI   C3A 6537   8.253   3.264   8.598  0.0613 -0.5235 -0.2928
  409loPI   C4A 6538   8.117   3.180   8.252 -0.2200  0.0514 -0.0925
  409loPI   C5A 6539   7.996   2.933   7.869 -0.1881 -0.3629  0.1294
  409loPI   C6A 6540   8.226   2.587   7.650 -0.2346 -0.0028  0.1820
  409loPI   C1B 6541   8.300   2.885   9.477  0.2479 -0.1591  0.0785
  409loPI   C2B 6542   8.366   2.855   9.082  0.1087 -0.0345  0.1773
  409loPI   C3B 6543   8.513   2.758   8.603  0.3944  0.1886  0.0864
  409loPI   C4B 6544   8.808   2.690   8.371  0.2318 -0.1332 -0.0358
  410loPI    C1 6545   7.217  13.774  10.708 -0.4067 -0.3382  0.0958
  410loPI    C2 6546   7.354  13.586  11.034  0.1992 -0.0021  0.0510
  410loPI    C3 6547   7.418  13.978  10.988 -0.1095  0.0075 -0.3547
  410loPI   PO4 6548   7.322  13.632  10.441 -0.2110 -0.0691 -0.0363
  410loPI   GL1 6549   7.236  13.678   9.979 -0.1702 -0.0164  0.0562
  410loPI   GL2 6550   7.417  13.464   9.755  0.2702  0.1233  0.0384
  410loPI   C1A 6551   7.125  13.943   9.673  0.0102  0.0131  0.0832
  410loPI   C2A 6552   7.030  14.065   9.346 -0.0720 -0.1798 -0.1459
  410loPI   C3A 6553   6.939  14.078   8.970  0.2662 -0.4826 -0.4558
  410loPI   C4A 6554   7.180  14.156   8.588  0.0479 -0.0296 -0.0186
  410loPI   C5A 6555   7.511  14.082   8.300 -0.0066 -0.1208  0.0254
  410loPI   C6A 6556   7.432  14.240   8.014  0.0272 -0.1260 -0.0968
  410loPI   C1B 6557   7.426  13.703   9.417  0.1052  0.1852  0.1346
  410loPI   C2B 6558   7.339  13.767   9.006 -0.1297  0.2850  0.2693
  410loPI   C3B 6559   7.111  13.672   8.634 -0.0155 -0.0728  0.0811
  410loPI   C4B 6560   7.187  13.714   8.241 -0.0617 -0.2647  0.0488
  411loPI    C1 6561   2.632   6.883  10.772  0.0131 -0.0020  0.0707
  411loPI    C2 6562   2.716   7.200  10.544  0.2114 -0.1236 -0.0283
  411loPI    C3 6563   2.719   7.234  10.943 -0.2088  0.1081 -0.0394
  411loPI   PO4 6564   2.659   6.685  10.644  0.1941 -0.0762 -0.1188
  411loPI   GL1 6565   2.561   6.399  10.395 -0.0527  0.0611 -0.2171
  411loPI   GL2 6566   2.260   6.330  10.453 -0.1478 -0.0906  0.2938
  411loPI   C1A 6567   2.695   6.607  10.019  0.0943  0.1246  0.1096
  411loPI   C2A 6568   2.624   6.660   9.687  0.3538 -0.0098 -0.1925
  411loPI   C3A 6569   2.565   6.710   9.260  0.0662 -0.1994  0.1152
  411loPI   C4A 6570   2.458   6.615   8.822  0.0214 -0.0400 -0.0294
  411loPI   C5A 6571   2.400   6.508   8.403  0.3843 -0.1936 -0.1663
  411loPI   C6A 6572   2.307   6.475   8.007 -0.2379 -0.0928 -0.0500
  411loPI   C1B 6573   2.284   6.265   9.967 -0.1191  0.0535  0.0716
  411loPI   C2B 6574   2.245   6.204   9.554 -0.1262  0.2221 -0.0499
  411loPI   C3B 6575   2.186   6.158   9.125  0.0767  0.1191 -0.2593
  411loPI   C4B 6576   2.183   6.177   8.682 -0.3667  0.5586 -0.0669
  412loPI    C1 6577   8.578  15.132  10.314  0.0164 -0.0774 -0.0379
  412loPI    C2 6578   8.692  15.286  10.665  0.2764  0.2194 -0.2471
  412loPI    C3 6579   8.420  14.993  10.654  0.1934  0.2733  0.1935
  412loPI   PO4 6580   8.796  15.156  10.156  0.1058  0.2752  0.2725
  412loPI   GL1 6581   8.811  15.067   9.773 -0.0249  0.0019  0.2372
  412loPI   GL2 6582   9.138  15.066   9.541  0.1070  0.1330 -0.0681
  412loPI   C1A 6583   8.657  15.312   9.370  0.4092  0.1542 -0.0062
  412loPI   C2A 6584   8.795  15.418   8.947 -0.3472 -0.2853  0.2358
  412loPI   C3A 6585   8.894  15.462   8.490  0.0663  0.1115 -0.2445
  412loPI   C4A 6586   9.197  15.387   8.153  0.0297  0.4814 -0.1360
  412loPI   C5A 6587   9.090  15.282   7.770  0.0236 -0.0196 -0.1364
  412loPI   C6A 6588   8.821  15.510   7.570 -0.1058 -0.0758 -0.3180
  412loPI   C1B 6589   9.166  15.127   9.192  0.4059  0.2107 -0.1219
  412loPI   C2B 6590   9.228  15.120   8.909 -0.2739 -0.1255 -0.3603
  412loPI   C3B 6591   9.277  14.926   8.488 -0.2051  0.2644 -0.0553
  412loPI   C4B 6592   9.472  14.880   8.111 -0.1461  0.1596 -0.2703
  413loPI    C1 6593   9.346   5.559  10.543 -0.1425 -0.0439  0.0867
  413loPI    C2 6594   9.608   5.623  10.838 -0.2201  0.0057  0.1452
  413loPI    C3 6595   9.240   5.492  10.923 -0.2519  0.0483  0.0729
  413loPI   PO4 6596   9.456   5.450  10.383  0.0144 -0.0201 -0.1180
  413loPI   GL1 6597   9.285   5.317   9.934  0.2542  0.2636  0.1123
  413loPI   GL2 6598   9.458   5.590   9.823 -0.0945 -0.1706 -0.2868
  413loPI   C1A 6599   9.221   5.149   9.517  0.1580 -0.0027 -0.1083
  413loPI   C2A 6600   9.390   4.935   9.231 -0.0241 -0.0608  0.0158
  413loPI   C3A 6601   9.296   4.920   8.712  0.1725  0.0715  0.1454
  413loPI   C4A 6602   9.562   4.859   8.351 -0.0676  0.3599  0.0130
  413loPI   C5A 6603   9.878   4.883   8.213 -0.2274 -0.0054  0.0270
  413loPI   C6A 6604  10.077   4.838   7.836 -0.0356  0.1168 -0.0529
  413loPI   C1B 6605   9.335   5.738   9.424  0.1513 -0.1143 -0.2766
  413loPI   C2B 6606   9.176   5.508   9.011 -0.0338 -0.0602 -0.0522
  413loPI   C3B 6607   9.321   5.461   8.625  0.1899 -0.0627 -0.1765
  413loPI   C4B 6608   9.433   5.597   8.149  0.1158 -0.1216  0.2783
  414loPI    C1 6609   6.790  14.449  10.576  0.0428 -0.1189 -0.1602
  414loPI    C2 6610   7.071  14.275  10.800  0.0595  0.0202 -0.0725
  414loPI    C3 6611   6.752  14.442  10.974 -0.0978 -0.1707 -0.1737
  414loPI   PO4 6612   6.867  14.626  10.429  0.1577  0.3140  0.1118
  414loPI   GL1 6613   6.976  14.495  10.053 -0.1616  0.2717 -0.1557
  414loPI   GL2 6614   7.276  14.441   9.943 -0.2876 -0.2378  0.0001
  414loPI   C1A 6615   6.910  14.590   9.612  0.0213  0.1357 -0.1222
  414loPI   C2A 6616   6.888  14.573   9.226  0.3946 -0.1376  0.2657
  414loPI   C3A 6617   6.947  14.627   8.825  0.3522 -0.0663 -0.0169
  414loPI   C4A 6618   6.867  14.913   8.557  0.0845  0.1580  0.0271
  414loPI   C5A 6619   6.902  15.283   8.241  0.1831 -0.1943  0.2533
  414loPI   C6A 6620   6.491  15.388   8.002 -0.0108 -0.1383 -0.2061
  414loPI   C1B 6621   7.383  14.384   9.510 -0.0791  0.0661  0.0381
  414loPI   C2B 6622   7.392  14.393   9.022  0.0861 -0.0993 -0.2573
  414loPI   C3B 6623   7.559  14.592   8.581  0.1580 -0.1678 -0.0087
  414loPI   C4B 6624   7.866  14.460   8.335  0.1751  0.0091  0.0605
  415loPI    C1 6625   7.672  14.009  10.506  0.0866 -0.0813 -0.1353
  415loPI    C2 6626   8.051  13.883  10.504  0.0871 -0.0807 -0.0760
  415loPI    C3 6627   7.781  13.702  10.737  0.1080  0.0867  0.0810
  415loPI   PO4 6628   7.602  14.051  10.201 -0.1242 -0.2834 -0.0806
  415loPI   GL1 6629   7.922  13.876   9.782 -0.3050 -0.0150  0.1164
  415loPI   GL2 6630   7.610  14.025   9.713  0.0385  0.2079 -0.3945
  415loPI   C1A 6631   7.879  13.545   9.496  0.0236  0.2996 -0.0652
  415loPI   C2A 6632   7.799  13.544   9.060  0.1974 -0.1159 -0.0555
  415loPI   C3A 6633   7.681  13.593   8.651 -0.3055  0.0979  0.0486
  415loPI   C4A 6634   7.674  13.601   8.153  0.0189  0.0420  0.0951
  415loPI   C5A 6635   7.860  13.405   7.810  0.0985 -0.0124 -0.1084
  415loPI   C6A 6636   7.988  13.020   7.660  0.3654 -0.1939  0.1749
  415loPI   C1B 6637   7.680  14.073   9.279 -0.2943  0.0427 -0.0888
  415loPI   C2B 6638   7.880  14.109   8.828 -0.3160  0.0329  0.2427
  415loPI   C3B 6639   8.158  14.500   8.693 -0.1049 -0.1850  0.0271
  415loPI   C4B 6640   8.323  14.726   8.302 -0.3231 -0.2428  0.1257
  416loPI    C1 6641   7.153  16.226  10.702 -0.0180 -0.2545  0.1619
  416loPI    C2 6642   7.451  16.418  10.888 -0.0581 -0.0709  0.0404
  416loPI    C3 6643   7.072  16.480  11.000 -0.0872  0.0914 -0.1438
  416loPI   PO4 6644   7.162  16.332  10.413 -0.1403  0.0641  0.4351
  416loPI   GL1 6645   7.222  16.220  10.053 -0.1615 -0.1485 -0.0576
  416loPI   GL2 6646   6.968  16.026   9.994 -0.0217 -0.0662  0.0961
  416loPI   C1A 6647   7.252  16.029   9.559  0.2240 -0.2600 -0.1315
  416loPI   C2A 6648   7.266  16.068   9.168  0.1358 -0.2690  0.1022
  416loPI   C3A 6649   7.181  16.293   8.831 -0.0762 -0.0621 -0.0239
  416loPI   C4A 6650   7.058  16.672   8.651  0.2391  0.0967 -0.0487
  416loPI   C5A 6651   6.879  16.754   8.261 -0.1226 -0.3327 -0.2194
  416loPI   C6A 6652   6.754  16.646   7.904  0.1047 -0.3453  0.1132
  416loPI   C1B 6653   6.691  15.939   9.628 -0.2600  0.1214 -0.1053
  416loPI   C2B 6654   6.747  16.014   9.229 -0.2419 -0.1756  0.1753
  416loPI   C3B 6655   6.871  15.886   8.850  0.0886  0.0029  0.0139
  416loPI   C4B 6656   6.598  15.828   8.575  0.0850 -0.2895  0.0281
  417loPI    C1 6657   9.062  11.012  10.416  0.0458  0.1244  0.0464
  417loPI    C2 6658   8.891  10.735  10.649 -0.0658  0.1813  0.0328
  417loPI    C3 6659   9.188  10.962  10.792  0.1804 -0.0986 -0.0268
  417loPI   PO4 6660   9.036  10.853  10.182 -0.3151 -0.2957  0.2465
  417loPI   GL1 6661   8.925  10.749   9.774  0.0837  0.0320 -0.0166
  417loPI   GL2 6662   8.648  10.945   9.634  0.1152  0.2567 -0.0056
  417loPI   C1A 6663   9.070  10.570   9.384  0.0901  0.3276  0.2397
  417loPI   C2A 6664   9.166  10.506   8.991 -0.1149  0.1709 -0.0986
  417loPI   C3A 6665   9.179  10.529   8.517 -0.0238  0.0267 -0.0195
  417loPI   C4A 6666   9.054  10.431   8.086 -0.0125 -0.1510  0.1582
  417loPI   C5A 6667   9.032  10.532   7.770 -0.1314  0.2020 -0.0748
  417loPI   C6A 6668   8.933  10.839   7.507  0.1082  0.1998 -0.0175
  417loPI   C1B 6669   8.617  10.696   9.335  0.0723 -0.1030 -0.1315
  417loPI   C2B 6670   8.720  10.574   8.904  0.0580  0.0462  0.0913
  417loPI   C3B 6671   8.692  10.738   8.387  0.1240 -0.2172  0.1610
  417loPI   C4B 6672   8.606  10.770   8.008 -0.1667 -0.0650 -0.0932
  418loPI    C1 6673   6.058  10.668  10.618 -0.2036  0.0474  0.0246
  418loPI    C2 6674   5.880  10.365  10.809 -0.1543 -0.0561 -0.0921
  418loPI    C3 6675   6.153  10.589  10.998 -0.2672 -0.0178  0.0270
  418loPI   PO4 6676   6.038  10.462  10.354 -0.0136 -0.2398  0.0653
  418loPI   GL1 6677   6.142  10.205  10.041 -0.1626  0.1407  0.3003
  418loPI   GL2 6678   6.468  10.099   9.903  0.4701  0.1165 -0.0679
  418loPI   C1A 6679   6.157  10.302   9.561  0.2632 -0.0329 -0.0540
  418loPI   C2A 6680   6.143  10.092   9.241 -0.3730 -0.1891 -0.1211
  418loPI   C3A 6681   6.084  10.202   8.845 -0.0102 -0.0247  0.0382
  418loPI   C4A 6682   5.993  10.285   8.366 -0.1764  0.1658  0.1346
  418loPI   C5A 6683   6.204  10.495   8.082  0.0521 -0.0819 -0.3287
  418loPI   C6A 6684   6.319  10.662   7.646  0.4262 -0.0007 -0.1053
  418loPI   C1B 6685   6.646  10.192   9.534 -0.0942  0.0092  0.0249
  418loPI   C2B 6686   6.623  10.102   9.058  0.2557  0.1269 -0.2325
  418loPI   C3B 6687   6.647  10.051   8.704  0.1130  0.1999 -0.0031
  418loPI   C4B 6688   6.899  10.167   8.377  0.4236 -0.3665  0.0154
  419loPI    C1 6689  14.048  17.521  11.164 -0.0172  0.3043  0.2378
  419loPI    C2 6690  13.708  17.484  11.371  0.0895 -0.0144  0.3621
  419loPI    C3 6691  14.051  17.341  11.521  0.1934 -0.1261  0.0279
  419loPI   PO4 6692  13.960  17.536  10.974 -0.1700  0.0990  0.2499
  419loPI   GL1 6693  13.823  17.298  10.695 -0.1202 -0.0884 -0.0863
  419loPI   GL2 6694  13.734  16.980  10.655  0.1981 -0.2750  0.1217
  419loPI   C1A 6695  13.972  17.378  10.289 -0.0704  0.0686 -0.1890
  419loPI   C2A 6696  14.154  17.469  10.012  0.3262  0.0145 -0.1284
  419loPI   C3A 6697  14.125  17.429   9.550  0.3598 -0.1674 -0.1044
  419loPI   C4A 6698  14.077  17.441   9.165  0.0884 -0.3469  0.2442
  419loPI   C5A 6699  14.096  17.544   8.725 -0.2638 -0.0577 -0.0299
  419loPI   C6A 6700  14.014  17.877   8.408  0.1996 -0.2137  0.3982
  419loPI   C1B 6701  13.687  17.023  10.235 -0.0991 -0.2069 -0.1316
  419loPI   C2B 6702  13.710  17.112   9.788 -0.2418  0.0895 -0.2004
  419loPI   C3B 6703  13.742  17.021   9.362 -0.4000 -0.0925  0.2192
  419loPI   C4B 6704  13.769  17.153   8.894 -0.0837 -0.2923 -0.0506
  420loPI    C1 6705  13.166  13.386  11.050  0.1944 -0.0410  0.2248
  420loPI    C2 6706  13.040  13.765  11.021  0.0124 -0.1008  0.2222
  420loPI    C3 6707  13.180  13.626  11.369  0.0991 -0.0257  0.2177
  420loPI   PO4 6708  13.170  13.356  10.772  0.0846  0.0944  0.1708
  420loPI   GL1 6709  13.028  13.462  10.374  0.1063  0.0289  0.1167
  420loPI   GL2 6710  13.253  13.781  10.374 -0.1361  0.1998  0.1430
  420loPI   C1A 6711  13.102  13.416  10.008 -0.1529 -0.3308 -0.0343
  420loPI   C2A 6712  13.165  13.406   9.645 -0.1049 -0.2166  0.1633
  420loPI   C3A 6713  13.202  13.416   9.207  0.2592  0.0540  0.2037
  420loPI   C4A 6714  13.202  13.599   8.820 -0.1693 -0.2148 -0.1031
  420loPI   C5A 6715  13.034  13.674   8.449 -0.4741  0.1095 -0.1525
  420loPI   C6A 6716  12.937  13.842   8.083  0.0897 -0.4325 -0.1007
  420loPI   C1B 6717  13.402  13.842   9.950  0.0212  0.0774  0.0772
  420loPI   C2B 6718  13.480  13.803   9.487  0.1794  0.3531  0.0154
  420loPI   C3B 6719  13.530  13.975   9.063 -0.3462  0.1379  0.3270
  420loPI   C4B 6720  13.578  14.012   8.598 -0.0597  0.1439 -0.5949
  421loPI    C1 6721  11.281  11.238  10.549  0.0899  0.1350  0.2787
  421loPI    C2 6722  11.228  10.900  10.342  0.2228  0.1888  0.1556
  421loPI    C3 6723  11.080  10.933  10.712 -0.3451  0.2277 -0.0651
  421loPI   PO4 6724  11.510  11.273  10.416 -0.0394 -0.2133 -0.2683
  421loPI   GL1 6725  11.743  11.245   9.960  0.3565  0.0483  0.0288
  421loPI   GL2 6726  11.936  11.092  10.117  0.1402  0.2911  0.0317
  421loPI   C1A 6727  11.824  11.152   9.590 -0.0558  0.1442  0.0098
  421loPI   C2A 6728  11.933  11.198   9.151  0.0734  0.0285 -0.2192
  421loPI   C3A 6729  11.974  11.155   8.644 -0.1698 -0.0772  0.1768
  421loPI   C4A 6730  12.087  11.384   8.265  0.1928 -0.0417  0.1095
  421loPI   C5A 6731  12.444  11.736   8.188 -0.1340  0.1734 -0.0730
  421loPI   C6A 6732  12.853  12.005   8.231  0.2315  0.1978 -0.3661
  421loPI   C1B 6733  11.998  10.792   9.818 -0.0471  0.2154  0.1235
  421loPI   C2B 6734  12.069  10.723   9.420  0.1498  0.0113  0.2231
  421loPI   C3B 6735  12.084  10.667   9.033 -0.2517  0.1153  0.2129
  421loPI   C4B 6736  12.019  10.605   8.728 -0.1925  0.0855  0.2073
  422loPI    C1 6737   2.174   3.628  11.144 -0.0094  0.3818 -0.0150
  422loPI    C2 6738   2.491   3.687  11.381  0.0389  0.5071 -0.1093
  422loPI    C3 6739   2.122   3.685  11.536  0.0988  0.1206  0.0392
  422loPI   PO4 6740   2.112   3.426  10.985 -0.1854  0.1079  0.3585
  422loPI   GL1 6741   2.344   3.128  10.627 -0.0165  0.2396  0.1006
  422loPI   GL2 6742   2.444   3.355  10.520 -0.4593  0.2803 -0.0014
  422loPI   C1A 6743   2.078   2.830  10.385 -0.3406  0.1571  0.0024
  422loPI   C2A 6744   2.106   2.954   9.979  0.3285  0.2365  0.3558
  422loPI   C3A 6745   2.038   3.001   9.512  0.1273 -0.0960  0.0020
  422loPI   C4A 6746   1.976   2.938   9.087  0.0143 -0.3316  0.0524
  422loPI   C5A 6747   1.878   3.110   8.631 -0.2152 -0.0579  0.3828
  422loPI   C6A 6748   2.199   3.396   8.424 -0.4049  0.0344 -0.0504
  422loPI   C1B 6749   2.354   3.411  10.186  0.3325 -0.1989  0.0762
  422loPI   C2B 6750   2.346   3.434   9.777  0.0458  0.0639  0.0003
  422loPI   C3B 6751   2.396   3.419   9.325 -0.1003  0.1991 -0.2364
  422loPI   C4B 6752   2.287   3.235   8.899 -0.2699  0.0724  0.0683
  423loPI    C1 6753  10.779   1.077  11.088  0.1107 -0.0647  0.0779
  423loPI    C2 6754  10.450   0.918  11.250  0.0544  0.0825  0.1093
  423loPI    C3 6755  10.471   1.312  11.186  0.3543  0.1219  0.4180
  423loPI   PO4 6756  10.872   0.978  10.945 -0.0555 -0.2830  0.0779
  423loPI   GL1 6757  11.078   0.640  10.644 -0.1332 -0.0208 -0.0446
  423loPI   GL2 6758  11.038   0.364  10.556 -0.2464  0.1828 -0.2014
  423loPI   C1A 6759  11.034   0.812  10.191  0.2188  0.0629  0.0416
  423loPI   C2A 6760  11.123   0.947   9.740  0.0090  0.0739 -0.0909
  423loPI   C3A 6761  11.166   0.971   9.315  0.1088 -0.0583  0.2317
  423loPI   C4A 6762  11.219   0.973   8.911  0.2410  0.5657  0.0854
  423loPI   C5A 6763  11.046   1.082   8.539  0.1782  0.2645  0.1996
  423loPI   C6A 6764  10.661   0.951   8.421 -0.0067 -0.1940 -0.0010
  423loPI   C1B 6765  11.165   0.313  10.146 -0.2766 -0.0233  0.0711
  423loPI   C2B 6766  11.198   0.472   9.723 -0.0928  0.1738  0.1344
  423loPI   C3B 6767  11.299   0.468   9.302 -0.0744  0.1001 -0.2809
  423loPI   C4B 6768  11.460   0.474   8.859  0.1148  0.0842 -0.0177
  424loPI    C1 6769   6.082  12.361  11.074 -0.5999 -0.0613  0.1189
  424loPI    C2 6770   6.382  12.422  11.332 -0.1544 -0.2316 -0.3414
  424loPI    C3 6771   6.006  12.505  11.439  0.0579  0.0519  0.2246
  424loPI   PO4 6772   6.132  12.436  10.802 -0.1276  0.0776 -0.3685
  424loPI   GL1 6773   6.032  12.503  10.298 -0.0695 -0.0509  0.0012
  424loPI   GL2 6774   5.866  12.284  10.143  0.0454 -0.1067 -0.2785
  424loPI   C1A 6775   6.114  12.781   9.909  0.0625  0.3172  0.0864
  424loPI   C2A 6776   6.058  12.878   9.459 -0.0802 -0.0229  0.0934
  424loPI   C3A 6777   5.995  13.006   9.072  0.0614 -0.0064 -0.0729
  424loPI   C4A 6778   5.963  13.024   8.607  0.2049 -0.0079 -0.1280
  424loPI   C5A 6779   6.005  13.004   8.095  0.1562 -0.1038  0.1715
  424loPI   C6A 6780   5.659  13.243   7.857  0.1349 -0.0755 -0.2785
  424loPI   C1B 6781   5.914  12.096   9.718  0.3423 -0.0398  0.2138
  424loPI   C2B 6782   5.765  11.994   9.379  0.0013 -0.0569 -0.0980
  424loPI   C3B 6783   5.845  12.144   8.870  0.1813  0.1796  0.1171
  424loPI   C4B 6784   5.757  12.145   8.389  0.2014  0.0135 -0.0100
  425loPI    C1 6785  11.428  15.231  10.917  0.0029  0.0958  0.2178
  425loPI    C2 6786  11.787  15.057  10.947  0.0039 -0.0041 -0.2860
  425loPI    C3 6787  11.738  15.436  11.066  0.1530 -0.1403  0.2365
  425loPI   PO4 6788  11.320  15.204  10.725  0.2358  0.3434  0.0275
  425loPI   GL1 6789  11.347  15.151  10.238  0.1486  0.1686  0.1642
  425loPI   GL2 6790  11.028  15.057  10.163 -0.4395 -0.1907  0.3947
  425loPI   C1A 6791  11.648  15.323  10.043  0.0423  0.0191 -0.1657
  425loPI   C2A 6792  11.855  15.555   9.778  0.1742  0.3141  0.1545
  425loPI   C3A 6793  11.877  15.643   9.335 -0.3359 -0.0464 -0.1303
  425loPI   C4A 6794  11.884  15.592   8.904  0.1118  0.0434  0.1201
  425loPI   C5A 6795  11.919  15.621   8.440 -0.2528  0.1878  0.1597
  425loPI   C6A 6796  11.591  15.430   8.204  0.3871 -0.3183  0.0324
  425loPI   C1B 6797  11.176  15.328   9.774 -0.0848  0.1742 -0.1031
  425loPI   C2B 6798  11.340  15.606   9.437  0.0626  0.2545 -0.0226
  425loPI   C3B 6799  11.457  15.761   9.096 -0.0113  0.2078  0.0237
  425loPI   C4B 6800  11.393  15.815   8.666  0.0138  0.1885  0.0644
  426loPI    C1 6801  10.594  12.763  10.219 -0.0321  0.1989 -0.0368
  426loPI    C2 6802  10.254  12.600  10.087  0.1451 -0.0427 -0.2040
  426loPI    C3 6803  10.284  12.717  10.468 -0.0348 -0.2692 -0.1172
  426loPI   PO4 6804  10.674  12.842   9.915  0.0018 -0.0756  0.0354
  426loPI   GL1 6805  10.600  13.211   9.733  0.0395 -0.3933  0.1901
  426loPI   GL2 6806  10.598  13.603   9.805 -0.0482  0.0132  0.1333
  426loPI   C1A 6807  10.627  13.106   9.270 -0.0118  0.2069 -0.2770
  426loPI   C2A 6808  10.570  12.993   8.897  0.0908 -0.0879 -0.3360
  426loPI   C3A 6809  10.487  12.899   8.527  0.0815  0.2971 -0.0031
  426loPI   C4A 6810  10.817  12.744   8.249 -0.0823 -0.0183 -0.0258
  426loPI   C5A 6811  10.818  12.685   7.770  0.1387  0.0624  0.0116
  426loPI   C6A 6812  10.690  12.880   7.307  0.1678  0.0835  0.1293
  426loPI   C1B 6813  10.832  13.550   9.438 -0.1741  0.1196  0.0048
  426loPI   C2B 6814  11.078  13.728   9.131 -0.3415 -0.2240  0.1332
  426loPI   C3B 6815  11.131  13.702   8.702 -0.2390 -0.0629  0.2112
  426loPI   C4B 6816  11.141  13.983   8.367  0.0888  0.1067 -0.1104
  427loPI    C1 6817   1.170   9.455  10.935  0.0138 -0.1416  0.0297
  427loPI    C2 6818   0.844   9.228  10.890 -0.0893 -0.0047  0.0798
  427loPI    C3 6819   0.883   9.461  11.213  0.0670 -0.0344  0.0831
  427loPI   PO4 6820   1.153   9.540  10.655  0.2490  0.0464  0.0623
  427loPI   GL1 6821   1.059   9.199  10.458  0.0052  0.1303  0.0868
  427loPI   GL2 6822   1.300   9.093  10.443 -0.0982 -0.0602  0.0438
  427loPI   C1A 6823   0.914   9.345  10.082 -0.3403  0.0294  0.2799
  427loPI   C2A 6824   0.814   9.257   9.694  0.1159  0.1003  0.1920
  427loPI   C3A 6825   0.621   9.304   9.332 -0.1743 -0.0327  0.0173
  427loPI   C4A 6826   0.605   9.263   8.918  0.0401 -0.1242  0.0039
  427loPI   C5A 6827   0.392   9.638   8.644  0.1664 -0.0102 -0.1149
  427loPI   C6A 6828   0.452   9.861   8.300  0.0233  0.0628  0.2798
  427loPI   C1B 6829   1.331   9.024  10.109 -0.1184  0.1050 -0.0097
  427loPI   C2B 6830   1.246   9.032   9.618 -0.3302  0.0422  0.0854
  427loPI   C3B 6831   1.100   9.241   9.198 -0.2008 -0.2610 -0.2259
  427loPI   C4B 6832   1.056   9.252   8.719  0.0180 -0.1471 -0.0547
  428loPI    C1 6833   7.657  10.479  10.477 -0.1496 -0.0114 -0.0477
  428loPI    C2 6834   7.847  10.806  10.610 -0.1082 -0.0515 -0.0081
  428loPI    C3 6835   7.698  10.541  10.870 -0.0273 -0.1298 -0.0410
  428loPI   PO4 6836   7.587  10.545  10.260  0.1143 -0.3503 -0.3668
  428loPI   GL1 6837   7.424  10.330   9.942 -0.2299  0.1534  0.0410
  428loPI   GL2 6838   7.151  10.266   9.738 -0.2069 -0.1046 -0.1300
  428loPI   C1A 6839   7.646  10.232   9.538  0.4411  0.0929  0.2154
  428loPI   C2A 6840   7.649  10.185   9.191  0.2047  0.2083 -0.0789
  428loPI   C3A 6841   7.698  10.032   8.781 -0.0641  0.1285 -0.2262
  428loPI   C4A 6842   7.834  10.340   8.494 -0.1250 -0.1294 -0.1602
  428loPI   C5A 6843   7.961  10.558   8.094 -0.3197  0.0160 -0.0362
  428loPI   C6A 6844   8.171  11.038   8.027  0.3851  0.1485 -0.1834
  428loPI   C1B 6845   7.094  10.166   9.320 -0.2431  0.0050  0.2157
  428loPI   C2B 6846   7.187  10.104   8.944  0.2543 -0.0123  0.1109
  428loPI   C3B 6847   7.294   9.891   8.567  0.3748  0.3082 -0.1654
  428loPI   C4B 6848   7.213   9.547   8.351  0.1088 -0.1084 -0.0198
  429loPI    C1 6849  15.368  13.334  11.185  0.0881  0.1037  0.0419
  429loPI    C2 6850  15.477  13.636  11.423  0.1855  0.0266  0.0958
  429loPI    C3 6851  15.367  13.286  11.582  0.2031 -0.0093  0.0293
  429loPI   PO4 6852  15.168  13.418  11.014  0.1049 -0.1769 -0.2308
  429loPI   GL1 6853  14.812  13.529  10.723 -0.0161  0.1025 -0.0965
  429loPI   GL2 6854  14.572  13.356  10.800  0.0005 -0.0061 -0.2206
  429loPI   C1A 6855  14.945  13.661  10.348 -0.1192 -0.1917  0.0085
  429loPI   C2A 6856  14.908  13.677   9.955 -0.0236  0.2198  0.3562
  429loPI   C3A 6857  14.958  13.497   9.568 -0.1118  0.0676  0.0287
  429loPI   C4A 6858  15.009  13.648   9.169  0.1353 -0.2560 -0.1026
  429loPI   C5A 6859  15.074  13.540   8.778 -0.0045 -0.4721 -0.2257
  429loPI   C6A 6860  14.745  13.395   8.471  0.1552  0.0039  0.0525
  429loPI   C1B 6861  14.661  13.259  10.373  0.0856  0.2155  0.1224
  429loPI   C2B 6862  14.623  13.225   9.936 -0.0786 -0.0118 -0.2414
  429loPI   C3B 6863  14.627  13.076   9.540  0.4214  0.1217 -0.1463
  429loPI   C4B 6864  14.711  13.161   9.059  0.0349 -0.1338  0.0124
  430loPI    C1 6865  13.261   7.717  11.177 -0.1481  0.1794  0.2214
  430loPI    C2 6866  13.541   7.432  11.195 -0.0133  0.2712 -0.2809
  430loPI    C3 6867  13.454   7.647  11.520  0.0916 -0.1411  0.0275
  430loPI   PO4 6868  13.079   7.614  10.915 -0.0791 -0.1542 -0.1104
  430loPI   GL1 6869  13.200   7.473  10.606 -0.1019  0.0262  0.3489
  430loPI   GL2 6870  13.134   7.192  10.511 -0.2835  0.2930 -0.0683
  430loPI   C1A 6871  13.545   7.421  10.240 -0.1554 -0.1772 -0.4873
  430loPI   C2A 6872  13.645   7.341   9.831  0.1097  0.2704  0.1189
  430loPI   C3A 6873  13.555   7.435   9.440  0.0096  0.1812 -0.2220
  430loPI   C4A 6874  13.685   7.346   9.054  0.3369  0.2330  0.3016
  430loPI   C5A 6875  13.627   7.454   8.614 -0.2214 -0.0262 -0.0735
  430loPI   C6A 6876  13.366   7.814   8.511  0.1566  0.2340  0.0195
  430loPI   C1B 6877  13.180   7.125  10.097  0.2161 -0.2637  0.3450
  430loPI   C2B 6878  13.138   7.001   9.646 -0.0008  0.1505 -0.1494
  430loPI   C3B 6879  13.277   6.956   9.269  0.0426 -0.1341 -0.0170
  430loPI   C4B 6880  13.261   6.908   8.833  0.0539 -0.2425  0.1877
  431loPI    C1 6881   4.555   2.334  10.728 -0.2324 -0.0332  0.1191
  431loPI    C2 6882   4.548   2.478  10.355  0.2449  0.0365  0.1301
  431loPI    C3 6883   4.581   2.729  10.665  0.4011 -0.0532  0.1872
  431loPI   PO4 6884   4.684   2.175  10.724  0.3837 -0.0048  0.1585
  431loPI   GL1 6885   5.021   1.988  10.378 -0.0900  0.3196  0.0465
  431loPI   GL2 6886   4.940   2.151  10.193  0.1727 -0.1204 -0.1064
  431loPI   C1A 6887   5.017   1.640  10.051 -0.0158 -0.2213 -0.3219
  431loPI   C2A 6888   5.041   1.549   9.639  0.1221 -0.2716  0.4465
  431loPI   C3A 6889   5.077   1.556   9.111  0.1639 -0.1074  0.0549
  431loPI   C4A 6890   5.259   1.438   8.766 -0.5168 -0.1293 -0.2467
  431loPI   C5A 6891   5.382   1.510   8.378 -0.0031 -0.0612  0.0229
  431loPI   C6A 6892   5.481   1.237   8.114 -0.0789 -0.1442  0.3641
  431loPI   C1B 6893   4.909   2.085   9.724  0.0433  0.0383 -0.2625
  431loPI   C2B 6894   4.850   1.937   9.386  0.2956 -0.0715  0.0764
  431loPI   C3B 6895   4.925   1.969   8.916  0.2000 -0.0052  0.0007
  431loPI   C4B 6896   5.075   1.884   8.539 -0.0784  0.0955  0.3810
  432loPI    C1 6897   0.159   7.040  11.018  0.1018 -0.3481 -0.0337
  432loPI    C2 6898  -0.104   6.767  11.144  0.2712 -0.3790  0.2626
  432loPI    C3 6899  -0.025   7.087  11.371  0.1364 -0.1230 -0.0439
  432loPI   PO4 6900   0.348   6.934  10.925 -0.0727 -0.1127  0.3185
  432loPI   GL1 6901   0.702   6.935  10.623  0.1687  0.2440  0.2857
  432loPI   GL2 6902   0.972   6.942  10.520  0.1004 -0.0498 -0.0361
  432loPI   C1A 6903   0.559   6.908  10.246 -0.0764 -0.0474  0.2391
  432loPI   C2A 6904   0.549   6.834   9.791 -0.1601  0.0627 -0.2007
  432loPI   C3A 6905   0.482   6.956   9.390 -0.3374 -0.1944  0.2952
  432loPI   C4A 6906   0.547   7.009   8.970 -0.0233  0.3027 -0.1897
  432loPI   C5A 6907   0.463   6.930   8.585  0.0572 -0.0127 -0.1193
  432loPI   C6A 6908   0.401   6.682   8.278 -0.1891  0.0248 -0.0901
  432loPI   C1B 6909   1.023   6.827  10.054 -0.0697  0.1907 -0.1102
  432loPI   C2B 6910   1.024   6.828   9.606  0.3956  0.0594  0.3119
  432loPI   C3B 6911   1.071   6.881   9.168  0.0514 -0.1107  0.1135
  432loPI   C4B 6912   1.065   6.830   8.794 -0.3069  0.2241 -0.0423
  433loPI    C1 6913  14.896   7.825  11.061 -0.1404 -0.0211  0.0173
  433loPI    C2 6914  15.084   7.969  11.384  0.1847 -0.1752 -0.0992
  433loPI    C3 6915  15.086   7.576  11.310 -0.0838 -0.1652 -0.1684
  433loPI   PO4 6916  14.942   7.924  10.901  0.2845  0.3898 -0.1699
  433loPI   GL1 6917  14.683   8.013  10.553  0.0740  0.1238  0.1445
  433loPI   GL2 6918  14.668   7.644  10.605 -0.2129 -0.2865  0.0004
  433loPI   C1A 6919  14.590   8.074  10.036 -0.1869  0.1748 -0.0377
  433loPI   C2A 6920  14.737   8.067   9.575 -0.1457  0.2121  0.0528
  433loPI   C3A 6921  14.642   8.084   9.141 -0.3224  0.2225 -0.0463
  433loPI   C4A 6922  14.747   8.059   8.785  0.1836  0.2364  0.1180
  433loPI   C5A 6923  14.795   7.809   8.506 -0.1525  0.1572 -0.7063
  433loPI   C6A 6924  14.673   7.288   8.521  0.0677 -0.0459  0.0277
  433loPI   C1B 6925  14.875   7.637  10.178  0.2803  0.1166 -0.1491
  433loPI   C2B 6926  14.922   7.527   9.876  0.1243 -0.0287  0.2509
  433loPI   C3B 6927  14.914   7.608   9.428 -0.0633  0.1785 -0.2950
  433loPI   C4B 6928  15.029   7.617   9.036  0.1667  0.0613 -0.0015
  434loPI    C1 6929  11.996  12.142  10.624 -0.0517 -0.0280  0.0751
  434loPI    C2 6930  11.703  12.111  10.895 -0.0507  0.1496  0.0978
  434loPI    C3 6931  12.035  12.315  10.983  0.0240  0.0602  0.0245
  434loPI   PO4 6932  11.911  12.084  10.372 -0.0377 -0.0454 -0.1107
  434loPI   GL1 6933  12.175  11.998  10.152 -0.2948 -0.0161  0.0463
  434loPI   GL2 6934  12.483  11.874  10.129 -0.0567  0.3951  0.1554
  434loPI   C1A 6935  12.176  12.174   9.744 -0.0645  0.2338  0.0579
  434loPI   C2A 6936  12.160  12.161   9.410 -0.0994 -0.0793 -0.1833
  434loPI   C3A 6937  12.145  12.232   9.042  0.2616 -0.0913 -0.0919
  434loPI   C4A 6938  11.985  12.085   8.714  0.1098  0.2503  0.1521
  434loPI   C5A 6939  12.035  11.906   8.361  0.0663  0.2321  0.3734
  434loPI   C6A 6940  12.000  12.205   7.984  0.1566  0.0395  0.1652
  434loPI   C1B 6941  12.664  12.099   9.825 -0.2591 -0.0149  0.0097
  434loPI   C2B 6942  12.691  12.206   9.371 -0.0498  0.3639  0.3643
  434loPI   C3B 6943  12.689  12.147   9.020 -0.0664 -0.0220  0.1123
  434loPI   C4B 6944  12.462  12.105   8.603 -0.0872 -0.3809 -0.2710
  435loPI    C1 6945   5.609   6.486  10.498  0.3340  0.1576 -0.1537
  435loPI    C2 6946   5.956   6.667  10.582  0.2537  0.2682 -0.0582
  435loPI    C3 6947   5.651   6.689  10.840  0.1636  0.2018 -0.1582
  435loPI   PO4 6948   5.538   6.577  10.304 -0.4078 -0.0405 -0.0168
  435loPI   GL1 6949   5.543   6.472   9.995  0.0703 -0.0485  0.3130
  435loPI   GL2 6950   5.334   6.171  10.097  0.4842 -0.0112 -0.2759
  435loPI   C1A 6951   5.637   6.324   9.500  0.0422 -0.2666 -0.0184
  435loPI   C2A 6952   5.489   6.233   9.107 -0.0281 -0.0116 -0.0000
  435loPI   C3A 6953   5.562   6.510   8.834  0.0249  0.2879  0.0311
  435loPI   C4A 6954   5.633   6.493   8.359  0.0278  0.1935  0.2130
  435loPI   C5A 6955   5.692   6.267   8.083 -0.2826  0.5812 -0.0758
  435loPI   C6A 6956   5.725   6.565   7.861  0.2271 -0.2151  0.1948
  435loPI   C1B 6957   5.164   6.178   9.611  0.2694  0.0566  0.2376
  435loPI   C2B 6958   5.051   6.090   9.284  0.3357  0.0168 -0.0503
  435loPI   C3B 6959   5.005   6.183   8.864 -0.1694 -0.2795 -0.4207
  435loPI   C4B 6960   5.266   6.149   8.439  0.0874 -0.0257  0.0292
  436loPI    C1 6961   8.142   2.439  10.747 -0.1063 -0.1253  0.1174
  436loPI    C2 6962   8.375   2.460  11.072  0.0665 -0.0689 -0.0087
  436loPI    C3 6963   8.353   2.771  10.820 -0.0255 -0.1319 -0.0793
  436loPI   PO4 6964   8.158   2.157  10.608  0.0858 -0.1176  0.2969
  436loPI   GL1 6965   7.998   2.146  10.126  0.1898  0.2838  0.0549
  436loPI   GL2 6966   8.124   1.853  10.121  0.2362 -0.0990 -0.2168
  436loPI   C1A 6967   7.941   2.019   9.615  0.1301 -0.1415 -0.0280
  436loPI   C2A 6968   8.076   1.946   9.208 -0.2406  0.1348  0.1818
  436loPI   C3A 6969   8.039   1.875   8.802 -0.2640 -0.1340 -0.2684
  436loPI   C4A 6970   8.114   1.970   8.326 -0.0734 -0.1384 -0.0107
  436loPI   C5A 6971   8.183   1.664   8.034 -0.2175 -0.0891  0.1185
  436loPI   C6A 6972   8.102   1.266   8.127  0.2821  0.0028  0.0209
  436loPI   C1B 6973   8.470   1.904   9.703  0.1879 -0.0839 -0.1957
  436loPI   C2B 6974   8.531   1.778   9.318 -0.2284  0.2349 -0.3753
  436loPI   C3B 6975   8.542   1.871   8.866 -0.0509 -0.1494 -0.1536
  436loPI   C4B 6976   8.587   1.685   8.386  0.0861 -0.0538 -0.1637
  437loPI    C1 6977  13.353   4.863  11.168  0.0041  0.0310  0.1824
  437loPI    C2 6978  13.376   4.906  11.564  0.2643  0.1181  0.1599
  437loPI    C3 6979  13.691   4.771  11.360  0.0932 -0.0381 -0.0051
  437loPI   PO4 6980  13.222   5.097  11.109 -0.1308  0.2811  0.1409
  437loPI   GL1 6981  13.122   5.115  10.787  0.1323 -0.0312 -0.0232
  437loPI   GL2 6982  13.507   5.101  10.659 -0.2139 -0.0245  0.3424
  437loPI   C1A 6983  12.994   5.056  10.472  0.2830 -0.2477 -0.2013
  437loPI   C2A 6984  13.036   5.047  10.057  0.0334  0.1868 -0.3308
  437loPI   C3A 6985  12.989   5.084   9.698 -0.2034 -0.0622  0.0147
  437loPI   C4A 6986  13.040   5.198   9.265 -0.0026 -0.1792 -0.0880
  437loPI   C5A 6987  12.942   5.226   8.891 -0.0898 -0.2446 -0.0546
  437loPI   C6A 6988  12.971   5.184   8.399 -0.0352 -0.2869 -0.0712
  437loPI   C1B 6989  13.476   5.077  10.262  0.3225 -0.3328 -0.1113
  437loPI   C2B 6990  13.495   5.050   9.789 -0.3032 -0.1782 -0.2716
  437loPI   C3B 6991  13.523   5.092   9.334  0.1030 -0.1833  0.1217
  437loPI   C4B 6992  13.599   5.122   8.881 -0.3273  0.1377  0.0461
  438loPI    C1 6993   8.141  10.437  10.431  0.2268  0.1887 -0.0811
  438loPI    C2 6994   8.398  10.687  10.609 -0.1511  0.1690  0.5234
  438loPI    C3 6995   8.488  10.299  10.575  0.1885  0.2766  0.0999
  438loPI   PO4 6996   8.113  10.596  10.212 -0.0758 -0.0292  0.0257
  438loPI   GL1 6997   8.076  10.715   9.826  0.1652 -0.1731 -0.1762
  438loPI   GL2 6998   7.765  10.631   9.760  0.0486 -0.1989 -0.1324
  438loPI   C1A 6999   8.201  10.925   9.325  0.1199 -0.2045  0.1578
  438loPI   C2A 7000   8.301  10.987   9.000  0.3369 -0.0945  0.0575
  438loPI   C3A 7001   8.615  11.092   8.788 -0.0070  0.1198 -0.1165
  438loPI   C4A 7002   8.677  11.256   8.436 -0.0487 -0.2571 -0.0289
  438loPI   C5A 7003   8.968  11.462   8.109 -0.0073  0.0555 -0.0882
  438loPI   C6A 7004   9.034  11.386   7.742  0.3437 -0.2411 -0.0674
  438loPI   C1B 7005   7.765  10.659   9.325  0.0121  0.0095  0.0192
  438loPI   C2B 7006   7.721  10.641   8.899  0.0247 -0.2315 -0.3538
  438loPI   C3B 7007   7.650  10.859   8.577 -0.1278  0.1352  0.1464
  438loPI   C4B 7008   7.469  10.796   8.207  0.1035  0.0571  0.0895
  439loPI    C1 7009   6.227   6.272  10.981 -0.0400  0.2291  0.0851
  439loPI    C2 7010   5.921   6.199  10.734 -0.0475  0.3350  0.0630
  439loPI    C3 7011   5.853   6.270  11.122 -0.0467  0.3046  0.0688
  439loPI   PO4 7012   6.401   6.396  10.679  0.1141  0.0071  0.0191
  439loPI   GL1 7013   6.240   6.334  10.309 -0.1932  0.3906  0.1836
  439loPI   GL2 7014   6.044   6.550  10.070 -0.2143 -0.0893  0.0711
  439loPI   C1A 7015   6.268   6.095   9.890 -0.1549  0.2607 -0.1296
  439loPI   C2A 7016   6.125   6.046   9.489  0.1946 -0.0678 -0.1140
  439loPI   C3A 7017   5.968   6.022   8.994  0.1314  0.0301  0.1185
  439loPI   C4A 7018   5.710   5.967   8.716  0.0682 -0.0181 -0.3218
  439loPI   C5A 7019   5.659   5.845   8.298 -0.0544 -0.2266 -0.0963
  439loPI   C6A 7020   5.258   5.605   8.268 -0.1105 -0.2259  0.2683
  439loPI   C1B 7021   6.048   6.566   9.639 -0.4435 -0.3142 -0.0396
  439loPI   C2B 7022   6.019   6.439   9.202  0.1550  0.1964 -0.0901
  439loPI   C3B 7023   6.095   6.417   8.779  0.3617 -0.3465  0.1858
  439loPI   C4B 7024   6.112   6.060   8.398 -0.3223  0.1484 -0.0724
  440loPI    C1 7025   3.516  11.706  10.829  0.1346 -0.0226 -0.0658
  440loPI    C2 7026   3.781  11.497  11.044  0.1701 -0.1629 -0.2428
  440loPI    C3 7027   3.681  11.869  11.155  0.0974 -0.2757  0.0815
  440loPI   PO4 7028   3.669  11.691  10.582 -0.3460  0.2956  0.1258
  440loPI   GL1 7029   3.662  11.538  10.225  0.1577 -0.1231  0.0872
  440loPI   GL2 7030   4.006  11.369  10.106 -0.0977  0.0391 -0.1183
  440loPI   C1A 7031   3.599  11.631   9.811 -0.1174 -0.2956 -0.2670
  440loPI   C2A 7032   3.525  11.697   9.305  0.1380 -0.4387 -0.1946
  440loPI   C3A 7033   3.606  11.604   8.891  0.2190  0.0761 -0.1247
  440loPI   C4A 7034   3.570  11.529   8.459  0.0731 -0.2643  0.2777
  440loPI   C5A 7035   3.351  11.213   8.218 -0.4099 -0.2417  0.0520
  440loPI   C6A 7036   3.233  10.756   8.396 -0.1992  0.2815  0.1601
  440loPI   C1B 7037   4.106  11.524   9.637 -0.0484 -0.1055  0.2267
  440loPI   C2B 7038   4.091  11.471   9.083 -0.0479 -0.3216 -0.3837
  440loPI   C3B 7039   4.031  11.439   8.652  0.0136 -0.1681  0.2978
  440loPI   C4B 7040   4.139  11.208   8.468  0.1414  0.1017  0.2502
  441loPI    C1 7041   5.633  13.845  10.675  0.0297 -0.0736 -0.1018
  441loPI    C2 7042   5.396  13.920  10.988  0.2173 -0.0340  0.0329
  441loPI    C3 7043   5.597  13.575  10.967  0.2809  0.0045  0.0044
  441loPI   PO4 7044   5.518  13.916  10.486  0.3779  0.1829 -0.1750
  441loPI   GL1 7045   5.247  14.106  10.178  0.0497  0.0562 -0.0273
  441loPI   GL2 7046   5.465  14.447  10.308  0.0638 -0.2946 -0.2122
  441loPI   C1A 7047   5.124  14.010   9.816 -0.2025 -0.4024 -0.1188
  441loPI   C2A 7048   5.034  14.006   9.376  0.1242 -0.1943  0.0967
  441loPI   C3A 7049   5.061  13.997   8.910  0.0736  0.1452 -0.3428
  441loPI   C4A 7050   5.107  14.003   8.498  0.0645 -0.2961 -0.0881
  441loPI   C5A 7051   4.989  13.990   8.134 -0.2448 -0.1179  0.3237
  441loPI   C6A 7052   4.632  13.984   7.855  0.1213  0.0433 -0.0079
  441loPI   C1B 7053   5.453  14.379   9.825 -0.3595 -0.0926 -0.4423
  441loPI   C2B 7054   5.445  14.348   9.425  0.0542  0.1065 -0.2040
  441loPI   C3B 7055   5.520  14.369   9.047  0.1905 -0.1494  0.2130
  441loPI   C4B 7056   5.360  14.426   8.590 -0.2151  0.1203 -0.0878
  442loPI    C1 7057   3.540  13.283  11.160 -0.0204  0.1931  0.0977
  442loPI    C2 7058   3.502  13.501  11.494 -0.1073 -0.1075  0.2876
  442loPI    C3 7059   3.852  13.328  11.407  0.0129  0.2454  0.0466
  442loPI   PO4 7060   3.454  13.399  10.904 -0.0315  0.0075 -0.1281
  442loPI   GL1 7061   3.196  13.275  10.618  0.2672 -0.0995  0.2032
  442loPI   GL2 7062   3.260  13.005  10.360 -0.0888  0.0003  0.0801
  442loPI   C1A 7063   3.058  13.518  10.342  0.1451  0.1741 -0.1817
  442loPI   C2A 7064   2.832  13.615   9.954 -0.2317 -0.1081 -0.0704
  442loPI   C3A 7065   2.824  13.621   9.466  0.0206 -0.0037  0.2462
  442loPI   C4A 7066   2.835  13.486   8.946  0.0843 -0.1377  0.0589
  442loPI   C5A 7067   2.833  13.330   8.501 -0.0097 -0.0511  0.0512
  442loPI   C6A 7068   3.047  13.012   8.225 -0.1063 -0.1152 -0.0902
  442loPI   C1B 7069   3.044  13.131   9.956 -0.3145 -0.0033  0.0594
  442loPI   C2B 7070   2.997  13.087   9.524  0.0263 -0.1668  0.0085
  442loPI   C3B 7071   2.927  13.073   9.147 -0.1121  0.1583 -0.0731
  442loPI   C4B 7072   3.068  13.000   8.791 -0.4899 -0.2388 -0.0656
  443loPI    C1 7073  10.405   5.372  10.728  0.0543  0.3448  0.0009
  443loPI    C2 7074  10.091   5.174  10.875  0.1772  0.0099 -0.1776
  443loPI    C3 7075  10.144   5.559  10.967 -0.1587  0.0098  0.0373
  443loPI   PO4 7076  10.407   5.251  10.441 -0.2918 -0.2045  0.5589
  443loPI   GL1 7077  10.250   5.213  10.063  0.1504 -0.3304  0.2763
  443loPI   GL2 7078   9.921   4.989  10.076 -0.2847  0.3004  0.0467
  443loPI   C1A 7079  10.519   5.231   9.749  0.1701  0.0934  0.2116
  443loPI   C2A 7080  10.915   5.385   9.539 -0.0034  0.0325  0.0816
  443loPI   C3A 7081  11.077   5.076   9.235  0.3803 -0.1298  0.1275
  443loPI   C4A 7082  10.908   4.757   8.948  0.2788 -0.1618 -0.0965
  443loPI   C5A 7083  10.672   4.658   8.551 -0.1722 -0.1452  0.0226
  443loPI   C6A 7084  10.382   4.982   8.327  0.0304  0.0521  0.1897
  443loPI   C1B 7085   9.690   5.096   9.712  0.1747  0.2591  0.2003
  443loPI   C2B 7086   9.654   5.328   9.351 -0.2471  0.0447  0.2066
  443loPI   C3B 7087   9.729   5.250   8.884  0.0006 -0.1079 -0.1074
  443loPI   C4B 7088   9.880   5.315   8.448 -0.2215 -0.0661  0.0684
  444loPI    C1 7089   8.268  13.449  10.189  0.1031  0.0234 -0.1630
  444loPI    C2 7090   8.444  13.544  10.536  0.1822 -0.1431 -0.1568
  444loPI    C3 7091   8.085  13.366  10.535  0.1031  0.0148 -0.1651
  444loPI   PO4 7092   8.259  13.725  10.058  0.0472  0.2971 -0.4569
  444loPI   GL1 7093   8.403  13.921   9.714  0.0049 -0.1792  0.2250
  444loPI   GL2 7094   8.680  13.919   9.545 -0.3155  0.0446  0.1464
  444loPI   C1A 7095   8.159  13.892   9.293  0.0886 -0.3107  0.0424
  444loPI   C2A 7096   8.220  13.771   8.773 -0.3296  0.0715  0.0145
  444loPI   C3A 7097   8.574  13.635   8.512  0.2968 -0.0303  0.1240
  444loPI   C4A 7098   8.604  13.683   8.074 -0.0101 -0.0971 -0.0144
  444loPI   C5A 7099   8.286  13.719   7.778 -0.0881 -0.0618 -0.1889
  444loPI   C6A 7100   8.216  13.429   7.426  0.0946  0.1296  0.4849
  444loPI   C1B 7101   8.817  13.722   9.047  0.2399  0.0985 -0.4793
  444loPI   C2B 7102   8.993  13.501   8.782  0.1984 -0.0494  0.4949
  444loPI   C3B 7103   9.087  13.480   8.414 -0.2428  0.3144  0.1390
  444loPI   C4B 7104   9.293  13.087   8.517  0.0503  0.2313 -0.3271
  445loPI    C1 7105  11.288   4.891  11.196  0.0308  0.1189 -0.0683
  445loPI    C2 7106  11.421   4.922  11.572 -0.3222 -0.2222  0.0916
  445loPI    C3 7107  11.074   5.092  11.469 -0.1037  0.0882 -0.1503
  445loPI   PO4 7108  11.555   4.959  11.128  0.2521 -0.0061  0.1333
  445loPI   GL1 7109  11.807   4.824  10.726 -0.1029  0.0158 -0.4057
  445loPI   GL2 7110  11.608   4.932  10.577  0.0883  0.2132 -0.0418
  445loPI   C1A 7111  12.190   4.825  10.456 -0.0570  0.0377 -0.1934
  445loPI   C2A 7112  12.542   4.755  10.184  0.4243 -0.1029 -0.1474
  445loPI   C3A 7113  12.668   4.660   9.763  0.0630 -0.2627  0.1713
  445loPI   C4A 7114  12.665   4.737   9.339 -0.0981  0.1718 -0.1944
  445loPI   C5A 7115  12.689   4.634   8.905  0.2569 -0.3019 -0.1039
  445loPI   C6A 7116  12.812   4.344   8.508  0.0354 -0.0455 -0.1979
  445loPI   C1B 7117  11.330   4.742  10.114  0.2401 -0.0654 -0.2787
  445loPI   C2B 7118  11.199   4.634   9.706 -0.0353 -0.0009  0.1117
  445loPI   C3B 7119  11.164   4.570   9.310 -0.1293 -0.1213 -0.0938
  445loPI   C4B 7120  11.283   4.511   8.879  0.2631 -0.3610 -0.0019
  446loPI    C1 7121   7.216   5.292  10.808  0.0844 -0.2377 -0.1146
  446loPI    C2 7122   7.199   5.016  11.097  0.1930  0.0719  0.1955
  446loPI    C3 7123   6.944   5.324  11.099  0.0952 -0.0029 -0.1281
  446loPI   PO4 7124   7.153   5.163  10.600 -0.1026  0.1130 -0.1993
  446loPI   GL1 7125   7.145   5.076  10.227 -0.2765 -0.2851 -0.0844
  446loPI   GL2 7126   6.852   4.875  10.261 -0.0836 -0.0023 -0.2649
  446loPI   C1A 7127   6.967   5.339   9.952  0.2054  0.0500  0.1913
  446loPI   C2A 7128   6.905   5.309   9.505  0.1158  0.3179  0.2011
  446loPI   C3A 7129   6.857   5.468   9.107  0.1335  0.1465  0.0781
  446loPI   C4A 7130   6.999   5.486   8.683 -0.0894  0.1414  0.0319
  446loPI   C5A 7131   6.988   5.355   8.343 -0.1814  0.2100 -0.1433
  446loPI   C6A 7132   7.019   5.544   8.017  0.2446 -0.2311  0.2347
  446loPI   C1B 7133   6.867   4.863   9.765 -0.1788 -0.3487  0.1579
  446loPI   C2B 7134   6.925   4.802   9.465 -0.2169  0.0210  0.1479
  446loPI   C3B 7135   6.821   4.958   9.107 -0.1877 -0.2564  0.1258
  446loPI   C4B 7136   6.906   4.927   8.636 -0.0643 -0.1157 -0.0511
  447loPI    C1 7137  15.126  17.765  11.072  0.0246  0.0679 -0.1352
  447loPI    C2 7138  15.167  17.374  11.144 -0.1606  0.0633 -0.0484
  447loPI    C3 7139  15.099  17.627  11.446  0.0234  0.1718 -0.0965
  447loPI   PO4 7140  15.293  17.780  10.775 -0.0116  0.1131 -0.3432
  447loPI   GL1 7141  15.007  17.784  10.439  0.1731 -0.0202 -0.1199
  447loPI   GL2 7142  14.923  17.501  10.607  0.0480 -0.2130  0.1770
  447loPI   C1A 7143  14.921  17.762   9.918 -0.1155 -0.3776 -0.1581
  447loPI   C2A 7144  14.909  17.829   9.518  0.0844 -0.0120 -0.0897
  447loPI   C3A 7145  14.964  17.949   9.060 -0.1075 -0.0396  0.0466
  447loPI   C4A 7146  14.863  17.901   8.608  0.1268 -0.1726  0.1207
  447loPI   C5A 7147  15.050  17.984   8.234 -0.1672  0.3564 -0.0095
  447loPI   C6A 7148  15.299  17.928   7.726  0.1706 -0.0588 -0.1209
  447loPI   C1B 7149  15.075  17.312  10.210 -0.0509 -0.0349  0.0200
  447loPI   C2B 7150  15.148  17.319   9.764 -0.4844 -0.1104  0.1549
  447loPI   C3B 7151  15.161  17.336   9.359  0.1169  0.1368  0.1122
  447loPI   C4B 7152  15.060  17.418   8.942 -0.0504 -0.0069  0.1026
  448loPI    C1 7153   1.211   6.369  11.571  0.0663  0.1921  0.0118
  448loPI    C2 7154   1.057   6.022  11.695  0.0235  0.2123  0.0151
  448loPI    C3 7155   1.044   6.343  11.933 -0.0238  0.2409 -0.0261
  448loPI   PO4 7156   1.151   6.326  11.193 -0.0398  0.0659  0.0222
  448loPI   GL1 7157   1.197   6.208  10.752  0.4801 -0.3537 -0.0125
  448loPI   GL2 7158   1.207   6.549  10.682 -0.0163 -0.1479 -0.0321
  448loPI   C1A 7159   1.068   5.979  10.441  0.0298  0.0185  0.1349
  448loPI   C2A 7160   0.935   5.949   9.994 -0.1594  0.1438 -0.4821
  448loPI   C3A 7161   0.920   5.919   9.510  0.2649  0.1153 -0.1435
  448loPI   C4A 7162   0.881   5.934   9.155  0.3358 -0.5760  0.0383
  448loPI   C5A 7163   0.945   5.931   8.689 -0.0072 -0.0220  0.0782
  448loPI   C6A 7164   1.450   5.986   8.388 -0.1276  0.0765 -0.0839
  448loPI   C1B 7165   1.287   6.446  10.197 -0.1737  0.1597 -0.0889
  448loPI   C2B 7166   1.194   6.347   9.788 -0.0797  0.3481  0.3297
  448loPI   C3B 7167   1.240   6.376   9.265 -0.1330  0.1246  0.1283
  448loPI   C4B 7168   1.200   6.316   8.872 -0.0839 -0.0331 -0.3674
  449loPI    C1 7169  16.165   1.097  11.349  0.2081  0.3380 -0.1318
  449loPI    C2 7170  16.127   1.242  11.720  0.0587 -0.0598  0.0136
  449loPI    C3 7171  15.930   0.911  11.613  0.0185  0.1079 -0.4557
  449loPI   PO4 7172  16.029   1.355  11.167  0.1615 -0.0670  0.0638
  449loPI   GL1 7173  15.715   1.338  10.749  0.0006 -0.0225 -0.1767
  449loPI   GL2 7174  15.471   1.038  10.723  0.5193 -0.0863 -0.0955
  449loPI   C1A 7175  15.697   1.527  10.394 -0.0509 -0.1291 -0.1903
  449loPI   C2A 7176  15.713   1.551   9.894  0.4614 -0.1219  0.3381
  449loPI   C3A 7177  15.887   1.478   9.411  0.0680 -0.1663  0.0249
  449loPI   C4A 7178  15.756   1.513   9.018 -0.3398 -0.2147 -0.0526
  449loPI   C5A 7179  15.530   1.646   8.724  0.1177  0.1650  0.2829
  449loPI   C6A 7180  15.368   1.654   8.332  0.0365 -0.5522  0.0993
  449loPI   C1B 7181  15.251   1.015  10.346 -0.4953  0.3521 -0.2790
  449loPI   C2B 7182  15.305   1.034  10.043  0.0790  0.0235 -0.2588
  449loPI   C3B 7183  15.562   1.115   9.619 -0.0792  0.2702 -0.1408
  449loPI   C4B 7184  15.465   1.153   9.240  0.0492  0.0900 -0.0242
  450loPI    C1 7185   5.169   3.059  10.954  0.0634 -0.0557  0.2394
  450loPI    C2 7186   5.504   3.205  10.792  0.0485 -0.2456  0.0321
  450loPI    C3 7187   5.508   3.066  11.167  0.1086  0.1004  0.1643
  450loPI   PO4 7188   5.055   2.941  10.696 -0.0754 -0.1485 -0.0582
  450loPI   GL1 7189   4.939   2.920  10.222  0.2393  0.2788  0.0027
  450loPI   GL2 7190   5.155   2.896  10.182 -0.1483  0.0508  0.0873
  450loPI   C1A 7191   4.707   2.527   9.858 -0.2766 -0.2022 -0.0790
  450loPI   C2A 7192   4.730   2.601   9.416  0.0196  0.1854 -0.0377
  450loPI   C3A 7193   4.765   2.458   8.973 -0.0667 -0.1563 -0.0018
  450loPI   C4A 7194   4.657   2.343   8.527  0.3064  0.0964  0.0183
  450loPI   C5A 7195   4.977   2.270   8.184  0.0515 -0.1073 -0.2324
  450loPI   C6A 7196   5.286   1.933   8.092 -0.0125 -0.1520  0.0622
  450loPI   C1B 7197   4.984   2.961   9.725  0.0505  0.1620  0.0707
  450loPI   C2B 7198   4.969   2.986   9.281 -0.1603  0.0192 -0.0957
  450loPI   C3B 7199   5.059   2.842   8.881 -0.0151  0.1466  0.0250
  450loPI   C4B 7200   5.113   2.772   8.373 -0.1424 -0.0658 -0.6343
  451loPI    C1 7201   3.990   6.852  10.463 -0.1246  0.0870 -0.0725
  451loPI    C2 7202   4.053   7.205  10.639  0.3145  0.0447 -0.1334
  451loPI    C3 7203   4.231   6.876  10.781 -0.1494 -0.1708 -0.0314
  451loPI   PO4 7204   3.899   6.958  10.212  0.0179 -0.0042 -0.0942
  451loPI   GL1 7205   3.572   6.868  10.018 -0.2784 -0.1315 -0.2521
  451loPI   GL2 7206   3.642   7.225   9.923 -0.0703 -0.5453 -0.1535
  451loPI   C1A 7207   3.428   6.936   9.546 -0.2252 -0.0267 -0.3132
  451loPI   C2A 7208   3.378   6.951   9.081 -0.0956 -0.0193 -0.2461
  451loPI   C3A 7209   3.360   6.802   8.701  0.0840 -0.0886 -0.2247
  451loPI   C4A 7210   3.504   6.806   8.272  0.1434  0.3530  0.1094
  451loPI   C5A 7211   3.498   6.564   7.830  0.0285  0.2861 -0.1142
  451loPI   C6A 7212   3.701   6.142   7.757 -0.1303 -0.3699 -0.2615
  451loPI   C1B 7213   3.715   7.354   9.527 -0.0156 -0.0401 -0.0443
  451loPI   C2B 7214   3.744   7.344   9.085  0.0383 -0.3251  0.1314
  451loPI   C3B 7215   3.603   7.246   8.641 -0.1408 -0.2887 -0.0608
  451loPI   C4B 7216   3.463   7.361   8.267  0.1036 -0.1013 -0.0471
  452loPI    C1 7217  11.217   6.000  11.057  0.1274  0.1828 -0.1005
  452loPI    C2 7218  11.065   5.734  11.314  0.1308  0.0315 -0.2531
  452loPI    C3 7219  11.381   5.956  11.419  0.1218 -0.0172 -0.1208
  452loPI   PO4 7220  11.050   5.900  10.779 -0.0881 -0.0505 -0.1932
  452loPI   GL1 7221  11.190   5.879  10.387 -0.0250 -0.0094 -0.1682
  452loPI   GL2 7222  11.192   6.201  10.225 -0.2326 -0.1887  0.1075
  452loPI   C1A 7223  11.239   5.740   9.928 -0.0863  0.1673 -0.1580
  452loPI   C2A 7224  11.394   5.603   9.609 -0.4166  0.0140 -0.1135
  452loPI   C3A 7225  11.476   5.389   9.192 -0.1902  0.0743  0.0820
  452loPI   C4A 7226  11.650   5.478   8.760  0.0520 -0.0317  0.1369
  452loPI   C5A 7227  12.068   5.286   8.495 -0.0282 -0.0848 -0.1337
  452loPI   C6A 7228  12.501   5.132   8.612 -0.1508 -0.3042  0.2929
  452loPI   C1B 7229  11.273   6.219   9.792 -0.0576  0.1454 -0.1117
  452loPI   C2B 7230  11.190   6.223   9.323  0.0471  0.1670 -0.1688
  452loPI   C3B 7231  11.336   6.110   9.011  0.1814  0.1679  0.2297
  452loPI   C4B 7232  11.308   5.846   8.662 -0.2248  0.4254  0.0054
  453loPI    C1 7233  10.896  14.192  10.304 -0.0514 -0.0304  0.1010
  453loPI    C2 7234  10.716  13.838  10.259  0.3392 -0.2631  0.3136
  453loPI    C3 7235  10.750  14.000  10.623  0.1598 -0.0018  0.2169
  453loPI   PO4 7236  10.762  14.415  10.256 -0.1326  0.1753  0.0784
  453loPI   GL1 7237  10.732  14.573   9.886  0.1750 -0.2414  0.1251
  453loPI   GL2 7238  10.666  14.795   9.923 -0.1411  0.1766 -0.2033
  453loPI   C1A 7239  11.012  14.647   9.430  0.0953  0.0192 -0.0895
  453loPI   C2A 7240  11.157  14.640   9.105  0.0144 -0.2619  0.3321
  453loPI   C3A 7241  11.336  14.829   8.838 -0.0200 -0.1774  0.0998
  453loPI   C4A 7242  11.485  14.787   8.447  0.3251  0.0292  0.2118
  453loPI   C5A 7243  11.605  14.781   8.046 -0.2744 -0.1144  0.2968
  453loPI   C6A 7244  11.579  14.636   7.621  0.1206  0.2215 -0.2638
  453loPI   C1B 7245  10.716  15.088   9.638 -0.1288  0.0652 -0.1599
  453loPI   C2B 7246  10.933  15.334   9.305 -0.3684 -0.2348  0.0940
  453loPI   C3B 7247  11.146  15.384   8.879 -0.0342 -0.2023 -0.0778
  453loPI   C4B 7248  11.154  15.194   8.435  0.0409  0.3952 -0.1615
  454loPI    C1 7249   8.106  16.197  10.494  0.0981  0.0353  0.0386
  454loPI    C2 7250   8.021  15.823  10.605 -0.0299  0.0737  0.0717
  454loPI    C3 7251   7.906  16.130  10.834  0.1337  0.1308  0.0789
  454loPI   PO4 7252   8.034  16.167  10.239 -0.1293  0.1457 -0.1490
  454loPI   GL1 7253   7.757  16.174   9.955  0.0030 -0.1733  0.2127
  454loPI   GL2 7254   8.059  16.012   9.755  0.0288  0.0542 -0.1180
  454loPI   C1A 7255   7.541  16.491   9.708  0.2810  0.0865  0.0147
  454loPI   C2A 7256   7.461  16.561   9.293 -0.3255 -0.3091 -0.1289
  454loPI   C3A 7257   7.597  16.764   8.967  0.1959  0.2872  0.0336
  454loPI   C4A 7258   7.786  16.809   8.664  0.0431 -0.1249 -0.2790
  454loPI   C5A 7259   7.859  17.118   8.421 -0.0966 -0.1509 -0.3090
  454loPI   C6A 7260   8.275  17.149   8.160 -0.1799  0.1164 -0.0559
  454loPI   C1B 7261   7.755  16.138   9.406 -0.1561 -0.1853  0.1677
  454loPI   C2B 7262   7.758  16.177   8.976 -0.2532 -0.0357 -0.2087
  454loPI   C3B 7263   7.852  16.258   8.559  0.0017 -0.1041  0.1952
  454loPI   C4B 7264   7.688  16.222   8.194  0.2531  0.0544  0.1973
  455loPI    C1 7265   9.774   4.225  10.925  0.0754 -0.0632 -0.1441
  455loPI    C2 7266   9.767   3.981  11.242 -0.1214 -0.2133 -0.2614
  455loPI    C3 7267   9.983   4.317  11.253 -0.1438 -0.2060  0.0396
  455loPI   PO4 7268   9.647   4.101  10.736 -0.1688 -0.2935 -0.2308
  455loPI   GL1 7269   9.712   3.906  10.367 -0.3611  0.1105 -0.2607
  455loPI   GL2 7270  10.106   3.880  10.225 -0.0175 -0.0991 -0.1268
  455loPI   C1A 7271   9.795   3.939   9.867 -0.1048 -0.1724  0.0207
  455loPI   C2A 7272  10.010   3.915   9.485  0.3394  0.5174  0.2552
  455loPI   C3A 7273  10.094   3.863   9.124  0.2384 -0.3519 -0.0517
  455loPI   C4A 7274   9.953   4.058   8.715  0.1373  0.0053 -0.1444
  455loPI   C5A 7275   9.901   3.770   8.320 -0.1078  0.0602 -0.1293
  455loPI   C6A 7276   9.992   3.318   8.361  0.0539  0.0496 -0.0809
  455loPI   C1B 7277  10.077   3.525  10.013  0.1572 -0.0991  0.0074
  455loPI   C2B 7278  10.225   3.412   9.567  0.0963  0.2574  0.1106
  455loPI   C3B 7279  10.280   3.360   9.160  0.2606  0.0255  0.3352
  455loPI   C4B 7280  10.245   3.403   8.858 -0.4160 -0.1468  0.0180
  456loPI    C1 7281   7.536   4.784  10.636  0.3560  0.0934 -0.0404
  456loPI    C2 7282   7.650   5.120  10.821  0.0271  0.1825  0.0060
  456loPI    C3 7283   7.647   4.773  11.020  0.4255  0.1370 -0.0591
  456loPI   PO4 7284   7.655   4.823  10.427 -0.3068 -0.0276  0.0702
  456loPI   GL1 7285   7.616   4.737   9.923 -0.0122  0.0006  0.2872
  456loPI   GL2 7286   7.780   4.770   9.661  0.0592 -0.0517  0.0721
  456loPI   C1A 7287   7.359   5.038   9.708 -0.2344 -0.0608 -0.0250
  456loPI   C2A 7288   7.335   5.134   9.357  0.1186 -0.1800  0.1049
  456loPI   C3A 7289   7.272   5.142   8.987  0.0030  0.2989 -0.0245
  456loPI   C4A 7290   7.354   5.112   8.535 -0.1765 -0.1167 -0.0720
  456loPI   C5A 7291   7.434   5.110   8.117  0.0155 -0.0780 -0.2292
  456loPI   C6A 7292   7.287   5.202   7.690  0.1377 -0.0775  0.0091
  456loPI   C1B 7293   7.754   4.842   9.272  0.1048  0.1437  0.1284
  456loPI   C2B 7294   7.693   4.909   8.845  0.0084 -0.2370 -0.0677
  456loPI   C3B 7295   7.858   5.225   8.448 -0.1816  0.0504 -0.0374
  456loPI   C4B 7296   8.028   5.623   8.301 -0.1030  0.0801  0.1399
  457loPI    C1 7297   0.037  14.115  10.905  0.1760  0.3198 -0.1177
  457loPI    C2 7298  -0.100  14.344  11.203 -0.0071 -0.1252  0.1511
  457loPI    C3 7299   0.216  14.107  11.262 -0.0579 -0.2333 -0.0022
  457loPI   PO4 7300  -0.121  14.278  10.710 -0.1153  0.0770 -0.1948
  457loPI   GL1 7301  -0.322  14.111  10.419  0.0627  0.2431 -0.1211
  457loPI   GL2 7302  -0.346  13.775  10.512 -0.0786  0.0590  0.1974
  457loPI   C1A 7303  -0.318  14.079  10.004 -0.2010  0.0312 -0.2334
  457loPI   C2A 7304  -0.422  13.987   9.565  0.1538 -0.1138 -0.1436
  457loPI   C3A 7305  -0.280  14.060   9.170  0.0554  0.1321  0.1393
  457loPI   C4A 7306  -0.279  14.071   8.783 -0.0770 -0.1314  0.0352
  457loPI   C5A 7307  -0.008  14.147   8.490  0.2049  0.5137  0.1565
  457loPI   C6A 7308   0.515  14.133   8.420  0.2182 -0.0480 -0.2134
  457loPI   C1B 7309  -0.625  13.728  10.163  0.0683  0.0724 -0.0463
  457loPI   C2B 7310  -0.730  13.615   9.762 -0.1456  0.0981  0.0380
  457loPI   C3B 7311  -0.662  13.607   9.317  0.1102 -0.1115  0.0986
  457loPI   C4B 7312  -0.609  13.707   8.857 -0.0751  0.1636  0.0259
  458loPI    C1 7313   1.572  16.456  11.189  0.0020 -0.2366 -0.0957
  458loPI    C2 7314   1.414  16.823  11.199 -0.0479 -0.2493 -0.3451
  458loPI    C3 7315   1.210  16.514  11.350  0.0451 -0.1592 -0.0261
  458loPI   PO4 7316   1.680  16.534  10.863 -0.0083  0.0176  0.0237
  458loPI   GL1 7317   1.625  16.585  10.461  0.0084 -0.3120 -0.1963
  458loPI   GL2 7318   1.361  16.538  10.383  0.1361  0.1738  0.2234
  458loPI   C1A 7319   1.753  16.406  10.006  0.0537  0.2320 -0.1417
  458loPI   C2A 7320   1.678  16.450   9.673 -0.4282  0.3631  0.1685
  458loPI   C3A 7321   1.703  16.478   9.316 -0.1154  0.0140 -0.0182
  458loPI   C4A 7322   1.739  16.457   8.915 -0.1336 -0.1683 -0.2075
  458loPI   C5A 7323   1.856  16.459   8.551  0.0402  0.0813 -0.2511
  458loPI   C6A 7324   1.808  16.777   8.157 -0.2754  0.2390 -0.1188
  458loPI   C1B 7325   1.201  16.531   9.926 -0.1293  0.0358  0.0823
  458loPI   C2B 7326   1.179  16.573   9.558 -0.2940  0.1534  0.0373
  458loPI   C3B 7327   1.167  16.637   9.050 -0.1448 -0.1656 -0.1414
  458loPI   C4B 7328   1.332  16.469   8.653  0.0442 -0.1275 -0.1463
  459loPI    C1 7329   7.530   9.565  10.475  0.4499  0.1572 -0.0758
  459loPI    C2 7330   7.591   9.693  10.849  0.0657  0.0971  0.0118
  459loPI    C3 7331   7.566   9.301  10.773  0.0019  0.1136 -0.0532
  459loPI   PO4 7332   7.769   9.725  10.310 -0.0827  0.0214 -0.1403
  459loPI   GL1 7333   8.021   9.711   9.938  0.0275 -0.2494  0.0109
  459loPI   GL2 7334   7.881   9.469   9.841 -0.2873  0.0260 -0.0724
  459loPI   C1A 7335   8.027   9.923   9.609  0.0477  0.0418  0.0370
  459loPI   C2A 7336   8.087   9.983   9.171  0.1683 -0.2103  0.2359
  459loPI   C3A 7337   8.169  10.072   8.749  0.3871 -0.1950  0.2527
  459loPI   C4A 7338   8.323  10.258   8.316 -0.1911 -0.1755  0.0125
  459loPI   C5A 7339   8.567  10.289   7.907 -0.0293 -0.0497  0.2580
  459loPI   C6A 7340   8.827  10.161   7.496 -0.1445  0.3508 -0.0613
  459loPI   C1B 7341   7.994   9.459   9.414  0.2018  0.0912 -0.0891
  459loPI   C2B 7342   7.850   9.435   8.917  0.3269  0.0059 -0.0165
  459loPI   C3B 7343   7.938   9.527   8.515 -0.0743 -0.2951  0.1746
  459loPI   C4B 7344   7.692   9.729   8.214 -0.4859 -0.0996 -0.2389
  460loPI    C1 7345   6.215   5.425  10.625  0.1912  0.0708  0.1990
  460loPI    C2 7346   6.169   5.049  10.754 -0.0704  0.0804  0.1407
  460loPI    C3 7347   6.278   5.337  11.010  0.4091 -0.0820  0.1304
  460loPI   PO4 7348   6.085   5.463  10.387  0.1083 -0.2796  0.1517
  460loPI   GL1 7349   6.038   5.838  10.191 -0.1975  0.2169  0.2400
  460loPI   GL2 7350   5.797   6.049  10.251  0.2054 -0.0276 -0.1627
  460loPI   C1A 7351   6.022   5.573   9.772 -0.1664 -0.0612 -0.1598
  460loPI   C2A 7352   5.991   5.551   9.231  0.0601  0.0344 -0.2452
  460loPI   C3A 7353   6.067   5.582   8.725 -0.0124 -0.0073  0.2635
  460loPI   C4A 7354   5.966   5.386   8.382  0.0011  0.0546  0.3368
  460loPI   C5A 7355   5.748   5.443   7.979 -0.0202  0.0912 -0.1515
  460loPI   C6A 7356   5.768   5.847   7.700  0.2918 -0.0784  0.0619
  460loPI   C1B 7357   5.780   6.024   9.857  0.1071 -0.0441 -0.1235
  460loPI   C2B 7358   5.620   5.832   9.546 -0.0405  0.3527  0.3521
  460loPI   C3B 7359   5.561   5.725   9.133 -0.1018 -0.3637  0.2958
  460loPI   C4B 7360   5.536   5.430   8.677 -0.0993  0.1120  0.1510
  461loPI    C1 7361  14.173  16.499  11.526  0.1486  0.1562  0.0901
  461loPI    C2 7362  13.899  16.781  11.601  0.0537  0.1073 -0.0640
  461loPI    C3 7363  14.085  16.596  11.904 -0.0701  0.1537  0.0417
  461loPI   PO4 7364  14.282  16.602  11.203  0.0697  0.0662  0.1368
  461loPI   GL1 7365  14.116  16.708  10.781  0.0816  0.1386 -0.1439
  461loPI   GL2 7366  14.037  16.544  10.566  0.1232 -0.1117  0.0644
  461loPI   C1A 7367  14.157  16.949  10.285 -0.0086 -0.0265  0.3695
  461loPI   C2A 7368  14.220  17.026   9.886 -0.3300  0.2854  0.0664
  461loPI   C3A 7369  14.249  16.892   9.404 -0.2543  0.1139 -0.1953
  461loPI   C4A 7370  14.264  16.985   9.010 -0.2834  0.0878  0.0186
  461loPI   C5A 7371  14.107  17.088   8.530  0.1893  0.0996  0.1052
  461loPI   C6A 7372  13.739  17.157   8.251  0.0631  0.0561 -0.2028
  461loPI   C1B 7373  13.910  16.616  10.041 -0.0043 -0.2336  0.2809
  461loPI   C2B 7374  13.859  16.621   9.638 -0.0687 -0.1804 -0.1133
  461loPI   C3B 7375  13.917  16.540   9.223 -0.1023 -0.0381 -0.1014
  461loPI   C4B 7376  14.001  16.607   8.788 -0.0475  0.0977  0.2307
  462loPI    C1 7377   3.918   6.409  11.018 -0.0801  0.0543  0.1944
  462loPI    C2 7378   4.146   6.660  11.231  0.0546  0.0725  0.0302
  462loPI    C3 7379   3.799   6.529  11.381  0.1962  0.0035  0.3046
  462loPI   PO4 7380   3.926   6.448  10.718  0.1862  0.1545 -0.1278
  462loPI   GL1 7381   3.851   6.226  10.346  0.2080 -0.0163 -0.0753
  462loPI   GL2 7382   3.883   6.468  10.118  0.1229 -0.1373 -0.1400
  462loPI   C1A 7383   3.770   5.956  10.036  0.1281  0.3525 -0.1253
  462loPI   C2A 7384   3.709   5.962   9.607  0.1341  0.0280  0.1343
  462loPI   C3A 7385   3.733   6.011   9.190  0.0525 -0.0261  0.0450
  462loPI   C4A 7386   3.741   5.875   8.721 -0.0634  0.0910 -0.2332
  462loPI   C5A 7387   3.815   5.882   8.245 -0.0269  0.0988 -0.2342
  462loPI   C6A 7388   4.085   5.758   7.976  0.0122  0.0088  0.1323
  462loPI   C1B 7389   3.711   6.463   9.782  0.1468 -0.1067 -0.2512
  462loPI   C2B 7390   3.556   6.420   9.408  0.2038 -0.0284  0.1977
  462loPI   C3B 7391   3.505   6.482   9.038 -0.0973 -0.1729 -0.4564
  462loPI   C4B 7392   3.610   6.371   8.644 -0.3524  0.1520 -0.1792
  463loPI    C1 7393  11.061   1.966  11.459  0.0926 -0.0344  0.0861
  463loPI    C2 7394  11.165   1.830  11.821 -0.0228  0.0877  0.1660
  463loPI    C3 7395  10.802   1.989  11.763  0.0232  0.1401  0.0153
  463loPI   PO4 7396  11.204   1.809  11.291 -0.0221 -0.1526  0.3241
  463loPI   GL1 7397  11.289   1.873  10.798 -0.0789 -0.1310  0.0874
  463loPI   GL2 7398  11.371   2.271  10.669 -0.1330  0.0497  0.0829
  463loPI   C1A 7399  11.308   1.701  10.424 -0.1302 -0.0980  0.1309
  463loPI   C2A 7400  11.097   1.759  10.005  0.1122  0.1748  0.0189
  463loPI   C3A 7401  11.174   1.859   9.567 -0.0155  0.0553 -0.1438
  463loPI   C4A 7402  11.345   1.831   9.155  0.1533  0.0191  0.0950
  463loPI   C5A 7403  11.545   1.964   8.803  0.1372  0.1458 -0.2477
  463loPI   C6A 7404  11.498   1.743   8.435  0.0112  0.0889  0.1132
  463loPI   C1B 7405  11.543   2.146  10.308 -0.2713  0.0755 -0.0306
  463loPI   C2B 7406  11.506   2.057   9.968 -0.0725  0.1272  0.0563
  463loPI   C3B 7407  11.596   2.080   9.506  0.2248 -0.0357 -0.1232
  463loPI   C4B 7408  11.771   2.201   9.210  0.1631  0.3077  0.1174
  464loPI    C1 7409  17.389   6.890  11.020 -0.2180  0.1228  0.1440
  464loPI    C2 7410  17.350   6.529  11.186 -0.3446  0.1237  0.1173
  464loPI    C3 7411  17.297   6.857  11.408 -0.3491  0.1254  0.1137
  464loPI   PO4 7412  17.474   6.795  10.717  0.2053 -0.1400 -0.1874
  464loPI   GL1 7413  17.617   6.518  10.413  0.2030  0.2160 -0.5357
  464loPI   GL2 7414  17.500   6.324  10.443  0.0657 -0.0301  0.4282
  464loPI   C1A 7415  17.739   6.661   9.967 -0.2224  0.1182 -0.2165
  464loPI   C2A 7416  17.705   6.615   9.620  0.0978 -0.1483  0.2813
  464loPI   C3A 7417  17.605   6.665   9.142 -0.0828 -0.7058  0.1383
  464loPI   C4A 7418  17.693   6.554   8.781  0.1914  0.1022  0.1673
  464loPI   C5A 7419  17.742   6.863   8.411 -0.0990 -0.1059  0.1409
  464loPI   C6A 7420  18.117   7.024   8.148  0.0438  0.1192 -0.0087
  464loPI   C1B 7421  17.282   6.339  10.050 -0.0400 -0.0939  0.0342
  464loPI   C2B 7422  17.318   6.346   9.721 -0.3133  0.2380  0.2468
  464loPI   C3B 7423  17.381   6.246   9.322  0.2060  0.0495  0.3224
  464loPI   C4B 7424  17.406   6.166   8.922 -0.4652 -0.5708 -0.0038
  465loPI    C1 7425   7.665   2.881  10.675  0.1233 -0.0272 -0.0050
  465loPI    C2 7426   7.898   2.882  11.000  0.0697 -0.1301  0.0343
  465loPI    C3 7427   7.619   3.164  10.954  0.0900 -0.1044  0.0684
  465loPI   PO4 7428   7.682   2.552  10.615 -0.0254 -0.1102 -0.0891
  465loPI   GL1 7429   7.595   2.454  10.269  0.0103  0.3834 -0.0228
  465loPI   GL2 7430   7.354   2.297  10.137 -0.0910  0.2675 -0.1519
  465loPI   C1A 7431   7.625   2.547   9.862 -0.2017  0.1642  0.1939
  465loPI   C2A 7432   7.913   2.506   9.581  0.1150  0.0201  0.0456
  465loPI   C3A 7433   7.984   2.412   9.235 -0.1574  0.0409 -0.0105
  465loPI   C4A 7434   8.263   2.400   8.879 -0.3324 -0.2282 -0.2220
  465loPI   C5A 7435   8.532   2.255   8.526 -0.0109  0.0517 -0.0122
  465loPI   C6A 7436   8.958   2.165   8.372  0.1643 -0.2802 -0.0600
  465loPI   C1B 7437   7.379   2.168   9.729 -0.1482  0.1018 -0.1010
  465loPI   C2B 7438   7.562   2.168   9.314  0.0704 -0.1869 -0.2069
  465loPI   C3B 7439   7.632   2.183   8.948 -0.1769  0.0994  0.3992
  465loPI   C4B 7440   7.837   2.282   8.620  0.1491  0.2210 -0.1540
  466loPI    C1 7441  14.194   4.835  11.178 -0.0121 -0.2949 -0.1425
  466loPI    C2 7442  14.142   4.995  11.541  0.0876 -0.1255 -0.2015
  466loPI    C3 7443  14.443   4.739  11.477 -0.1839 -0.4892 -0.0597
  466loPI   PO4 7444  14.191   5.021  10.952 -0.0477 -0.1194  0.2297
  466loPI   GL1 7445  14.024   5.053  10.531 -0.0124  0.1788 -0.2766
  466loPI   GL2 7446  14.119   4.761  10.515 -0.0693 -0.3851 -0.0465
  466loPI   C1A 7447  14.093   5.013  10.032  0.2102 -0.1472  0.0588
  466loPI   C2A 7448  14.059   4.980   9.583 -0.1721  0.2601 -0.4668
  466loPI   C3A 7449  14.021   4.953   9.129  0.2260  0.0157 -0.1808
  466loPI   C4A 7450  14.077   5.114   8.672  0.0217  0.1386 -0.0709
  466loPI   C5A 7451  13.829   5.447   8.498 -0.0922 -0.0085 -0.3141
  466loPI   C6A 7452  13.778   5.730   8.051  0.1990  0.0118  0.0847
  466loPI   C1B 7453  14.202   4.478  10.112 -0.3076 -0.1094 -0.2827
  466loPI   C2B 7454  14.248   4.383   9.686 -0.0404 -0.0764  0.0359
  466loPI   C3B 7455  14.194   4.466   9.247  0.1827  0.0903 -0.2497
  466loPI   C4B 7456  14.189   4.553   8.802  0.4040 -0.0222 -0.1500
  467loPI    C1 7457  17.568  17.891  11.008  0.0927 -0.1204 -0.1878
  467loPI    C2 7458  17.416  17.674  11.308 -0.0088  0.0252 -0.1325
  467loPI    C3 7459  17.807  17.756  11.298 -0.0583  0.3134  0.1497
  467loPI   PO4 7460  17.377  17.755  10.834  0.2449  0.0377  0.2390
  467loPI   GL1 7461  17.171  17.370  10.564 -0.3485  0.2354  0.0744
  467loPI   GL2 7462  16.859  17.213  10.557 -0.3969  0.2398 -0.1788
  467loPI   C1A 7463  17.239  17.672  10.161  0.1365  0.1834  0.0604
  467loPI   C2A 7464  17.322  17.915   9.850 -0.1050  0.1258 -0.0222
  467loPI   C3A 7465  17.319  17.893   9.461 -0.1434  0.0336 -0.3892
  467loPI   C4A 7466  17.398  17.948   9.051  0.1396  0.3087 -0.0962
  467loPI   C5A 7467  17.287  18.121   8.630  0.0840 -0.2393 -0.1637
  467loPI   C6A 7468  17.074  18.165   8.278  0.0973 -0.2712 -0.0269
  467loPI   C1B 7469  16.887  17.290  10.118  0.1669  0.1754 -0.0014
  467loPI   C2B 7470  17.007  17.429   9.706 -0.3657 -0.1403  0.1928
  467loPI   C3B 7471  17.089  17.386   9.248 -0.0392  0.0246 -0.1498
  467loPI   C4B 7472  16.958  17.509   8.860 -0.1630 -0.0561  0.0243
  468loPI    C1 7473  15.169   1.638  11.513  0.0916  0.3829  0.1625
  468loPI    C2 7474  15.106   1.968  11.730 -0.1802  0.3253  0.1741
  468loPI    C3 7475  15.191   1.622  11.912  0.1146  0.3883  0.1615
  468loPI   PO4 7476  15.014   1.585  11.344  0.1728  0.0796 -0.2355
  468loPI   GL1 7477  14.912   1.683  10.962  0.0683  0.2040 -0.1884
  468loPI   GL2 7478  15.063   1.567  10.798  0.0933 -0.0151 -0.0283
  468loPI   C1A 7479  14.685   1.691  10.582  0.2289  0.1482 -0.4145
  468loPI   C2A 7480  14.751   1.690  10.136 -0.3537 -0.1418 -0.1243
  468loPI   C3A 7481  14.723   1.592   9.706  0.0665  0.0140 -0.0101
  468loPI   C4A 7482  14.801   1.587   9.243  0.3251 -0.0577  0.1647
  468loPI   C5A 7483  14.613   1.565   8.834  0.1599 -0.0291 -0.0955
  468loPI   C6A 7484  14.380   1.273   8.789  0.5663 -0.1515 -0.0266
  468loPI   C1B 7485  15.207   1.505  10.419 -0.2487  0.0587 -0.1365
  468loPI   C2B 7486  15.214   1.520  10.038  0.2657  0.1765 -0.1576
  468loPI   C3B 7487  15.220   1.474   9.612 -0.1432 -0.0959 -0.4157
  468loPI   C4B 7488  15.293   1.576   9.184 -0.0412 -0.1816  0.1473
  469loPI    C1 7489  17.006   0.535  11.479  0.2439  0.1903  0.0487
  469loPI    C2 7490  17.080   0.729  11.821 -0.0717  0.4714 -0.0362
  469loPI    C3 7491  16.799   0.445  11.809  0.3540  0.0301  0.0753
  469loPI   PO4 7492  17.142   0.705  11.322 -0.2952  0.0484  0.0637
  469loPI   GL1 7493  17.290   0.665  10.955 -0.0923  0.0451 -0.2581
  469loPI   GL2 7494  16.990   0.722  10.787  0.2217  0.1751  0.0415
  469loPI   C1A 7495  17.448   0.514  10.574  0.0698 -0.0012 -0.1421
  469loPI   C2A 7496  17.509   0.663  10.160 -0.2666 -0.3390 -0.1583
  469loPI   C3A 7497  17.509   0.702   9.728 -0.0944 -0.0945  0.1812
  469loPI   C4A 7498  17.537   0.734   9.254  0.0183  0.2997  0.0230
  469loPI   C5A 7499  17.593   0.758   8.823  0.4258 -0.0253 -0.1516
  469loPI   C6A 7500  17.498   0.583   8.548 -0.3014 -0.0429  0.1748
  469loPI   C1B 7501  16.997   0.682  10.363 -0.1690 -0.1160 -0.0828
  469loPI   C2B 7502  16.942   0.744   9.898  0.2278  0.0939  0.1116
  469loPI   C3B 7503  17.059   0.809   9.477 -0.0542  0.1769  0.1259
  469loPI   C4B 7504  17.019   0.806   9.092 -0.0016  0.0840 -0.2629
  470loPI    C1 7505   3.930  14.988  10.855 -0.0849 -0.0579 -0.1721
  470loPI    C2 7506   3.900  15.215  11.183 -0.1774 -0.2026 -0.0793
  470loPI    C3 7507   4.239  15.016  11.107 -0.1816 -0.2282 -0.0318
  470loPI   PO4 7508   3.893  15.065  10.636  0.0139 -0.2338  0.0495
  470loPI   GL1 7509   3.932  14.993  10.297  0.1283 -0.1819 -0.0159
  470loPI   GL2 7510   4.067  14.712  10.207  0.2904 -0.1801  0.2684
  470loPI   C1A 7511   3.705  15.152   9.941  0.2765 -0.0541  0.1287
  470loPI   C2A 7512   3.624  15.184   9.550 -0.1550 -0.0580 -0.1246
  470loPI   C3A 7513   3.782  15.167   9.169 -0.1793  0.0202  0.0236
  470loPI   C4A 7514   3.795  15.250   8.714  0.1321  0.3083  0.1238
  470loPI   C5A 7515   3.702  15.066   8.267 -0.1651  0.1202 -0.1900
  470loPI   C6A 7516   3.919  14.792   8.042  0.1791 -0.1635  0.1269
  470loPI   C1B 7517   3.871  14.704   9.834  0.2189 -0.0924  0.0990
  470loPI   C2B 7518   3.862  14.693   9.386  0.1583 -0.1571 -0.1580
  470loPI   C3B 7519   3.916  14.755   8.979 -0.1886 -0.2101 -0.1033
  470loPI   C4B 7520   3.883  14.811   8.607  0.2272 -0.2534 -0.1076
  471loPI    C1 7521   0.186  16.544  11.410 -0.1175 -0.0733 -0.1268
  471loPI    C2 7522  -0.088  16.833  11.449 -0.2450 -0.2170  0.0600
  471loPI    C3 7523  -0.079  16.529  11.709  0.0850 -0.2208  0.0493
  471loPI   PO4 7524   0.176  16.411  11.110 -0.4745 -0.3364  0.0971
  471loPI   GL1 7525   0.211  16.308  10.630 -0.1502 -0.1849 -0.0944
  471loPI   GL2 7526  -0.184  16.348  10.482  0.1738 -0.0156  0.0019
  471loPI   C1A 7527   0.438  16.319  10.210  0.2284 -0.0302 -0.0299
  471loPI   C2A 7528   0.407  16.153   9.884  0.2820  0.2842  0.1904
  471loPI   C3A 7529   0.500  16.140   9.457  0.2841 -0.0589 -0.0014
  471loPI   C4A 7530   0.343  16.202   8.999 -0.0715 -0.1464 -0.0714
  471loPI   C5A 7531   0.324  16.218   8.595 -0.0850  0.0521  0.2135
  471loPI   C6A 7532   0.007  16.038   8.322  0.2356 -0.1767  0.3199
  471loPI   C1B 7533  -0.098  16.230  10.024 -0.2426  0.1564 -0.0209
  471loPI   C2B 7534   0.018  16.276   9.537 -0.0014 -0.0634 -0.3608
  471loPI   C3B 7535  -0.107  16.389   9.144 -0.0103  0.0605 -0.2512
  471loPI   C4B 7536  -0.155  16.272   8.758 -0.1614  0.0353 -0.3830
  472loPI    C1 7537  12.641   8.497  11.227  0.0030 -0.0537 -0.2582
  472loPI    C2 7538  12.652   8.198  11.492 -0.3101  0.0037 -0.1766
  472loPI    C3 7539  12.975   8.426  11.435 -0.2073 -0.0744  0.0797
  472loPI   PO4 7540  12.457   8.434  11.134  0.0573  0.3597  0.0427
  472loPI   GL1 7541  12.625   8.388  10.656  0.1826 -0.2020 -0.3056
  472loPI   GL2 7542  12.902   8.318  10.473  0.0596  0.2121 -0.1657
  472loPI   C1A 7543  12.650   8.711  10.247  0.2043  0.0974 -0.2286
  472loPI   C2A 7544  12.863   8.798   9.804  0.0665  0.3933  0.0511
  472loPI   C3A 7545  12.872   8.722   9.433 -0.0699 -0.0094  0.0625
  472loPI   C4A 7546  13.047   8.927   9.030  0.1183 -0.0255 -0.3150
  472loPI   C5A 7547  13.127   8.808   8.564 -0.4400 -0.0229 -0.4334
  472loPI   C6A 7548  13.209   8.858   8.141 -0.2101 -0.3729 -0.2278
  472loPI   C1B 7549  12.884   8.311  10.047  0.0463  0.1564  0.1379
  472loPI   C2B 7550  13.125   8.340   9.678  0.1076 -0.0836  0.0794
  472loPI   C3B 7551  13.209   8.321   9.154 -0.0135 -0.2988 -0.3513
  472loPI   C4B 7552  13.210   8.190   8.773 -0.0761  0.1930  0.0769
  473loPI    C1 7553  16.504   8.901  11.038  0.0884 -0.0555 -0.0519
  473loPI    C2 7554  16.635   9.094  11.363  0.0380 -0.1232  0.0092
  473loPI    C3 7555  16.244   9.028  11.314  0.0655 -0.3219  0.0522
  473loPI   PO4 7556  16.735   8.995  10.906 -0.4719 -0.0040  0.1594
  473loPI   GL1 7557  16.913   8.766  10.381  0.0803 -0.1217 -0.1641
  473loPI   GL2 7558  16.622   8.709  10.548  0.4022 -0.0164  0.2586
  473loPI   C1A 7559  16.904   8.630  10.045  0.1470  0.2909 -0.1164
  473loPI   C2A 7560  16.938   8.578   9.608 -0.0903 -0.0877  0.1345
  473loPI   C3A 7561  16.945   8.474   9.212  0.2299 -0.0232  0.0796
  473loPI   C4A 7562  16.901   8.506   8.837  0.1495 -0.0350  0.1830
  473loPI   C5A 7563  16.559   8.609   8.655 -0.0028 -0.2093  0.1076
  473loPI   C6A 7564  16.422   8.807   8.282 -0.0700  0.0759  0.2372
  473loPI   C1B 7565  16.413   8.714  10.181 -0.3254  0.1457  0.0413
  473loPI   C2B 7566  16.462   8.695   9.821  0.2490  0.3922  0.0808
  473loPI   C3B 7567  16.469   8.565   9.480 -0.0577 -0.2376 -0.1013
  473loPI   C4B 7568  16.398   8.717   9.151  0.0108  0.2679  0.1419
  474loPI    C1 7569  17.340   9.687  10.591  0.2115  0.0984 -0.1681
  474loPI    C2 7570  17.584   9.390  10.480 -0.0534 -0.1512 -0.0951
  474loPI    C3 7571  17.495   9.442  10.866 -0.1447 -0.0843 -0.1245
  474loPI   PO4 7572  17.476   9.912  10.595 -0.0074  0.2298 -0.1641
  474loPI   GL1 7573  17.866   9.944  10.306 -0.1347  0.0340 -0.0708
  474loPI   GL2 7574  17.638   9.712  10.148  0.0663  0.1745  0.0671
  474loPI   C1A 7575  18.013   9.943   9.891  0.0340 -0.1184  0.0911
  474loPI   C2A 7576  17.994   9.869   9.484 -0.0797  0.2049  0.0592
  474loPI   C3A 7577  17.887   9.820   9.114 -0.0646 -0.0598 -0.0531
  474loPI   C4A 7578  17.945   9.738   8.661 -0.2033  0.0928 -0.0631
  474loPI   C5A 7579  18.004   9.836   8.234  0.0870 -0.2286  0.4778
  474loPI   C6A 7580  18.005  10.124   7.971  0.0191  0.2110 -0.0268
  474loPI   C1B 7581  17.499   9.696   9.709 -0.2304 -0.0691 -0.1203
  474loPI   C2B 7582  17.638   9.504   9.378 -0.2315  0.3392 -0.3601
  474loPI   C3B 7583  17.568   9.394   8.996 -0.2709  0.0716 -0.2433
  474loPI   C4B 7584  17.509   9.270   8.553  0.2048 -0.4453  0.0965
  475loPI    C1 7585   9.755  17.587  11.105  0.0118  0.0024 -0.0243
  475loPI    C2 7586   9.413  17.791  11.138 -0.0988 -0.1482 -0.2172
  475loPI    C3 7587   9.493  17.494  11.393 -0.0614 -0.0424 -0.1049
  475loPI   PO4 7588   9.828  17.710  10.842 -0.0638  0.0737 -0.0423
  475loPI   GL1 7589   9.838  17.554  10.449 -0.0988 -0.0460  0.1220
  475loPI   GL2 7590   9.500  17.624  10.411 -0.1444  0.1074 -0.2416
  475loPI   C1A 7591  10.010  17.688  10.048  0.1556 -0.1646 -0.0202
  475loPI   C2A 7592  10.127  17.813   9.674 -0.2036 -0.0050  0.1154
  475loPI   C3A 7593  10.173  17.824   9.244 -0.2551  0.1361 -0.1953
  475loPI   C4A 7594  10.255  17.861   8.827 -0.0260 -0.1958  0.1193
  475loPI   C5A 7595  10.183  17.931   8.322 -0.4501  0.2242  0.3557
  475loPI   C6A 7596  10.208  17.672   8.011 -0.5008 -0.1225  0.1415
  475loPI   C1B 7597   9.539  17.802  10.001  0.0996  0.0528 -0.1141
  475loPI   C2B 7598   9.572  17.908   9.538 -0.0747  0.0323 -0.0412
  475loPI   C3B 7599   9.707  17.924   9.077 -0.0389 -0.4077  0.0565
  475loPI   C4B 7600   9.723  17.906   8.629  0.1348 -0.3353 -0.0867
  476loPI    C1 7601   6.404   7.660  10.854 -0.4658 -0.1197  0.0918
  476loPI    C2 7602   6.135   7.910  11.012 -0.2589  0.1107  0.0866
  476loPI    C3 7603   6.525   7.971  11.075 -0.2040 -0.1967  0.0606
  476loPI   PO4 7604   6.326   7.636  10.602 -0.1249 -0.1027  0.0185
  476loPI   GL1 7605   6.356   7.769  10.150 -0.0340  0.2546 -0.0415
  476loPI   GL2 7606   6.423   8.163  10.082  0.4921  0.1242 -0.1476
  476loPI   C1A 7607   6.062   7.877   9.835 -0.4004  0.1662  0.2564
  476loPI   C2A 7608   5.987   7.941   9.459 -0.0170  0.0854  0.1568
  476loPI   C3A 7609   5.864   7.846   9.062  0.3766  0.0290  0.1124
  476loPI   C4A 7610   5.934   7.719   8.674  0.0117  0.1439  0.0548
  476loPI   C5A 7611   6.140   7.693   8.350  0.1886  0.2187 -0.0901
  476loPI   C6A 7612   6.017   7.481   8.113  0.1139 -0.1238 -0.0335
  476loPI   C1B 7613   6.327   8.335   9.645  0.0608 -0.0023 -0.0494
  476loPI   C2B 7614   6.289   8.265   9.174 -0.2577  0.1848 -0.2821
  476loPI   C3B 7615   6.198   8.244   8.796 -0.0880 -0.0742  0.0382
  476loPI   C4B 7616   6.253   8.205   8.351  0.0719  0.1395 -0.1518
  477loPI    C1 7617  13.472  15.830  11.456 -0.0350 -0.0128 -0.0826
  477loPI    C2 7618  13.860  15.752  11.518 -0.0982 -0.3293 -0.0677
  477loPI    C3 7619  13.608  15.775  11.828 -0.0150  0.3369 -0.0356
  477loPI   PO4 7620  13.472  15.780  11.207  0.2627  0.2126  0.2507
  477loPI   GL1 7621  13.535  15.893  10.829  0.1495  0.5219  0.2191
  477loPI   GL2 7622  13.525  15.669  10.612 -0.1269  0.1195 -0.1295
  477loPI   C1A 7623  13.968  15.826  10.564 -0.1404 -0.4679 -0.0270
  477loPI   C2A 7624  14.157  15.627  10.131  0.1215  0.2372  0.1458
  477loPI   C3A 7625  14.269  15.592   9.689  0.2746 -0.1371  0.1585
  477loPI   C4A 7626  14.433  15.674   9.259 -0.0605 -0.0914  0.2541
  477loPI   C5A 7627  14.262  15.751   8.954  0.1452  0.1269 -0.0350
  477loPI   C6A 7628  14.138  15.651   8.594 -0.0901  0.0917  0.1079
  477loPI   C1B 7629  13.662  15.728  10.153  0.3944  0.4458 -0.2449
  477loPI   C2B 7630  13.714  15.660   9.735  0.0445  0.0867 -0.3238
  477loPI   C3B 7631  13.855  15.710   9.348 -0.1582  0.1707 -0.0792
  477loPI   C4B 7632  13.774  15.826   8.938  0.0374 -0.2627 -0.2179
  478loPI    C1 7633   5.145  15.886  10.907  0.2578 -0.0946 -0.0045
  478loPI    C2 7634   5.385  16.129  11.115 -0.0128  0.2846 -0.1231
  478loPI    C3 7635   5.068  16.278  10.922  0.0598 -0.1035 -0.5606
  478loPI   PO4 7636   5.267  15.725  10.772 -0.0959 -0.1332 -0.2299
  478loPI   GL1 7637   5.166  15.757  10.377  0.1119 -0.0447 -0.3284
  478loPI   GL2 7638   5.085  16.036  10.396 -0.2794 -0.3548 -0.1156
  478loPI   C1A 7639   5.098  15.889   9.869 -0.0112  0.2732 -0.6082
  478loPI   C2A 7640   5.046  15.908   9.408  0.0807 -0.0570 -0.1281
  478loPI   C3A 7641   4.960  15.814   9.012  0.0750 -0.1243  0.1502
  478loPI   C4A 7642   4.987  15.964   8.580 -0.2083 -0.1315 -0.0920
  478loPI   C5A 7643   4.719  15.975   8.107 -0.2712  0.1951  0.3045
  478loPI   C6A 7644   4.598  16.159   7.681 -0.5575  0.0564 -0.1144
  478loPI   C1B 7645   5.346  16.254  10.070 -0.2141  0.0606 -0.1327
  478loPI   C2B 7646   5.321  16.243   9.606 -0.5149  0.1723 -0.3096
  478loPI   C3B 7647   5.313  16.241   9.146 -0.0577  0.0872 -0.0333
  478loPI   C4B 7648   5.318  16.304   8.737  0.3533  0.0152  0.0835
  479loPI    C1 7649   9.400   6.097  10.407 -0.1037  0.0975  0.0017
  479loPI    C2 7650   9.644   6.290  10.659  0.0319 -0.0417 -0.0214
  479loPI    C3 7651   9.381   6.024  10.800  0.1016 -0.1131 -0.0257
  479loPI   PO4 7652   9.514   6.003  10.180  0.0063  0.1109 -0.2920
  479loPI   GL1 7653   9.913   5.928   9.941  0.0635  0.1667  0.0319
  479loPI   GL2 7654   9.916   5.642  10.001 -0.3071  0.1904  0.2073
  479loPI   C1A 7655   9.798   5.786   9.483  0.0565  0.1918  0.0002
  479loPI   C2A 7656   9.652   5.729   9.010 -0.2553 -0.0283  0.0221
  479loPI   C3A 7657   9.705   5.781   8.536  0.2377 -0.0451  0.1000
  479loPI   C4A 7658  10.036   5.756   8.260  0.0117 -0.0855 -0.1476
  479loPI   C5A 7659  10.294   5.866   7.905 -0.0118 -0.2144 -0.0342
  479loPI   C6A 7660  10.434   5.709   7.584 -0.3323  0.4836 -0.1856
  479loPI   C1B 7661  10.063   5.423   9.593 -0.2630 -0.2814  0.1060
  479loPI   C2B 7662  10.121   5.423   9.237 -0.3261  0.2113  0.3294
  479loPI   C3B 7663  10.275   5.204   8.827  0.2929  0.0467 -0.1965
  479loPI   C4B 7664  10.663   5.123   8.704  0.0485  0.0184  0.0919
  480loPI    C1 7665  10.474  10.407  10.624  0.1631  0.0047  0.1664
  480loPI    C2 7666  10.477  10.190  10.960  0.1181 -0.0631  0.1235
  480loPI    C3 7667  10.169  10.434  10.882  0.0224 -0.2134  0.0268
  480loPI   PO4 7668  10.658  10.170  10.445 -0.0288 -0.0161 -0.1032
  480loPI   GL1 7669  10.911  10.071  10.095  0.1797 -0.1047  0.2705
  480loPI   GL2 7670  10.916   9.780  10.056 -0.1854 -0.0019 -0.2436
  480loPI   C1A 7671  11.103   9.977   9.608  0.0800 -0.0439  0.2156
  480loPI   C2A 7672  11.088  10.038   9.186  0.0510 -0.1412 -0.0851
  480loPI   C3A 7673  11.103  10.146   8.734  0.1286  0.2100 -0.2073
  480loPI   C4A 7674  11.260  10.047   8.368  0.1331 -0.0116  0.0047
  480loPI   C5A 7675  11.065  10.038   7.964  0.3930  0.3391 -0.1928
  480loPI   C6A 7676  10.986  10.361   7.728 -0.0008 -0.1921  0.0565
  480loPI   C1B 7677  10.621   9.878   9.633  0.0135 -0.2189  0.1530
  480loPI   C2B 7678  10.610   9.919   9.164 -0.4037 -0.1291 -0.3325
  480loPI   C3B 7679  10.567  10.065   8.711  0.3682 -0.1480 -0.1004
  480loPI   C4B 7680  10.731  10.098   8.378 -0.0174  0.0854 -0.0904
  481loPI    C1 7681   8.958   0.643  10.765 -0.2669 -0.0698 -0.0010
  481loPI    C2 7682   9.050   0.628  11.154  0.0237 -0.0262 -0.0659
  481loPI    C3 7683   8.678   0.546  11.034 -0.0728 -0.0223  0.2221
  481loPI   PO4 7684   9.248   0.492  10.626 -0.2884 -0.0938 -0.1443
  481loPI   GL1 7685   9.380   0.504  10.355 -0.0577 -0.2131 -0.2414
  481loPI   GL2 7686   9.318   0.066  10.293  0.1365  0.0994  0.0283
  481loPI   C1A 7687   9.664   0.576  10.062  0.0999 -0.3495 -0.0968
  481loPI   C2A 7688   9.653   0.621   9.619  0.3169 -0.1660 -0.2009
  481loPI   C3A 7689   9.778   0.779   9.204  0.2092  0.1325  0.0959
  481loPI   C4A 7690   9.868   0.744   8.803 -0.1556  0.1647  0.1625
  481loPI   C5A 7691   9.866   0.669   8.361 -0.0960  0.1224  0.0211
  481loPI   C6A 7692   9.606   0.419   8.130  0.2156  0.1110 -0.2125
  481loPI   C1B 7693   9.354   0.236   9.825  0.3493  0.3754  0.0947
  481loPI   C2B 7694   9.363   0.302   9.394 -0.2903 -0.0140  0.2593
  481loPI   C3B 7695   9.484   0.329   8.989 -0.0924 -0.0522 -0.0576
  481loPI   C4B 7696   9.467   0.283   8.614  0.2167  0.1361 -0.0640
  482loPI    C1 7697  11.815  14.432  10.705 -0.2175 -0.0244  0.1768
  482loPI    C2 7698  12.159  14.614  10.796 -0.1153 -0.0949 -0.0606
  482loPI    C3 7699  11.893  14.534  11.084 -0.0677  0.2319  0.0793
  482loPI   PO4 7700  11.836  14.307  10.466 -0.0955  0.2484 -0.1751
  482loPI   GL1 7701  12.028  14.231  10.144  0.1458 -0.0254  0.1296
  482loPI   GL2 7702  12.280  13.950  10.088  0.0203 -0.1209 -0.0116
  482loPI   C1A 7703  12.088  14.380   9.743 -0.1442 -0.0762  0.0779
  482loPI   C2A 7704  12.246  14.545   9.396 -0.1648 -0.1861  0.0598
  482loPI   C3A 7705  12.327  14.551   8.975  0.1082  0.0438 -0.0522
  482loPI   C4A 7706  12.451  14.627   8.552 -0.3686  0.2886 -0.0070
  482loPI   C5A 7707  12.434  14.543   8.140  0.1066  0.0294  0.2445
  482loPI   C6A 7708  12.757  14.436   7.829  0.1804  0.3118  0.5390
  482loPI   C1B 7709  12.304  13.922   9.641 -0.1532 -0.2597  0.0995
  482loPI   C2B 7710  12.488  14.142   9.235  0.2755 -0.0596  0.4033
  482loPI   C3B 7711  12.527  14.039   8.781 -0.0880 -0.3151  0.3078
  482loPI   C4B 7712  12.676  14.205   8.431 -0.2363 -0.2246  0.2026
  483loPI    C1 7713  11.630  16.912  10.604 -0.0736 -0.0866  0.1694
  483loPI    C2 7714  11.978  17.103  10.656 -0.2051  0.1672  0.1288
  483loPI    C3 7715  11.896  16.774  10.869  0.1414 -0.0076 -0.0023
  483loPI   PO4 7716  11.435  17.117  10.578  0.0640  0.2432  0.0855
  483loPI   GL1 7717  11.551  17.469  10.249 -0.0333  0.1908  0.0393
  483loPI   GL2 7718  11.679  17.239  10.178  0.0050  0.4682 -0.1428
  483loPI   C1A 7719  11.426  17.886  10.154 -0.0330 -0.1840 -0.1937
  483loPI   C2A 7720  11.408  18.053   9.751  0.0098  0.1336  0.0336
  483loPI   C3A 7721  11.491  18.021   9.286  0.1208  0.2385 -0.1587
  483loPI   C4A 7722  11.588  18.063   8.823  0.1085  0.2457  0.0849
  483loPI   C5A 7723  11.623  17.814   8.513  0.0991  0.0646 -0.0931
  483loPI   C6A 7724  11.595  17.572   8.061  0.0614 -0.1987 -0.0909
  483loPI   C1B 7725  11.759  17.425   9.747  0.1152  0.1546  0.2534
  483loPI   C2B 7726  11.814  17.452   9.385  0.1703  0.0003 -0.0341
  483loPI   C3B 7727  11.727  17.484   8.899 -0.2991  0.3123  0.3309
  483loPI   C4B 7728  11.661  17.269   8.463  0.1300 -0.2601 -0.0080
  484loPI    C1 7729   0.122  11.345  11.212  0.0203 -0.2000 -0.3314
  484loPI    C2 7730   0.312  11.531  11.511 -0.2205 -0.1008 -0.2375
  484loPI    C3 7731  -0.083  11.472  11.531 -0.1517 -0.6136 -0.2706
  484loPI   PO4 7732   0.167  11.430  11.026  0.1979  0.0410  0.3918
  484loPI   GL1 7733  -0.031  11.507  10.694  0.1491  0.0679 -0.0446
  484loPI   GL2 7734  -0.225  11.251  10.517  0.0267  0.3966 -0.0306
  484loPI   C1A 7735   0.239  11.476  10.242 -0.1076  0.1339 -0.0322
  484loPI   C2A 7736   0.144  11.653   9.917  0.0282  0.3590  0.0365
  484loPI   C3A 7737   0.139  11.630   9.450  0.2069  0.0472 -0.2546
  484loPI   C4A 7738   0.091  11.676   8.942  0.2981  0.1325 -0.1380
  484loPI   C5A 7739  -0.039  11.651   8.514  0.2053 -0.0710 -0.1237
  484loPI   C6A 7740  -0.426  11.482   8.289  0.4680  0.0597 -0.0401
  484loPI   C1B 7741  -0.218  11.285   9.995 -0.0977  0.1484 -0.0040
  484loPI   C2B 7742  -0.256  11.354   9.607 -0.1952  0.2997  0.0448
  484loPI   C3B 7743  -0.262  11.329   9.111 -0.2837 -0.0517 -0.0153
  484loPI   C4B 7744  -0.175  11.141   8.595 -0.0364 -0.0314 -0.1135
  485loPI    C1 7745  17.530   1.013  11.383 -0.0628  0.0852  0.0430
  485loPI    C2 7746  17.568   1.080  11.776 -0.1665  0.1394  0.0442
  485loPI    C3 7747  17.273   1.256  11.570 -0.0363  0.2113 -0.0827
  485loPI   PO4 7748  17.594   1.120  11.183  0.0917 -0.0553  0.0926
  485loPI   GL1 7749  17.451   1.219  10.798 -0.0500  0.0427 -0.0626
  485loPI   GL2 7750  17.369   1.478  10.746 -0.0591  0.3261  0.0578
  485loPI   C1A 7751  17.339   1.077  10.450  0.0802  0.1813  0.0285
  485loPI   C2A 7752  17.370   1.102   9.997 -0.0135 -0.5229  0.0189
  485loPI   C3A 7753  17.329   1.213   9.569  0.1145 -0.2791 -0.1074
  485loPI   C4A 7754  17.421   1.224   9.183 -0.2416  0.2215  0.0498
  485loPI   C5A 7755  17.439   1.246   8.787 -0.1166 -0.2029 -0.5907
  485loPI   C6A 7756  17.341   1.062   8.427  0.0721 -0.3325 -0.2728
  485loPI   C1B 7757  17.171   1.524  10.312 -0.0825 -0.3496  0.1591
  485loPI   C2B 7758  17.261   1.625   9.799 -0.0948  0.2083  0.2693
  485loPI   C3B 7759  17.261   1.671   9.358  0.2099 -0.0676  0.3148
  485loPI   C4B 7760  17.155   1.788   8.922 -0.1732  0.0598 -0.2125
  486loPI    C1 7761  14.566   8.527  10.875  0.0799  0.4777  0.1798
  486loPI    C2 7762  14.949   8.430  10.815 -0.0895 -0.0658 -0.0920
  486loPI    C3 7763  14.773   8.345  11.164  0.0543  0.2631  0.0652
  486loPI   PO4 7764  14.362   8.440  10.652 -0.0147  0.1263  0.0959
  486loPI   GL1 7765  14.206   8.084  10.522  0.0797 -0.0050 -0.1291
  486loPI   GL2 7766  14.150   7.695  10.623  0.1282 -0.0604  0.0143
  486loPI   C1A 7767  14.107   8.226  10.106  0.3195 -0.0877 -0.1650
  486loPI   C2A 7768  14.245   8.101   9.706 -0.3699 -0.1534 -0.2690
  486loPI   C3A 7769  14.204   8.199   9.303  0.2808  0.0431  0.2296
  486loPI   C4A 7770  14.199   8.212   8.920  0.0018  0.1475 -0.1749
  486loPI   C5A 7771  14.006   8.145   8.517  0.2532 -0.0628  0.0915
  486loPI   C6A 7772  13.632   8.237   8.388 -0.0256  0.1198 -0.1829
  486loPI   C1B 7773  14.356   7.694  10.251 -0.2702  0.1254 -0.0383
  486loPI   C2B 7774  14.378   7.665   9.785  0.0312 -0.0036  0.1045
  486loPI   C3B 7775  14.395   7.706   9.379 -0.1571 -0.0270 -0.4488
  486loPI   C4B 7776  14.558   7.608   8.930  0.2034 -0.1234  0.1543
  487loPI    C1 7777   7.657  12.087  10.398  0.1596 -0.0403 -0.1021
  487loPI    C2 7778   7.307  11.969  10.243 -0.0821  0.3042  0.1647
  487loPI    C3 7779   7.426  11.830  10.599  0.1094  0.1016  0.0241
  487loPI   PO4 7780   7.756  12.200  10.125 -0.0206  0.1242 -0.3166
  487loPI   GL1 7781   7.786  12.164   9.679  0.0134 -0.1425  0.0408
  487loPI   GL2 7782   7.599  11.907   9.807 -0.0034  0.1180  0.0087
  487loPI   C1A 7783   7.781  12.142   9.248 -0.2650 -0.0794 -0.2785
  487loPI   C2A 7784   7.727  12.100   8.782  0.1294  0.1264 -0.1502
  487loPI   C3A 7785   7.528  12.173   8.403 -0.3027 -0.1784  0.3793
  487loPI   C4A 7786   7.477  12.108   7.932 -0.1053  0.1630  0.2076
  487loPI   C5A 7787   7.539  11.682   7.698  0.0886  0.2830 -0.2075
  487loPI   C6A 7788   7.503  11.291   7.549 -0.0244 -0.1436  0.1439
  487loPI   C1B 7789   7.406  11.870   9.400 -0.1305  0.2159  0.2507
  487loPI   C2B 7790   7.446  11.705   9.036  0.1126 -0.1308 -0.1711
  487loPI   C3B 7791   7.272  11.832   8.687  0.1329 -0.2942 -0.0702
  487loPI   C4B 7792   7.252  11.796   8.199  0.1687  0.2431 -0.0467
  488loPI    C1 7793   6.472  11.469  10.367  0.1343 -0.0366 -0.0199
  488loPI    C2 7794   6.176  11.223  10.475  0.0196  0.0770 -0.0738
  488loPI    C3 7795   6.233  11.565  10.673  0.0187  0.1272 -0.1597
  488loPI   PO4 7796   6.422  11.427  10.117 -0.0725 -0.2949  0.1006
  488loPI   GL1 7797   6.258  11.576   9.770 -0.1274  0.1747 -0.0598
  488loPI   GL2 7798   5.994  11.594   9.608 -0.0572  0.1274  0.1447
  488loPI   C1A 7799   6.457  11.505   9.383  0.0971 -0.1020  0.3616
  488loPI   C2A 7800   6.517  11.471   8.986 -0.0176  0.0405 -0.0894
  488loPI   C3A 7801   6.483  11.529   8.554  0.2943 -0.1257  0.0158
  488loPI   C4A 7802   6.375  11.534   8.139 -0.3263  0.1790  0.1649
  488loPI   C5A 7803   6.065  11.554   7.781 -0.1052 -0.0765 -0.0042
  488loPI   C6A 7804   6.034  11.227   7.520 -0.2065  0.2354 -0.0765
  488loPI   C1B 7805   6.023  11.529   9.089  0.2144 -0.1880  0.1734
  488loPI   C2B 7806   6.000  11.493   8.605 -0.1421 -0.0878 -0.0367
  488loPI   C3B 7807   5.903  11.637   8.265  0.1961 -0.0250 -0.0000
  488loPI   C4B 7808   5.690  11.820   7.979 -0.1854 -0.1442  0.1058
  489loPI    C1 7809  16.899   1.484  11.389  0.0239  0.1535 -0.1668
  489loPI    C2 7810  16.586   1.325  11.197 -0.0588  0.0521  0.0491
  489loPI    C3 7811  16.537   1.487  11.560  0.1467 -0.0010  0.1020
  489loPI   PO4 7812  17.014   1.647  11.186 -0.0949 -0.0536 -0.1496
  489loPI   GL1 7813  16.791   1.651  10.749  0.1656 -0.0691 -0.0571
  489loPI   GL2 7814  16.867   1.341  10.675  0.2392 -0.0612 -0.1019
  489loPI   C1A 7815  16.742   1.713  10.341  0.0174  0.0227 -0.0514
  489loPI   C2A 7816  16.573   1.751  10.030 -0.2508  0.0841 -0.0387
  489loPI   C3A 7817  16.749   1.750   9.716  0.3118  0.1646  0.3092
  489loPI   C4A 7818  16.744   1.850   9.293  0.1034  0.1065 -0.4317
  489loPI   C5A 7819  16.671   1.977   8.841  0.0601 -0.0801  0.0567
  489loPI   C6A 7820  16.595   2.018   8.466  0.1254  0.1073 -0.2262
  489loPI   C1B 7821  16.828   1.130  10.298 -0.0758 -0.1232  0.1032
  489loPI   C2B 7822  16.886   1.268   9.882  0.1935  0.0077 -0.3175
  489loPI   C3B 7823  16.899   1.280   9.391  0.1562  0.0643  0.1046
  489loPI   C4B 7824  16.934   1.318   9.020 -0.0499  0.0782 -0.2349
  490loPI    C1 7825   1.857  15.613  10.862 -0.0360  0.0557  0.0448
  490loPI    C2 7826   1.744  15.701  11.236  0.1506  0.3445  0.0361
  490loPI    C3 7827   1.468  15.634  10.954  0.0072  0.3857  0.1656
  490loPI   PO4 7828   2.000  15.712  10.740 -0.1124  0.1432  0.2043
  490loPI   GL1 7829   1.933  15.820  10.234 -0.0431 -0.0088 -0.0815
  490loPI   GL2 7830   2.045  15.489  10.160  0.0944  0.1449  0.2681
  490loPI   C1A 7831   1.990  16.007   9.863 -0.1194  0.2825 -0.0797
  490loPI   C2A 7832   1.901  16.032   9.563 -0.0981 -0.0209  0.2362
  490loPI   C3A 7833   1.909  15.969   9.143  0.1036  0.1199 -0.1781
  490loPI   C4A 7834   2.028  16.001   8.690 -0.0258 -0.0576 -0.2840
  490loPI   C5A 7835   1.969  16.047   8.280  0.0932 -0.2357  0.0338
  490loPI   C6A 7836   1.962  15.742   8.004 -0.0496  0.3815 -0.1122
  490loPI   C1B 7837   2.095  15.518   9.638 -0.1778 -0.1858  0.3025
  490loPI   C2B 7838   2.196  15.492   9.132 -0.2486  0.2571 -0.1568
  490loPI   C3B 7839   2.193  15.506   8.825  0.0823 -0.1678  0.1952
  490loPI   C4B 7840   2.183  15.592   8.389 -0.2040  0.0380 -0.1470
  491loPI    C1 7841  13.069  17.368  11.309 -0.2854 -0.1098  0.0314
  491loPI    C2 7842  13.140  17.739  11.439 -0.4671 -0.0040 -0.1629
  491loPI    C3 7843  13.253  17.425  11.659  0.1958  0.1555 -0.2537
  491loPI   PO4 7844  12.834  17.461  11.121  0.2586  0.2521 -0.2608
  491loPI   GL1 7845  12.562  17.614  10.732  0.1029  0.1291 -0.0001
  491loPI   GL2 7846  12.254  17.445  10.858 -0.1224 -0.1585  0.1667
  491loPI   C1A 7847  12.897  17.636  10.407 -0.0543  0.0707  0.0280
  491loPI   C2A 7848  13.015  17.744   9.856  0.3037 -0.0964 -0.1370
  491loPI   C3A 7849  13.070  17.670   9.421  0.0615 -0.1447 -0.0479
  491loPI   C4A 7850  13.096  17.779   8.981 -0.0911 -0.2561 -0.0418
  491loPI   C5A 7851  13.398  17.984   8.740  0.4122  0.0445  0.0912
  491loPI   C6A 7852  13.509  17.987   8.322 -0.2554  0.0684  0.1383
  491loPI   C1B 7853  12.282  17.422  10.404  0.0630 -0.3312  0.1327
  491loPI   C2B 7854  12.149  17.311  10.028  0.0088  0.0970 -0.0191
  491loPI   C3B 7855  12.213  17.294   9.651 -0.2161  0.0421 -0.1635
  491loPI   C4B 7856  12.254  17.393   9.136 -0.1692 -0.1094  0.1542
  492loPI    C1 7857   8.454   8.971  10.437  0.1800 -0.1892  0.1895
  492loPI    C2 7858   8.452   9.321  10.632  0.2523 -0.0687 -0.0229
  492loPI    C3 7859   8.609   8.997  10.805 -0.1388 -0.0835  0.3198
  492loPI   PO4 7860   8.595   9.045  10.188 -0.2208 -0.0720 -0.1590
  492loPI   GL1 7861   8.651   8.883   9.800  0.0947 -0.2224  0.1856
  492loPI   GL2 7862   8.948   8.848   9.729  0.3230  0.1093  0.0098
  492loPI   C1A 7863   8.470   8.663   9.489  0.1097  0.0253  0.1347
  492loPI   C2A 7864   8.506   8.665   9.011 -0.2979  0.0886  0.1642
  492loPI   C3A 7865   8.579   8.544   8.675 -0.1741 -0.2651  0.3206
  492loPI   C4A 7866   8.730   8.656   8.284  0.3310  0.3580 -0.2376
  492loPI   C5A 7867   8.910   8.439   8.069  0.0517 -0.0423  0.0194
  492loPI   C6A 7868   9.327   8.230   8.017  0.2442  0.0817  0.4634
  492loPI   C1B 7869   8.964   8.728   9.377 -0.1228  0.5351 -0.1554
  492loPI   C2B 7870   9.034   8.695   9.002 -0.0249  0.1729 -0.1558
  492loPI   C3B 7871   9.101   8.676   8.613 -0.2379  0.0607 -0.0033
  492loPI   C4B 7872   9.276   8.723   8.294 -0.4332 -0.0201  0.1308
  493loPI    C1 7873  10.745   4.533  10.894  0.1942  0.0332 -0.0757
  493loPI    C2 7874  10.584   4.889  10.810 -0.0563 -0.0608 -0.0005
  493loPI    C3 7875  10.819   4.847  11.130  0.1329  0.0802 -0.1187
  493loPI   PO4 7876  10.745   4.440  10.657  0.0015 -0.0760 -0.2842
  493loPI   GL1 7877  10.875   4.634  10.353  0.3513 -0.0176  0.1174
  493loPI   GL2 7878  10.611   4.802  10.318  0.1237 -0.0393  0.2994
  493loPI   C1A 7879  10.795   4.380   9.900 -0.1708  0.3142 -0.0751
  493loPI   C2A 7880  10.818   4.262   9.497  0.0823  0.0251  0.4338
  493loPI   C3A 7881  10.916   4.171   9.052 -0.2349 -0.2250 -0.0662
  493loPI   C4A 7882  10.937   4.025   8.642 -0.1271 -0.4131  0.3368
  493loPI   C5A 7883  10.898   3.667   8.451  0.0320 -0.0938 -0.1948
  493loPI   C6A 7884  10.546   3.371   8.344 -0.1494  0.1898  0.2528
  493loPI   C1B 7885  10.384   4.751   9.946  0.2716  0.1363  0.1864
  493loPI   C2B 7886  10.137   4.915   9.595  0.4048 -0.1161  0.4055
  493loPI   C3B 7887  10.006   4.948   9.208  0.1154 -0.0328 -0.2781
  493loPI   C4B 7888  10.272   4.681   8.873  0.2567 -0.3646 -0.1544
  494loPI    C1 7889   5.795   1.359  10.917  0.0781 -0.0013 -0.2398
  494loPI    C2 7890   5.949   1.286  11.279  0.0455 -0.0708 -0.2398
  494loPI    C3 7891   5.603   1.117  11.172  0.0067  0.0258 -0.2675
  494loPI   PO4 7892   5.946   1.268  10.729 -0.0905  0.0567 -0.3714
  494loPI   GL1 7893   6.043   1.325  10.467  0.1495 -0.1902  0.1110
  494loPI   GL2 7894   6.159   1.058  10.304  0.0254 -0.1111 -0.0893
  494loPI   C1A 7895   6.105   1.436   9.958  0.1568  0.0260 -0.1519
  494loPI   C2A 7896   6.182   1.340   9.561 -0.2430 -0.2336 -0.0408
  494loPI   C3A 7897   6.147   1.314   9.023 -0.0067  0.0392 -0.0116
  494loPI   C4A 7898   6.297   1.304   8.559  0.1093 -0.4028  0.2306
  494loPI   C5A 7899   6.478   1.021   8.229  0.1082 -0.0079  0.4382
  494loPI   C6A 7900   6.816   0.792   8.038 -0.0007  0.1699 -0.1664
  494loPI   C1B 7901   6.345   1.002   9.853  0.1613 -0.0965 -0.2146
  494loPI   C2B 7902   6.394   0.945   9.442 -0.3491  0.0960 -0.0229
  494loPI   C3B 7903   6.367   0.792   9.093 -0.0813 -0.1147  0.0194
  494loPI   C4B 7904   6.325   0.786   8.686 -0.0344 -0.1811  0.5438
  495loPI    C1 7905  13.554  18.028  11.322  0.2097  0.1102 -0.1460
  495loPI    C2 7906  13.584  17.879  11.693 -0.1828 -0.1952 -0.2289
  495loPI    C3 7907  13.549  18.274  11.638  0.0489 -0.1327  0.0449
  495loPI   PO4 7908  13.737  17.992  11.209  0.0314  0.2112  0.0345
  495loPI   GL1 7909  13.863  18.158  10.871 -0.1427  0.1856 -0.0635
  495loPI   GL2 7910  13.754  17.880  10.737 -0.2783  0.0658 -0.0166
  495loPI   C1A 7911  14.047  18.265  10.481  0.0597  0.1473 -0.0288
  495loPI   C2A 7912  14.210  18.376  10.085  0.0422  0.1355  0.3312
  495loPI   C3A 7913  14.200  18.345   9.625  0.2238  0.2611  0.0027
  495loPI   C4A 7914  14.295  18.397   9.212  0.1635  0.1624  0.3097
  495loPI   C5A 7915  14.447  18.285   8.832 -0.0954  0.2482 -0.1218
  495loPI   C6A 7916  14.738  18.490   8.526 -0.1981  0.1430 -0.1315
  495loPI   C1B 7917  13.810  17.851  10.304  0.0696  0.0015 -0.0831
  495loPI   C2B 7918  13.879  17.982   9.855  0.5115  0.2009 -0.2386
  495loPI   C3B 7919  13.902  17.899   9.373 -0.2033 -0.1070 -0.0828
  495loPI   C4B 7920  13.846  17.935   8.931 -0.1216 -0.0813  0.1943
  496loPI    C1 7921  16.767  12.816  11.091  0.0597  0.2980  0.1256
  496loPI    C2 7922  16.988  12.659  11.385  0.0932  0.1136  0.0038
  496loPI    C3 7923  16.608  12.763  11.454  0.0475 -0.0905  0.0678
  496loPI   PO4 7924  16.885  12.840  10.799  0.2845 -0.1793  0.0907
  496loPI   GL1 7925  16.574  12.963  10.490  0.0301  0.1494 -0.1277
  496loPI   GL2 7926  16.794  12.820  10.335  0.1821 -0.1270 -0.0420
  496loPI   C1A 7927  16.245  13.033  10.135  0.1304 -0.2585 -0.0482
  496loPI   C2A 7928  16.187  12.857   9.682  0.1063 -0.0480  0.1767
  496loPI   C3A 7929  16.240  12.864   9.253  0.1492 -0.4002 -0.3810
  496loPI   C4A 7930  16.309  12.897   8.870 -0.3673  0.2389  0.3543
  496loPI   C5A 7931  16.355  13.235   8.469  0.0983 -0.0118  0.0078
  496loPI   C6A 7932  16.583  13.608   8.420  0.0667 -0.1040 -0.0124
  496loPI   C1B 7933  16.707  12.807   9.930 -0.2851  0.0890 -0.0743
  496loPI   C2B 7934  16.787  12.810   9.460  0.3066 -0.3877  0.0626
  496loPI   C3B 7935  16.757  12.855   9.047  0.0163  0.1963  0.0884
  496loPI   C4B 7936  16.869  12.911   8.594  0.0166  0.1353 -0.2717
  497loPI    C1 7937   5.747   5.694  10.638 -0.0930 -0.1881 -0.0703
  497loPI    C2 7938   5.564   5.882  10.940 -0.2368 -0.0688 -0.2294
  497loPI    C3 7939   5.951   5.785  10.970 -0.2111  0.0777 -0.0677
  497loPI   PO4 7940   5.529   5.628  10.519 -0.0836 -0.3808  0.0535
  497loPI   GL1 7941   5.442   5.675  10.194 -0.1551 -0.1022  0.1785
  497loPI   GL2 7942   5.582   5.444  10.043  0.1355  0.0966  0.0986
  497loPI   C1A 7943   5.130   5.655   9.944 -0.4797  0.0787  0.0665
  497loPI   C2A 7944   5.068   5.663   9.545  0.0033 -0.0707 -0.0568
  497loPI   C3A 7945   4.964   5.603   9.154  0.3893  0.1412 -0.1790
  497loPI   C4A 7946   5.145   5.756   8.744 -0.0191  0.3246  0.0986
  497loPI   C5A 7947   4.876   5.839   8.440  0.0513  0.0868  0.1933
  497loPI   C6A 7948   4.605   5.964   8.139  0.1336 -0.2779 -0.0768
  497loPI   C1B 7949   5.441   5.362   9.699  0.0710 -0.4299 -0.0568
  497loPI   C2B 7950   5.394   5.288   9.257  0.0989  0.1321 -0.2937
  497loPI   C3B 7951   5.089   5.260   8.812  0.0128  0.1087  0.3350
  497loPI   C4B 7952   5.093   5.154   8.406 -0.1482 -0.3226  0.1745
  498loPI    C1 7953   9.941  11.281  10.375 -0.1019  0.2848  0.1983
  498loPI    C2 7954  10.130  11.633  10.362  0.2165  0.1140  0.1095
  498loPI    C3 7955  10.305  11.319  10.537 -0.0851  0.0092  0.2287
  498loPI   PO4 7956   9.792  11.302  10.102  0.0168 -0.0705  0.4401
  498loPI   GL1 7957   9.848  11.321   9.671  0.0377 -0.0523  0.0604
  498loPI   GL2 7958  10.164  11.140   9.517 -0.1306  0.3218 -0.0534
  498loPI   C1A 7959   9.653  11.168   9.330  0.0491 -0.0335  0.1971
  498loPI   C2A 7960   9.720  11.247   8.969 -0.0847 -0.0822 -0.3404
  498loPI   C3A 7961   9.637  11.272   8.480  0.1265 -0.0166 -0.3108
  498loPI   C4A 7962   9.510  11.222   8.003 -0.1028  0.0658  0.2613
  498loPI   C5A 7963   9.393  11.017   7.548 -0.4354 -0.2310 -0.0641
  498loPI   C6A 7964   9.181  11.229   7.270 -0.0180  0.1251 -0.1859
  498loPI   C1B 7965  10.186  11.343   9.191 -0.1972  0.0981  0.2107
  498loPI   C2B 7966  10.158  11.331   8.657 -0.2391 -0.1337 -0.1848
  498loPI   C3B 7967  10.123  11.250   8.199  0.1066  0.0372  0.2211
  498loPI   C4B 7968  10.088  11.077   7.838 -0.0799 -0.2411  0.3253
  499loPI    C1 7969   5.011  10.322  10.563 -0.0093  0.1018  0.0155
  499loPI    C2 7970   4.937  10.543  10.888 -0.0366 -0.1245  0.1654
  499loPI    C3 7971   5.022  10.154  10.926  0.0756 -0.1267 -0.0911
  499loPI   PO4 7972   4.866  10.393  10.361  0.0586  0.1779 -0.1317
  499loPI   GL1 7973   4.461  10.409  10.182 -0.2333 -0.0066  0.1497
  499loPI   GL2 7974   4.125  10.381  10.391  0.3978  0.1389 -0.0916
  499loPI   C1A 7975   4.477  10.404   9.778  0.2442 -0.0286  0.1100
  499loPI   C2A 7976   4.463  10.493   9.327  0.3329 -0.0133  0.1104
  499loPI   C3A 7977   4.519  10.399   8.822 -0.0558  0.2493  0.1835
  499loPI   C4A 7978   4.431  10.442   8.464 -0.1043 -0.0119 -0.4184
  499loPI   C5A 7979   4.497  10.165   8.054  0.0175 -0.0851  0.1209
  499loPI   C6A 7980   4.620  10.165   7.645 -0.0296 -0.0976 -0.0337
  499loPI   C1B 7981   3.998  10.560  10.001  0.0262 -0.1177 -0.0907
  499loPI   C2B 7982   3.992  10.484   9.596  0.1000 -0.0539 -0.2907
  499loPI   C3B 7983   3.971  10.510   9.090  0.1085 -0.1395 -0.1229
  499loPI   C4B 7984   3.879  10.453   8.708 -0.1662  0.3622  0.1129
  500loPI    C1 7985   3.347  18.019  11.452  0.1935  0.0782  0.1919
  500loPI    C2 7986   3.320  18.405  11.555 -0.5563  0.0404  0.1874
  500loPI    C3 7987   3.242  18.120  11.824 -0.0549 -0.1155  0.1767
  500loPI   PO4 7988   3.238  17.970  11.138  0.0362 -0.1334 -0.0450
  500loPI   GL1 7989   3.364  18.004  10.632 -0.1666 -0.2133 -0.0319
  500loPI   GL2 7990   3.493  17.808  10.619  0.1094 -0.1482 -0.0004
  500loPI   C1A 7991   3.190  18.164  10.269  0.3088 -0.1494  0.2089
  500loPI   C2A 7992   3.280  18.059   9.811  0.1056  0.0282  0.2033
  500loPI   C3A 7993   3.247  17.899   9.367  0.0057  0.2491 -0.2783
  500loPI   C4A 7994   3.300  17.971   9.026 -0.3476  0.3445 -0.3164
  500loPI   C5A 7995   3.423  18.051   8.608  0.1973  0.0169  0.0707
  500loPI   C6A 7996   3.469  17.883   8.119  0.1335  0.1507  0.0110
  500loPI   C1B 7997   3.629  17.970  10.167 -0.2795 -0.1100 -0.2164
  500loPI   C2B 7998   3.830  17.976   9.696 -0.0035  0.1859 -0.0619
  500loPI   C3B 7999   3.736  17.924   9.333 -0.1065 -0.2099  0.0456
  500loPI   C4B 8000   3.809  17.839   8.916  0.4080  0.2818  0.2136
  501loPI    C1 8001  14.055  10.233  11.017 -0.0046  0.1312  0.0865
  501loPI    C2 8002  14.190  10.351  11.374  0.0202 -0.0799  0.1480
  501loPI    C3 8003  14.303   9.998  11.225 -0.0062 -0.0016 -0.0601
  501loPI   PO4 8004  14.015  10.489  10.814  0.0113 -0.0184 -0.4973
  501loPI   GL1 8005  13.989  10.543  10.444  0.0084 -0.1223  0.0528
  501loPI   GL2 8006  13.777  10.717  10.398  0.0543 -0.3354 -0.0191
  501loPI   C1A 8007  14.100  10.537   9.953  0.1365 -0.1372 -0.2182
  501loPI   C2A 8008  14.233  10.488   9.522  0.1346  0.0792 -0.0762
  501loPI   C3A 8009  14.358  10.417   9.110 -0.1678 -0.1800 -0.4014
  501loPI   C4A 8010  14.318  10.524   8.616 -0.2630 -0.2345 -0.1769
  501loPI   C5A 8011  14.437  10.797   8.376  0.0029 -0.2890  0.2276
  501loPI   C6A 8012  14.371  10.959   7.966  0.1338 -0.2366  0.0658
  501loPI   C1B 8013  13.588  10.573  10.096  0.3668 -0.1706  0.0132
  501loPI   C2B 8014  13.663  10.539   9.662 -0.1657  0.3901 -0.0464
  501loPI   C3B 8015  13.802  10.546   9.294 -0.6406 -0.1276 -0.2186
  501loPI   C4B 8016  13.874  10.617   8.937  0.1533 -0.0042 -0.1263
  502loPI    C1 8017  14.127   7.725  11.401 -0.1742  0.1087 -0.0718
  502loPI    C2 8018  13.952   7.558  11.719  0.1287  0.0403  0.0625
  502loPI    C3 8019  14.134   7.913  11.754  0.0750  0.0806 -0.0602
  502loPI   PO4 8020  14.013   7.638  11.160  0.1352  0.0101 -0.0142
  502loPI   GL1 8021  14.108   7.265  10.866 -0.2926 -0.1989 -0.1006
  502loPI   GL2 8022  14.401   7.183  10.726 -0.0173 -0.0782  0.1354
  502loPI   C1A 8023  13.978   7.203  10.479 -0.1453  0.1032 -0.0004
  502loPI   C2A 8024  14.096   7.300  10.008 -0.2040 -0.0587 -0.1306
  502loPI   C3A 8025  14.041   7.395   9.549  0.1881  0.2647  0.0802
  502loPI   C4A 8026  14.146   7.266   9.178  0.0020  0.0167 -0.3848
  502loPI   C5A 8027  14.140   7.346   8.747 -0.1707  0.1223  0.0835
  502loPI   C6A 8028  14.235   7.669   8.460 -0.2175 -0.3177 -0.1296
  502loPI   C1B 8029  14.480   7.224  10.344 -0.0258 -0.1053 -0.2979
  502loPI   C2B 8030  14.567   7.238  10.072  0.0774  0.0565 -0.3319
  502loPI   C3B 8031  14.561   7.137   9.536  0.3171  0.0974  0.0871
  502loPI   C4B 8032  14.723   7.166   9.089  0.0015  0.0819 -0.0519
  503loPI    C1 8033  16.885   4.189  11.661 -0.0035  0.2662 -0.0194
  503loPI    C2 8034  17.010   4.397  11.979 -0.1559  0.1175  0.1407
  503loPI    C3 8035  16.620   4.325  11.929 -0.1144 -0.0352  0.0285
  503loPI   PO4 8036  16.921   4.245  11.446 -0.0010  0.3773  0.2229
  503loPI   GL1 8037  16.859   4.465  11.045  0.0112  0.3090 -0.2513
  503loPI   GL2 8038  17.025   4.293  10.814  0.0809 -0.1148  0.1494
  503loPI   C1A 8039  16.730   4.555  10.500  0.2155 -0.1503 -0.1910
  503loPI   C2A 8040  16.631   4.524  10.081 -0.1136 -0.0347  0.0996
  503loPI   C3A 8041  16.608   4.554   9.713 -0.0263 -0.1057  0.2771
  503loPI   C4A 8042  16.641   4.489   9.264 -0.1937  0.0468 -0.4519
  503loPI   C5A 8043  16.673   4.368   8.797 -0.3399 -0.0597  0.1989
  503loPI   C6A 8044  17.046   4.213   8.496  0.0338  0.3541 -0.0201
  503loPI   C1B 8045  17.168   4.358  10.350 -0.0210  0.2549 -0.0502
  503loPI   C2B 8046  17.077   4.488   9.948 -0.0587 -0.1033  0.0627
  503loPI   C3B 8047  17.063   4.376   9.545 -0.2638 -0.1142  0.0767
  503loPI   C4B 8048  17.153   4.467   9.082 -0.1899  0.2001 -0.0234
  504loPI    C1 8049   8.789   2.733  10.988 -0.1099 -0.2053 -0.1250
  504loPI    C2 8050   9.139   2.714  11.179 -0.1558  0.1332 -0.0008
  504loPI    C3 8051   8.962   2.379  11.054  0.0380 -0.0682  0.2524
  504loPI   PO4 8052   8.821   2.981  10.773 -0.1696 -0.3289 -0.0395
  504loPI   GL1 8053   8.515   2.965  10.398  0.1546 -0.0296  0.0937
  504loPI   GL2 8054   8.612   3.179  10.175 -0.0215  0.2983 -0.2963
  504loPI   C1A 8055   8.809   2.703  10.086  0.2575 -0.2359 -0.2882
  504loPI   C2A 8056   8.987   2.668   9.654  0.1319 -0.2572 -0.2250
  504loPI   C3A 8057   9.091   2.711   9.243  0.0968 -0.1485 -0.0349
  504loPI   C4A 8058   9.198   2.743   8.799 -0.0141 -0.2742 -0.2139
  504loPI   C5A 8059   9.406   2.933   8.492  0.0353  0.0250 -0.0507
  504loPI   C6A 8060   9.527   3.325   8.177 -0.1931 -0.1223 -0.1892
  504loPI   C1B 8061   8.670   3.167   9.696 -0.0988  0.0288 -0.0226
  504loPI   C2B 8062   8.858   3.113   9.377  0.0137 -0.2409 -0.0310
  504loPI   C3B 8063   8.739   3.085   8.938 -0.3107 -0.1640 -0.0317
  504loPI   C4B 8064   8.773   3.196   8.565  0.4492 -0.3614  0.0439
  505loPI    C1 8065   0.833   2.380  11.557  0.0203 -0.2565  0.0202
  505loPI    C2 8066   0.435   2.409  11.538  0.0707  0.3294 -0.4415
  505loPI    C3 8067   0.650   2.710  11.689  0.3539  0.1102 -0.3997
  505loPI   PO4 8068   0.873   2.431  11.311 -0.0075  0.1708  0.1112
  505loPI   GL1 8069   0.914   2.494  10.827 -0.0686  0.3142 -0.0194
  505loPI   GL2 8070   1.008   2.299  10.688 -0.1736  0.0090  0.0848
  505loPI   C1A 8071   0.757   2.737  10.505 -0.1406 -0.0745  0.0430
  505loPI   C2A 8072   0.787   2.705  10.110 -0.4854 -0.1851 -0.0811
  505loPI   C3A 8073   0.765   2.756   9.656 -0.1180 -0.0702 -0.0068
  505loPI   C4A 8074   0.633   2.784   9.179  0.0507  0.0432 -0.1530
  505loPI   C5A 8075   0.376   2.765   8.853  0.0333 -0.1754  0.0584
  505loPI   C6A 8076   0.393   3.046   8.510 -0.0300  0.2729 -0.2307
  505loPI   C1B 8077   0.894   2.263  10.250 -0.0283  0.2143 -0.2547
  505loPI   C2B 8078   0.919   2.258   9.799  0.2424 -0.0432 -0.1575
  505loPI   C3B 8079   0.874   2.301   9.350  0.3100 -0.0157 -0.4372
  505loPI   C4B 8080   0.608   2.330   8.909  0.1707  0.0233 -0.1324
  506loPI    C1 8081  10.791  12.156  10.446 -0.1211 -0.1896  0.1536
  506loPI    C2 8082  10.698  12.503  10.622  0.2218  0.0064 -0.0392
  506loPI    C3 8083  10.741  12.172  10.842  0.0492  0.1184  0.1664
  506loPI   PO4 8084  10.718  12.232  10.176  0.1581 -0.1427  0.1759
  506loPI   GL1 8085  10.919  12.341   9.806 -0.1658  0.1497  0.1047
  506loPI   GL2 8086  10.949  12.577   9.581  0.1010  0.3000  0.1692
  506loPI   C1A 8087  11.090  12.062   9.449  0.0200 -0.1427  0.2549
  506loPI   C2A 8088  11.121  12.046   8.983 -0.1517 -0.0638 -0.0247
  506loPI   C3A 8089  10.989  12.177   8.499  0.1264  0.1342 -0.0819
  506loPI   C4A 8090  10.935  12.270   8.045  0.1143 -0.0427 -0.0047
  506loPI   C5A 8091  10.528  12.090   7.819 -0.3319 -0.2454 -0.3645
  506loPI   C6A 8092  10.141  12.025   7.744 -0.2881 -0.2249 -0.2703
  506loPI   C1B 8093  10.942  12.638   9.213 -0.2005  0.2477  0.1041
  506loPI   C2B 8094  10.957  12.590   8.774  0.1005 -0.1082 -0.0955
  506loPI   C3B 8095  11.294  12.536   8.471  0.1739 -0.0362 -0.0331
  506loPI   C4B 8096  11.612  12.475   8.268  0.3414  0.1289  0.0668
  507loPI    C1 8097  15.912  11.004  10.948  0.1183 -0.0344  0.1946
  507loPI    C2 8098  15.653  11.183  11.194  0.0994  0.0198  0.1355
  507loPI    C3 8099  15.843  10.852  11.311 -0.1696 -0.1527  0.0933
  507loPI   PO4 8100  15.825  10.947  10.648 -0.2090  0.0181  0.0492
  507loPI   GL1 8101  15.791  11.094  10.272 -0.0593 -0.1295 -0.1145
  507loPI   GL2 8102  16.215  11.162  10.374  0.0289  0.2436 -0.0515
  507loPI   C1A 8103  15.950  11.083   9.823  0.2590  0.2842 -0.0616
  507loPI   C2A 8104  15.998  11.021   9.419 -0.0671 -0.1427  0.0992
  507loPI   C3A 8105  16.038  11.005   8.903 -0.0099  0.1002 -0.0116
  507loPI   C4A 8106  16.151  11.135   8.491  0.0894  0.0745 -0.1196
  507loPI   C5A 8107  16.422  10.952   8.221  0.3099 -0.0455 -0.1111
  507loPI   C6A 8108  16.679  10.653   8.068 -0.1426  0.0563  0.0934
  507loPI   C1B 8109  16.269  11.434  10.036  0.3608  0.0690  0.0389
  507loPI   C2B 8110  16.285  11.556   9.702 -0.0948 -0.0774 -0.2194
  507loPI   C3B 8111  16.243  11.403   9.267  0.0554  0.0950  0.1742
  507loPI   C4B 8112  16.264  11.448   8.854  0.0336 -0.0805 -0.0859
  508loPI    C1 8113  11.964   1.261  11.282 -0.1724  0.1417 -0.0684
  508loPI    C2 8114  12.271   1.486  11.158 -0.0235  0.0184  0.0727
  508loPI    C3 8115  12.042   1.610  11.462 -0.0351  0.0509  0.0505
  508loPI   PO4 8116  11.876   1.172  11.064 -0.3572  0.2271 -0.1456
  508loPI   GL1 8117  12.220   1.099  10.743 -0.2826 -0.4321  0.0182
  508loPI   GL2 8118  12.305   1.399  10.656  0.0363  0.4215 -0.0551
  508loPI   C1A 8119  12.463   1.049  10.345  0.1492 -0.1849  0.1352
  508loPI   C2A 8120  12.443   1.108   9.829 -0.1199 -0.1787 -0.0977
  508loPI   C3A 8121  12.535   1.038   9.388  0.0703 -0.1140  0.1410
  508loPI   C4A 8122  12.662   1.136   8.983  0.1282 -0.1222  0.1231
  508loPI   C5A 8123  12.734   1.012   8.592  0.0216 -0.0991  0.2551
  508loPI   C6A 8124  12.589   0.698   8.322  0.2725  0.0260 -0.0041
  508loPI   C1B 8125  12.008   1.303  10.278 -0.2008 -0.1536 -0.1793
  508loPI   C2B 8126  11.939   1.156   9.815 -0.0530  0.1674  0.0346
  508loPI   C3B 8127  11.933   1.189   9.379 -0.1982  0.3323  0.0987
  508loPI   C4B 8128  12.185   1.146   9.034 -0.0961  0.1372 -0.4845
  509loPI    C1 8129  13.480   3.245  11.152 -0.1501  0.1333 -0.1493
  509loPI    C2 8130  13.707   3.416  11.433 -0.2752  0.1910 -0.0826
  509loPI    C3 8131  13.309   3.449  11.450 -0.3069 -0.1828 -0.0185
  509loPI   PO4 8132  13.721   3.002  11.072  0.1914  0.2588 -0.0652
  509loPI   GL1 8133  13.874   2.853  10.778 -0.3283 -0.0196  0.3945
  509loPI   GL2 8134  13.760   2.650  10.513 -0.0106  0.0826 -0.1275
  509loPI   C1A 8135  14.105   2.985  10.555 -0.2662  0.1183  0.1110
  509loPI   C2A 8136  14.217   3.151  10.144  0.1042 -0.2862  0.0918
  509loPI   C3A 8137  14.191   3.030   9.750 -0.0581  0.1186  0.1995
  509loPI   C4A 8138  14.252   3.106   9.342  0.1240 -0.0321  0.1219
  509loPI   C5A 8139  14.301   3.035   8.890  0.2581  0.2062  0.0837
  509loPI   C6A 8140  14.113   3.055   8.553 -0.1540  0.1383 -0.0041
  509loPI   C1B 8141  13.847   2.634  10.097  0.4226  0.0225  0.2522
  509loPI   C2B 8142  13.840   2.684   9.723  0.1403  0.0281  0.0016
  509loPI   C3B 8143  13.923   2.745   9.240  0.1243 -0.2573 -0.1937
  509loPI   C4B 8144  13.937   2.616   8.839 -0.0712 -0.0121 -0.1893
  510loPI    C1 8145   8.133   4.024  10.270  0.1749 -0.0764  0.1232
  510loPI    C2 8146   8.211   3.731  10.530 -0.1262  0.0631  0.3773
  510loPI    C3 8147   8.201   4.111  10.655 -0.2350  0.1351  0.1534
  510loPI   PO4 8148   8.093   3.947  10.002 -0.1491 -0.0047  0.1069
  510loPI   GL1 8149   7.962   3.745   9.629 -0.0361 -0.0899 -0.1723
  510loPI   GL2 8150   7.742   3.535   9.629  0.1629 -0.0359 -0.0530
  510loPI   C1A 8151   8.115   3.873   9.287  0.1928  0.1845 -0.3643
  510loPI   C2A 8152   8.101   3.869   8.752 -0.1526  0.2725 -0.0739
  510loPI   C3A 8153   8.075   4.130   8.321  0.0436 -0.0499  0.1453
  510loPI   C4A 8154   7.941   4.358   8.000 -0.1377  0.2130 -0.0128
  510loPI   C5A 8155   8.112   4.568   7.701  0.1554 -0.0102  0.3264
  510loPI   C6A 8156   8.256   4.944   7.585  0.1245  0.1245  0.3388
  510loPI   C1B 8157   7.726   3.558   9.144 -0.3122  0.0026  0.0401
  510loPI   C2B 8158   7.766   3.478   8.719 -0.2560  0.1763 -0.0079
  510loPI   C3B 8159   7.864   3.712   8.308 -0.2338  0.1632  0.1109
  510loPI   C4B 8160   7.919   3.805   7.844  0.3224 -0.3334 -0.1049
  511loPI    C1 8161  12.860  14.558  10.902 -0.1532  0.0195 -0.1305
  511loPI    C2 8162  12.516  14.373  10.989 -0.1322  0.1104  0.1535
  511loPI    C3 8163  12.865  14.205  11.088 -0.0838 -0.0717 -0.3029
  511loPI   PO4 8164  12.761  14.561  10.592  0.0881 -0.2430  0.1309
  511loPI   GL1 8165  12.694  14.732  10.247  0.0506  0.0270  0.4808
  511loPI   GL2 8166  12.551  14.361  10.054  0.1616 -0.1717 -0.1056
  511loPI   C1A 8167  12.513  14.854   9.866 -0.3193 -0.0106  0.1014
  511loPI   C2A 8168  12.551  14.935   9.431 -0.1917  0.1816 -0.1486
  511loPI   C3A 8169  12.610  15.022   8.995  0.2055 -0.2650  0.3557
  511loPI   C4A 8170  12.820  15.095   8.580 -0.0607 -0.3793 -0.1392
  511loPI   C5A 8171  12.828  15.397   8.132  0.0055 -0.4445 -0.1349
  511loPI   C6A 8172  12.604  15.764   7.915  0.3129 -0.0479  0.1819
  511loPI   C1B 8173  12.683  14.424   9.691  0.0904  0.0138 -0.1739
  511loPI   C2B 8174  12.806  14.504   9.256  0.2186 -0.1026  0.1324
  511loPI   C3B 8175  12.898  14.630   8.838 -0.1204 -0.1604 -0.2661
  511loPI   C4B 8176  12.971  14.606   8.370  0.5134 -0.2092 -0.1311
  512loPI    C1 8177   4.881   7.274  10.480 -0.2003  0.0951 -0.0745
  512loPI    C2 8178   4.556   7.224  10.709  0.0271 -0.1888  0.1945
  512loPI    C3 8179   4.829   7.499  10.806 -0.0289 -0.0941  0.0859
  512loPI   PO4 8180   4.819   7.304  10.198 -0.0092  0.2793 -0.2470
  512loPI   GL1 8181   5.145   7.271   9.848 -0.1654  0.1000  0.0830
  512loPI   GL2 8182   5.221   7.608   9.846 -0.0068 -0.1193 -0.0243
  512loPI   C1A 8183   5.095   7.043   9.476 -0.1181  0.1221  0.1268
  512loPI   C2A 8184   4.997   7.149   9.011 -0.1765  0.2951  0.1396
  512loPI   C3A 8185   4.671   7.156   8.618 -0.1759 -0.3143 -0.1775
  512loPI   C4A 8186   4.937   7.045   8.249  0.1325  0.3804 -0.0621
  512loPI   C5A 8187   5.120   7.112   7.862  0.0475 -0.2048  0.0436
  512loPI   C6A 8188   5.364   6.937   7.623 -0.2050  0.2244 -0.1273
  512loPI   C1B 8189   5.177   7.617   9.464  0.0434  0.2194  0.3274
  512loPI   C2B 8190   5.175   7.648   9.025  0.0106 -0.0944  0.1735
  512loPI   C3B 8191   5.031   7.488   8.618 -0.0704  0.0448 -0.0955
  512loPI   C4B 8192   4.915   7.572   8.175 -0.0465  0.3023 -0.0816
  513loPI    C1 8193   6.147   0.707  10.671  0.0115 -0.1903 -0.0820
  513loPI    C2 8194   6.182   0.853  11.042 -0.0046 -0.0394 -0.1391
  513loPI    C3 8195   5.822   0.751  10.901  0.0289 -0.3153 -0.0324
  513loPI   PO4 8196   6.387   0.689  10.585 -0.0168  0.0495 -0.3540
  513loPI   GL1 8197   6.598   0.670  10.101  0.0177 -0.1585  0.0760
  513loPI   GL2 8198   6.740   0.904  10.100 -0.2853  0.0329 -0.0444
  513loPI   C1A 8199   6.553   0.558   9.696  0.0286 -0.2321  0.1050
  513loPI   C2A 8200   6.607   0.373   9.229 -0.0722  0.2412 -0.0231
  513loPI   C3A 8201   6.484   0.330   8.874  0.0842  0.4697 -0.0649
  513loPI   C4A 8202   6.506   0.315   8.504  0.1951  0.1339  0.1510
  513loPI   C5A 8203   6.445   0.393   8.094  0.2807 -0.2851  0.0293
  513loPI   C6A 8204   6.498   0.460   7.675  0.1108 -0.0462  0.3271
  513loPI   C1B 8205   6.905   0.959   9.855 -0.0182 -0.1001  0.3071
  513loPI   C2B 8206   6.878   0.781   9.433  0.0185 -0.0363  0.1124
  513loPI   C3B 8207   6.882   0.750   8.958  0.3555 -0.1216  0.1460
  513loPI   C4B 8208   6.788   0.671   8.528 -0.2677  0.1117 -0.1396
  514loPI    C1 8209  10.410   1.918  10.969  0.3040  0.0663  0.2202
  514loPI    C2 8210  10.177   1.755  11.250  0.0597  0.0643  0.0201
  514loPI    C3 8211  10.554   1.855  11.337  0.0078  0.0043  0.3288
  514loPI   PO4 8212  10.424   1.728  10.760  0.2621  0.1981 -0.0288
  514loPI   GL1 8213  10.414   1.377  10.603  0.0369  0.3362  0.3215
  514loPI   GL2 8214  10.500   1.095  10.657  0.0813  0.4534  0.1312
  514loPI   C1A 8215  10.512   1.459  10.068 -0.0047 -0.0842  0.1622
  514loPI   C2A 8216  10.447   1.404   9.598  0.1563 -0.0327 -0.0545
  514loPI   C3A 8217  10.525   1.483   9.149 -0.0421  0.0168  0.0353
  514loPI   C4A 8218  10.559   1.522   8.693  0.3025 -0.0522 -0.2993
  514loPI   C5A 8219  10.250   1.684   8.375 -0.1181  0.1765  0.1114
  514loPI   C6A 8220  10.437   1.861   8.024  0.0359  0.2004 -0.2829
  514loPI   C1B 8221  10.530   0.892  10.271  0.0772  0.2973  0.0187
  514loPI   C2B 8222  10.594   0.954   9.782  0.1246 -0.0038 -0.1513
  514loPI   C3B 8223  10.667   1.044   9.417  0.1532  0.4679 -0.1206
  514loPI   C4B 8224  10.752   1.029   9.059  0.0929  0.0256 -0.0607
  515loPI    C1 8225   1.940   8.318  10.889  0.1738  0.0191 -0.0597
  515loPI    C2 8226   2.094   8.588  11.141  0.3358 -0.0664 -0.0654
  515loPI    C3 8227   1.715   8.623  11.017  0.2522 -0.0280  0.1956
  515loPI   PO4 8228   2.036   8.313  10.646  0.2583 -0.1015 -0.3386
  515loPI   GL1 8229   2.034   8.177  10.152 -0.1753 -0.0310  0.0021
  515loPI   GL2 8230   2.232   8.484  10.230 -0.2015 -0.2665 -0.2598
  515loPI   C1A 8231   2.096   8.170   9.675  0.0075 -0.2054  0.0300
  515loPI   C2A 8232   1.996   8.110   9.339 -0.2580 -0.1592 -0.3048
  515loPI   C3A 8233   1.915   8.102   8.803  0.1363 -0.2373 -0.0391
  515loPI   C4A 8234   1.936   8.223   8.437 -0.2459  0.0313  0.2969
  515loPI   C5A 8235   1.730   8.682   8.268  0.0287 -0.3495  0.1042
  515loPI   C6A 8236   1.961   9.081   8.130 -0.0787 -0.0362  0.0470
  515loPI   C1B 8237   2.403   8.558   9.856  0.1562  0.1016  0.1206
  515loPI   C2B 8238   2.400   8.518   9.382  0.1196 -0.3950  0.2366
  515loPI   C3B 8239   2.201   8.440   8.981  0.0923 -0.0423  0.1602
  515loPI   C4B 8240   2.182   8.643   8.504  0.0970 -0.2178 -0.0277
  516loPI    C1 8241   8.918  17.767  10.913 -0.0115 -0.0197 -0.0634
  516loPI    C2 8242   9.049  17.454  11.124  0.0406  0.0826  0.0576
  516loPI    C3 8243   8.918  17.781  11.313 -0.2727  0.0306 -0.0631
  516loPI   PO4 8244   9.080  17.802  10.681  0.1465  0.0341 -0.0242
  516loPI   GL1 8245   8.978  17.717  10.363 -0.2100  0.0241  0.2316
  516loPI   GL2 8246   8.669  17.800  10.357  0.3240  0.0790  0.0940
  516loPI   C1A 8247   9.011  17.930   9.999  0.0365  0.0986  0.1377
  516loPI   C2A 8248   9.011  17.939   9.545 -0.3040 -0.1564 -0.2655
  516loPI   C3A 8249   9.121  17.961   9.136 -0.0578  0.3550 -0.1781
  516loPI   C4A 8250   9.178  17.919   8.719 -0.0922 -0.2096 -0.2083
  516loPI   C5A 8251   9.290  17.989   8.319  0.1389  0.0718 -0.1250
  516loPI   C6A 8252   9.711  17.957   8.121 -0.2391  0.0461 -0.3548
  516loPI   C1B 8253   8.328  17.828   9.992 -0.0023  0.1729  0.0111
  516loPI   C2B 8254   8.073  17.594   9.802  0.1221 -0.0945  0.0791
  516loPI   C3B 8255   7.842  17.413   9.470  0.1891  0.2335 -0.0035
  516loPI   C4B 8256   7.663  17.036   9.464  0.2607 -0.1457 -0.0052
  517loPI    C1 8257   7.423   7.655  10.436 -0.1134 -0.0693  0.0959
  517loPI    C2 8258   7.366   7.988  10.649 -0.0584  0.0703 -0.1054
  517loPI    C3 8259   7.737   7.856  10.580 -0.0796 -0.0234 -0.0408
  517loPI   PO4 8260   7.332   7.654  10.259 -0.0098 -0.0133 -0.2165
  517loPI   GL1 8261   7.518   7.762   9.889 -0.2073  0.1713  0.0169
  517loPI   GL2 8262   7.288   7.887   9.792  0.0010  0.0338 -0.1889
  517loPI   C1A 8263   7.514   7.534   9.542  0.3721 -0.0798 -0.0562
  517loPI   C2A 8264   7.444   7.611   9.160  0.2185 -0.1806  0.2260
  517loPI   C3A 8265   7.449   7.714   8.735  0.0165 -0.3523 -0.0176
  517loPI   C4A 8266   7.581   7.660   8.249 -0.1811 -0.0739 -0.2261
  517loPI   C5A 8267   7.706   7.487   7.912 -0.2269 -0.1868 -0.3938
  517loPI   C6A 8268   7.646   7.262   7.667 -0.1225  0.1372  0.2534
  517loPI   C1B 8269   7.321   8.017   9.446  0.0067  0.1340  0.0109
  517loPI   C2B 8270   7.305   8.100   9.004 -0.5950  0.1046  0.2818
  517loPI   C3B 8271   7.210   8.175   8.598  0.1043 -0.0579 -0.2048
  517loPI   C4B 8272   7.214   8.135   8.233 -0.1974 -0.2001 -0.0695
  518loPI    C1 8273   3.446   3.314  11.139  0.0736 -0.0667 -0.0354
  518loPI    C2 8274   3.383   2.995  11.372 -0.0492 -0.0675 -0.0689
  518loPI    C3 8275   3.661   3.265  11.473 -0.0985 -0.0702  0.0763
  518loPI   PO4 8276   3.417   3.192  10.890  0.1511  0.1546  0.0241
  518loPI   GL1 8277   3.378   2.909  10.683  0.2466  0.0114  0.0684
  518loPI   GL2 8278   3.689   2.825  10.532 -0.1251  0.1979 -0.1292
  518loPI   C1A 8279   3.252   2.851  10.258 -0.0703  0.0145  0.1803
  518loPI   C2A 8280   3.179   2.831   9.818  0.1596 -0.1761 -0.0555
  518loPI   C3A 8281   3.151   2.782   9.350 -0.0473 -0.0588  0.1585
  518loPI   C4A 8282   3.103   2.768   8.930 -0.0963 -0.1204  0.2650
  518loPI   C5A 8283   3.119   2.583   8.530  0.1000 -0.0154  0.0957
  518loPI   C6A 8284   3.375   2.221   8.483 -0.1250 -0.1294  0.2661
  518loPI   C1B 8285   3.746   2.867  10.075  0.0056 -0.0819 -0.2671
  518loPI   C2B 8286   3.687   2.736   9.632  0.0180 -0.0556 -0.2329
  518loPI   C3B 8287   3.603   2.641   9.148  0.0164 -0.2596  0.2053
  518loPI   C4B 8288   3.752   2.547   8.699  0.5862  0.1701  0.4066
  519loPI    C1 8289   3.955  13.347  10.860 -0.2250  0.0238 -0.0873
  519loPI    C2 8290   4.260  13.562  11.004 -0.1874 -0.0043 -0.1243
  519loPI    C3 8291   3.883  13.669  11.084 -0.1711  0.1478 -0.2462
  519loPI   PO4 8292   4.123  13.257  10.580 -0.2963 -0.2681  0.1642
  519loPI   GL1 8293   4.342  13.365  10.092 -0.0599 -0.1777 -0.0418
  519loPI   GL2 8294   3.916  13.384  10.015  0.0569 -0.1512  0.3009
  519loPI   C1A 8295   4.463  13.245   9.700  0.0244 -0.0672  0.0652
  519loPI   C2A 8296   4.491  13.150   9.242  0.0814 -0.0623  0.1136
  519loPI   C3A 8297   4.376  13.174   8.820 -0.2449  0.0092 -0.1866
  519loPI   C4A 8298   4.359  13.261   8.308  0.1931 -0.1307 -0.2963
  519loPI   C5A 8299   4.595  13.388   7.839  0.1215  0.1906  0.2867
  519loPI   C6A 8300   4.427  13.609   7.473  0.1171  0.0595 -0.1608
  519loPI   C1B 8301   3.905  13.311   9.569 -0.1439  0.0309  0.1381
  519loPI   C2B 8302   3.904  13.294   9.152 -0.2064 -0.0222 -0.0919
  519loPI   C3B 8303   3.923  13.301   8.620 -0.1186 -0.2354  0.1486
  519loPI   C4B 8304   3.711  13.540   8.191 -0.0064 -0.0064 -0.0568
  520loPI    C1 8305   3.167  12.236  10.849 -0.2038 -0.0901  0.1856
  520loPI    C2 8306   3.459  12.324  11.108 -0.0874  0.0749  0.0010
  520loPI    C3 8307   3.087  12.456  11.173 -0.0807  0.0294  0.1355
  520loPI   PO4 8308   3.248  12.101  10.717 -0.0990  0.0243 -0.0390
  520loPI   GL1 8309   3.303  11.924  10.313 -0.2066 -0.0741 -0.0973
  520loPI   GL2 8310   3.621  12.110  10.234 -0.1361  0.0238 -0.0683
  520loPI   C1A 8311   3.137  11.670  10.057 -0.0386 -0.1133  0.2604
  520loPI   C2A 8312   3.132  11.837   9.658  0.4229  0.2746  0.1266
  520loPI   C3A 8313   3.038  11.625   9.232  0.1640  0.3466  0.0657
  520loPI   C4A 8314   3.026  11.666   8.803  0.0514  0.1787 -0.0203
  520loPI   C5A 8315   2.631  11.648   8.550 -0.1439 -0.0609 -0.1795
  520loPI   C6A 8316   2.379  11.980   8.387  0.2850 -0.0794 -0.1238
  520loPI   C1B 8317   3.437  12.188   9.873  0.1997 -0.0187 -0.2772
  520loPI   C2B 8318   3.371  12.193   9.408 -0.2445  0.0596 -0.0777
  520loPI   C3B 8319   3.330  12.063   9.035  0.1144 -0.1072 -0.0519
  520loPI   C4B 8320   3.359  12.076   8.517 -0.1216  0.1099 -0.2732
  521loPI    C1 8321   9.230  13.482  10.043 -0.0138  0.1191 -0.3755
  521loPI    C2 8322   9.310  13.810  10.258 -0.0790 -0.1941  0.1438
  521loPI    C3 8323   9.579  13.514  10.237 -0.1014 -0.1959 -0.1586
  521loPI   PO4 8324   9.121  13.543   9.811 -0.1712  0.1493  0.0854
  521loPI   GL1 8325   8.945  13.327   9.439  0.3160  0.0112 -0.4511
  521loPI   GL2 8326   8.628  13.431   9.730  0.1801  0.1963  0.1967
  521loPI   C1A 8327   9.262  13.372   9.149  0.0928 -0.0767 -0.0541
  521loPI   C2A 8328   9.574  13.153   8.993  0.0658 -0.2024 -0.1478
  521loPI   C3A 8329   9.794  13.151   8.542  0.2093  0.0044 -0.0620
  521loPI   C4A 8330  10.156  13.246   8.301 -0.1224 -0.0318 -0.0009
  521loPI   C5A 8331  10.135  13.372   7.912 -0.0404  0.3674  0.0341
  521loPI   C6A 8332  10.424  13.142   7.658 -0.2177  0.1577 -0.2282
  521loPI   C1B 8333   8.455  13.482   9.355 -0.2112 -0.0701 -0.0485
  521loPI   C2B 8334   8.538  13.350   8.968 -0.1171 -0.0618  0.1072
  521loPI   C3B 8335   8.185  13.321   8.629  0.0914  0.1535  0.2296
  521loPI   C4B 8336   8.147  13.462   8.252  0.0384 -0.3000 -0.0392
  522loPI    C1 8337  15.613  12.465  11.189  0.0823 -0.0045  0.0674
  522loPI    C2 8338  15.245  12.319  11.243  0.0408  0.0999  0.0682
  522loPI    C3 8339  15.487  12.374  11.557 -0.0404  0.2865  0.0994
  522loPI   PO4 8340  15.686  12.348  10.995 -0.0986 -0.0852 -0.3425
  522loPI   GL1 8341  16.034  12.388  10.679  0.0073 -0.2375 -0.4834
  522loPI   GL2 8342  16.103  12.692  10.589 -0.0404  0.0850 -0.1565
  522loPI   C1A 8343  16.314  12.304  10.323 -0.3387 -0.2428 -0.1034
  522loPI   C2A 8344  16.365  12.425   9.893  0.0360  0.1358 -0.1123
  522loPI   C3A 8345  16.457  12.418   9.494  0.1650 -0.0614  0.3171
  522loPI   C4A 8346  16.456  12.359   8.993 -0.0607  0.3072  0.1973
  522loPI   C5A 8347  16.498  12.432   8.655  0.0432 -0.0456 -0.2139
  522loPI   C6A 8348  16.508  12.679   8.345 -0.0047  0.1777  0.0270
  522loPI   C1B 8349  15.868  12.647  10.161  0.3756  0.1039 -0.4125
  522loPI   C2B 8350  15.875  12.466   9.779 -0.0763 -0.0075  0.0351
  522loPI   C3B 8351  15.930  12.436   9.314 -0.1036 -0.3599 -0.1920
  522loPI   C4B 8352  15.967  12.515   8.928  0.3030 -0.3003  0.1041
  523loPI    C1 8353   3.295  10.317  11.025 -0.1578  0.1103 -0.0191
  523loPI    C2 8354   2.925  10.267  11.170 -0.0911 -0.0388  0.1022
  523loPI    C3 8355   3.240  10.131  11.375  0.0252  0.0049 -0.0457
  523loPI   PO4 8356   3.252  10.337  10.755  0.1876  0.0396  0.0642
  523loPI   GL1 8357   3.090  10.377  10.316 -0.0369 -0.1050 -0.2517
  523loPI   GL2 8358   3.164  10.703  10.406 -0.3550 -0.0058 -0.1030
  523loPI   C1A 8359   3.076  10.286   9.884  0.0372 -0.0465 -0.0790
  523loPI   C2A 8360   3.044  10.345   9.452 -0.2638  0.2728 -0.1953
  523loPI   C3A 8361   3.063  10.286   9.048 -0.0430 -0.1020  0.0203
  523loPI   C4A 8362   3.103  10.282   8.548 -0.2645 -0.1582 -0.0976
  523loPI   C5A 8363   2.872  10.312   8.190 -0.4390 -0.1785 -0.2506
  523loPI   C6A 8364   3.121  10.357   7.928 -0.1064 -0.3536 -0.0128
  523loPI   C1B 8365   3.026  10.803   9.989  0.0634 -0.0115 -0.1958
  523loPI   C2B 8366   3.067  10.794   9.556 -0.5780 -0.0389 -0.2649
  523loPI   C3B 8367   2.893  10.776   9.167 -0.2282 -0.1631  0.0125
  523loPI   C4B 8368   2.919  10.839   8.771  0.1369  0.3816 -0.1663
  524loPI    C1 8369  17.289  11.925  11.220 -0.0498 -0.0865  0.0101
  524loPI    C2 8370  17.059  11.700  11.456  0.2163 -0.0369  0.3236
  524loPI    C3 8371  17.457  11.664  11.472  0.2436  0.1038  0.0176
  524loPI   PO4 8372  17.266  11.944  10.993  0.1792  0.2985  0.3133
  524loPI   GL1 8373  17.115  11.979  10.537  0.2207  0.1077  0.0400
  524loPI   GL2 8374  16.922  12.163  10.482  0.2403  0.0980 -0.0707
  524loPI   C1A 8375  17.092  11.916  10.056  0.2780  0.1729  0.3041
  524loPI   C2A 8376  17.140  11.844   9.685  0.0376  0.0486 -0.1262
  524loPI   C3A 8377  17.067  11.797   9.307  0.1231  0.3118 -0.0031
  524loPI   C4A 8378  17.095  11.803   8.831  0.0275 -0.3545  0.0810
  524loPI   C5A 8379  17.381  11.912   8.320  0.3874 -0.0954  0.0003
  524loPI   C6A 8380  17.681  12.037   8.225 -0.0794  0.0478  0.3939
  524loPI   C1B 8381  16.819  12.338  10.154 -0.1267 -0.0130  0.1801
  524loPI   C2B 8382  16.959  12.329   9.748 -0.0002  0.0277  0.2184
  524loPI   C3B 8383  17.005  12.358   9.329  0.1778 -0.0132  0.1848
  524loPI   C4B 8384  16.939  12.326   8.852  0.2168 -0.1443  0.0238
  525loPI    C1 8385   1.525   6.024  11.332  0.1340 -0.0681 -0.1274
  525loPI    C2 8386   1.849   5.907  11.535  0.0980 -0.0451 -0.0566
  525loPI    C3 8387   1.486   5.785  11.651  0.0914 -0.1774 -0.2137
  525loPI   PO4 8388   1.553   5.975  11.068  0.0294 -0.2477  0.0068
  525loPI   GL1 8389   1.761   6.070  10.663  0.1263 -0.0095 -0.1868
  525loPI   GL2 8390   1.564   6.059  10.412 -0.0676  0.1533 -0.1618
  525loPI   C1A 8391   1.981   5.946  10.267 -0.2649  0.1329  0.0531
  525loPI   C2A 8392   2.032   5.807   9.820  0.1400 -0.0682  0.1363
  525loPI   C3A 8393   1.911   5.823   9.360 -0.2360  0.2950  0.3642
  525loPI   C4A 8394   1.895   5.825   8.894 -0.0331  0.1911  0.1976
  525loPI   C5A 8395   1.966   5.797   8.430 -0.1565  0.1163 -0.3019
  525loPI   C6A 8396   1.978   5.846   8.041 -0.3798 -0.2488  0.1341
  525loPI   C1B 8397   1.472   5.951  10.122  0.2968  0.2683  0.0442
  525loPI   C2B 8398   1.510   5.821   9.734  0.1042 -0.0156 -0.2486
  525loPI   C3B 8399   1.411   5.864   9.332 -0.1347  0.0477 -0.1376
  525loPI   C4B 8400   1.399   5.828   8.933  0.1201 -0.0490 -0.1601
  526loPI    C1 8401  11.373  10.158  10.457 -0.0667 -0.1436 -0.1070
  526loPI    C2 8402  11.074   9.900  10.519 -0.2264  0.1071  0.1945
  526loPI    C3 8403  11.278  10.048  10.829  0.3218 -0.1824 -0.0151
  526loPI   PO4 8404  11.281  10.392  10.297  0.2631  0.0265  0.0656
  526loPI   GL1 8405  11.222  10.566   9.853 -0.2222  0.4822 -0.0363
  526loPI   GL2 8406  11.503  10.759   9.952  0.1339  0.1547  0.0406
  526loPI   C1A 8407  11.139  10.537   9.414  0.1027  0.0987 -0.0436
  526loPI   C2A 8408  11.176  10.545   8.969 -0.1369  0.0610 -0.1672
  526loPI   C3A 8409  11.315  10.591   8.556  0.0493  0.4363 -0.1767
  526loPI   C4A 8410  11.671  10.630   8.298 -0.2541 -0.0393 -0.3210
  526loPI   C5A 8411  12.042  10.886   8.212 -0.2972  0.0269 -0.0317
  526loPI   C6A 8412  12.366  10.961   7.936 -0.1468  0.2606 -0.1072
  526loPI   C1B 8413  11.574  10.736   9.532  0.1043  0.1960 -0.1363
  526loPI   C2B 8414  11.600  10.842   9.193  0.1297 -0.0139 -0.2967
  526loPI   C3B 8415  11.573  10.937   8.796  0.0297 -0.3219 -0.2366
  526loPI   C4B 8416  11.561  11.115   8.392  0.2796 -0.2086  0.0826
  527loPI    C1 8417   1.724  10.912  10.894 -0.1595 -0.1001  0.0361
  527loPI    C2 8418   1.355  10.798  10.793 -0.1401 -0.0877 -0.0498
  527loPI    C3 8419   1.531  10.641  11.116 -0.2684 -0.0010  0.0636
  527loPI   PO4 8420   1.865  10.890  10.688 -0.2127  0.0937  0.0257
  527loPI   GL1 8421   2.155  10.912  10.400 -0.1588 -0.0514 -0.1203
  527loPI   GL2 8422   2.217  10.529  10.211 -0.0840 -0.1473 -0.2257
  527loPI   C1A 8423   2.023  10.926   9.962 -0.1096  0.1482  0.1061
  527loPI   C2A 8424   1.931  11.022   9.568 -0.1090 -0.0146 -0.0356
  527loPI   C3A 8425   1.791  11.077   9.170  0.0237 -0.1340  0.1037
  527loPI   C4A 8426   1.829  11.052   8.704  0.0685 -0.0397 -0.4114
  527loPI   C5A 8427   1.862  11.193   8.240 -0.1411  0.1251  0.0443
  527loPI   C6A 8428   1.532  11.156   7.950  0.0206  0.1282 -0.1674
  527loPI   C1B 8429   2.055  10.489   9.699 -0.2743 -0.3294 -0.0870
  527loPI   C2B 8430   2.049  10.643   9.268 -0.1402  0.3583  0.2361
  527loPI   C3B 8431   2.044  10.554   8.849 -0.1036  0.2008  0.1295
  527loPI   C4B 8432   1.790  10.450   8.472 -0.0609 -0.3414 -0.2569
  528loPI    C1 8433   6.878   6.725  10.478 -0.2205  0.0445 -0.1517
  528loPI    C2 8434   7.234   6.577  10.586 -0.1748  0.1349 -0.1774
  528loPI    C3 8435   6.916   6.528  10.824 -0.1830 -0.0929 -0.2334
  528loPI   PO4 8436   6.964   6.760  10.243 -0.1364  0.1286  0.4523
  528loPI   GL1 8437   7.103   6.421  10.118 -0.5951 -0.0860  0.7537
  528loPI   GL2 8438   7.321   6.217  10.150 -0.0573  0.1069  0.0460
  528loPI   C1A 8439   7.076   6.473   9.701 -0.3192  0.3011  0.2955
  528loPI   C2A 8440   6.979   6.412   9.287 -0.3998 -0.0429  0.1387
  528loPI   C3A 8441   6.957   6.561   8.881 -0.3662 -0.1226 -0.1821
  528loPI   C4A 8442   7.015   6.485   8.441  0.2335 -0.1791 -0.2111
  528loPI   C5A 8443   7.067   6.593   7.946 -0.2254  0.2980 -0.2389
  528loPI   C6A 8444   6.738   6.651   7.608  0.1842  0.1393 -0.0292
  528loPI   C1B 8445   7.386   6.110   9.721 -0.1157 -0.2131  0.2053
  528loPI   C2B 8446   7.392   6.122   9.305  0.0900 -0.0986 -0.2380
  528loPI   C3B 8447   7.379   6.261   8.893  0.0687  0.1806 -0.0268
  528loPI   C4B 8448   7.507   6.075   8.601  0.2206  0.4402 -0.0530
  529loPI    C1 8449   1.299  13.166  11.074 -0.2263 -0.0878 -0.2506
  529loPI    C2 8450   1.463  13.020  11.409 -0.0187  0.0964 -0.2694
  529loPI    C3 8451   1.065  13.030  11.369 -0.0469  0.1306 -0.0018
  529loPI   PO4 8452   1.393  13.424  11.000 -0.0433  0.1226  0.0880
  529loPI   GL1 8453   1.515  13.721  10.686 -0.1810  0.1306 -0.0763
  529loPI   GL2 8454   1.196  13.777  10.500 -0.0194 -0.0281 -0.1488
  529loPI   C1A 8455   1.549  13.377  10.326  0.0185 -0.3000 -0.2289
  529loPI   C2A 8456   1.470  13.219   9.928  0.1765 -0.1342 -0.0143
  529loPI   C3A 8457   1.508  13.355   9.590 -0.1012 -0.1292  0.0044
  529loPI   C4A 8458   1.404  13.385   9.155  0.0627 -0.3512 -0.1110
  529loPI   C5A 8459   1.467  13.445   8.759  0.2403  0.1924 -0.1279
  529loPI   C6A 8460   1.691  13.168   8.486  0.1347 -0.1466 -0.1615
  529loPI   C1B 8461   1.249  13.683  10.015 -0.0548  0.0135 -0.1289
  529loPI   C2B 8462   1.314  13.871   9.593  0.2791  0.1121  0.1151
  529loPI   C3B 8463   1.232  13.911   9.154 -0.2349 -0.1007  0.0455
  529loPI   C4B 8464   1.320  13.885   8.771 -0.0478 -0.0256  0.1704
  530loPI    C1 8465   1.753   4.582  11.389 -0.1904  0.0505 -0.1083
  530loPI    C2 8466   1.623   4.255  11.579 -0.0835  0.0877  0.0303
  530loPI    C3 8467   2.015   4.310  11.519 -0.1231  0.0146 -0.3153
  530loPI   PO4 8468   1.667   4.599  11.109  0.1184  0.5217  0.1775
  530loPI   GL1 8469   1.739   4.368  10.702 -0.0225  0.1761 -0.2376
  530loPI   GL2 8470   1.636   4.044  10.687  0.1566  0.2344 -0.1261
  530loPI   C1A 8471   1.606   4.460  10.218  0.3420 -0.0105 -0.3485
  530loPI   C2A 8472   1.465   4.505   9.860  0.0086  0.0371 -0.0004
  530loPI   C3A 8473   1.518   4.422   9.435 -0.0947 -0.0801 -0.1822
  530loPI   C4A 8474   1.426   4.434   9.061  0.0835 -0.0888  0.0370
  530loPI   C5A 8475   1.299   4.632   8.652 -0.1974 -0.0465 -0.0585
  530loPI   C6A 8476   1.230   4.993   8.530 -0.2558  0.6143  0.0639
  530loPI   C1B 8477   1.667   3.968  10.209  0.0304  0.0475  0.0098
  530loPI   C2B 8478   1.673   3.992   9.711 -0.1182 -0.0873  0.0801
  530loPI   C3B 8479   1.698   3.980   9.312  0.0635 -0.2992  0.2876
  530loPI   C4B 8480   1.685   3.921   8.932 -0.0388 -0.0001 -0.3463
  531loPI    C1 8481  13.167  10.001  10.871 -0.0644 -0.0706  0.2272
  531loPI    C2 8482  12.911   9.793  11.098 -0.1318  0.0915  0.3020
  531loPI    C3 8483  12.880  10.191  11.075 -0.1124  0.0792  0.0237
  531loPI   PO4 8484  13.247   9.802  10.683 -0.3325 -0.0430 -0.2337
  531loPI   GL1 8485  13.199   9.578  10.289  0.2093 -0.1416 -0.0035
  531loPI   GL2 8486  12.843   9.689  10.262 -0.0575 -0.0799  0.1129
  531loPI   C1A 8487  13.504   9.667   9.950 -0.3233  0.0194  0.0814
  531loPI   C2A 8488  13.588   9.688   9.461 -0.1639  0.2466 -0.0856
  531loPI   C3A 8489  13.730   9.635   9.166  0.3262  0.0000  0.1093
  531loPI   C4A 8490  13.750   9.704   8.681  0.1255  0.0736  0.0407
  531loPI   C5A 8491  13.754   9.586   8.333  0.2959 -0.0306  0.2309
  531loPI   C6A 8492  13.717   9.310   7.963  0.3001  0.1098 -0.3660
  531loPI   C1B 8493  13.006   9.749   9.766  0.2925  0.1142  0.0543
  531loPI   C2B 8494  13.095   9.720   9.363 -0.0587  0.1356 -0.2840
  531loPI   C3B 8495  13.253   9.785   8.972 -0.3298 -0.1947 -0.0649
  531loPI   C4B 8496  13.196   9.749   8.533  0.0739  0.1560 -0.0463
  532loPI    C1 8497   2.788   5.328  11.378  0.0205 -0.2145 -0.0717
  532loPI    C2 8498   2.773   5.256  11.771 -0.0080 -0.0083 -0.0336
  532loPI    C3 8499   3.124   5.334  11.595  0.0162 -0.1847 -0.0658
  532loPI   PO4 8500   2.609   5.110  11.208 -0.0646  0.0152  0.1739
  532loPI   GL1 8501   2.441   4.868  10.841  0.0833  0.0173  0.1289
  532loPI   GL2 8502   2.634   5.064  10.713  0.2115 -0.1248  0.2651
  532loPI   C1A 8503   2.365   4.745  10.443  0.3466  0.1367 -0.2923
  532loPI   C2A 8504   2.385   4.782   9.959 -0.0782  0.1107  0.1249
  532loPI   C3A 8505   2.380   4.758   9.588  0.0327 -0.1288  0.5438
  532loPI   C4A 8506   2.277   4.708   9.160  0.0412 -0.0118 -0.0081
  532loPI   C5A 8507   2.257   4.684   8.768  0.0485 -0.0419 -0.4122
  532loPI   C6A 8508   2.414   5.062   8.505  0.0593  0.0873 -0.0427
  532loPI   C1B 8509   2.710   5.281  10.301  0.2837 -0.0329  0.0287
  532loPI   C2B 8510   2.664   5.179   9.910  0.0356  0.1769 -0.0131
  532loPI   C3B 8511   2.693   5.225   9.450 -0.1272  0.0316 -0.7173
  532loPI   C4B 8512   2.529   5.199   8.964 -0.0430 -0.1688 -0.2872
  533loPI    C1 8513  16.172   7.245  11.384  0.1387  0.1185 -0.1462
  533loPI    C2 8514  16.092   6.888  11.545  0.1236  0.0408 -0.3239
  533loPI    C3 8515  15.942   7.219  11.710  0.1854 -0.0292 -0.1242
  533loPI   PO4 8516  16.227   7.191  11.129 -0.0415 -0.1242 -0.2695
  533loPI   GL1 8517  16.070   7.070  10.753  0.2276 -0.1429 -0.1400
  533loPI   GL2 8518  15.991   6.756  10.611 -0.1477 -0.1893  0.2832
  533loPI   C1A 8519  16.458   7.395  10.482  0.0987 -0.0973  0.0819
  533loPI   C2A 8520  16.469   7.348  10.047  0.3012  0.0405  0.0062
  533loPI   C3A 8521  16.480   7.307   9.643 -0.0976 -0.2768 -0.3321
  533loPI   C4A 8522  16.420   7.257   9.202  0.3038 -0.2225 -0.1777
  533loPI   C5A 8523  16.484   7.166   8.791  0.1011 -0.1132 -0.0260
  533loPI   C6A 8524  16.619   7.069   8.388  0.1755  0.0384 -0.0548
  533loPI   C1B 8525  16.103   6.886  10.233 -0.0771  0.0568 -0.1680
  533loPI   C2B 8526  16.179   6.960   9.813 -0.1519 -0.0411  0.2423
  533loPI   C3B 8527  16.194   6.802   9.343 -0.1263  0.1886  0.5272
  533loPI   C4B 8528  16.196   6.838   8.962 -0.1099 -0.0652  0.0867
  534loPI    C1 8529   1.922  14.276  11.093  0.0083 -0.0595 -0.0062
  534loPI    C2 8530   2.321  14.287  11.126  0.0195  0.0152 -0.1632
  534loPI    C3 8531   2.093  14.478  11.394  0.0888 -0.0356 -0.0677
  534loPI   PO4 8532   1.899  14.128  10.847  0.0440 -0.0843 -0.1013
  534loPI   GL1 8533   2.014  14.286  10.447  0.1650  0.1327 -0.1178
  534loPI   GL2 8534   2.136  14.262  10.219  0.0389 -0.0092 -0.1529
  534loPI   C1A 8535   1.680  14.346  10.146 -0.1739 -0.0230  0.0827
  534loPI   C2A 8536   1.678  14.238   9.729  0.2517  0.0136  0.1929
  534loPI   C3A 8537   1.651  14.264   9.323 -0.0388 -0.0129 -0.3104
  534loPI   C4A 8538   1.717  14.272   8.943 -0.2455 -0.0040  0.0412
  534loPI   C5A 8539   1.602  14.203   8.489 -0.1671 -0.0811  0.0748
  534loPI   C6A 8540   1.776  14.030   8.150  0.1662 -0.2131 -0.2013
  534loPI   C1B 8541   2.144  14.144   9.713 -0.4610 -0.1368 -0.2144
  534loPI   C2B 8542   2.114  14.181   9.306  0.2419 -0.3059  0.3063
  534loPI   C3B 8543   2.198  14.059   8.964 -0.2073 -0.0440  0.0637
  534loPI   C4B 8544   2.115  14.179   8.585 -0.1982 -0.1574  0.2081
  535loPI    C1 8545   7.958   1.176  10.721 -0.1310 -0.2458  0.1069
  535loPI    C2 8546   8.217   1.339  10.979 -0.0389 -0.0874 -0.0831
  535loPI    C3 8547   7.944   1.078  11.109  0.0713 -0.0863  0.1568
  535loPI   PO4 8548   8.003   1.005  10.574  0.1053  0.1465  0.1610
  535loPI   GL1 8549   8.240   1.027  10.328 -0.1964  0.1206 -0.1624
  535loPI   GL2 8550   8.578   0.927  10.222 -0.1502  0.2131  0.0501
  535loPI   C1A 8551   8.147   1.062   9.921  0.1200 -0.0670 -0.1829
  535loPI   C2A 8552   8.200   1.061   9.589 -0.0607 -0.0677  0.2543
  535loPI   C3A 8553   8.252   0.853   9.214 -0.4311 -0.0440 -0.0256
  535loPI   C4A 8554   8.280   0.867   8.832  0.3065 -0.1239  0.0621
  535loPI   C5A 8555   8.335   0.974   8.452 -0.0318 -0.0445 -0.3170
  535loPI   C6A 8556   8.236   0.794   7.963  0.1409 -0.4681 -0.1190
  535loPI   C1B 8557   8.661   0.810   9.898 -0.1035 -0.2719  0.1228
  535loPI   C2B 8558   8.723   0.829   9.449  0.1631  0.1187  0.0957
  535loPI   C3B 8559   8.750   0.821   9.068  0.1116  0.2339  0.0179
  535loPI   C4B 8560   8.826   0.939   8.689 -0.0520  0.2137  0.1009
  536loPI    C1 8561   6.566  18.018  10.901  0.0117  0.0323 -0.0459
  536loPI    C2 8562   6.489  17.720  10.645  0.1153  0.2033 -0.2790
  536loPI    C3 8563   6.864  17.787  10.767  0.0836  0.2009 -0.1797
  536loPI   PO4 8564   6.462  18.165  10.770  0.0057 -0.1516 -0.2980
  536loPI   GL1 8565   6.345  18.171  10.407 -0.0546 -0.0100  0.2556
  536loPI   GL2 8566   6.090  17.974  10.398  0.1104  0.0889 -0.0971
  536loPI   C1A 8567   6.455  18.209  10.026 -0.2862 -0.0821  0.2643
  536loPI   C2A 8568   6.328  18.052   9.559 -0.1259  0.0176 -0.0637
  536loPI   C3A 8569   6.113  18.035   9.059 -0.4417 -0.2076  0.1944
  536loPI   C4A 8570   6.152  17.977   8.692  0.1822 -0.0703 -0.1646
  536loPI   C5A 8571   6.141  17.909   8.259  0.3941  0.1445  0.2357
  536loPI   C6A 8572   5.929  18.321   8.140  0.0581 -0.0065  0.2807
  536loPI   C1B 8573   6.080  17.905   9.935  0.1668  0.2859  0.0523
  536loPI   C2B 8574   5.903  17.680   9.661  0.3844  0.2332 -0.1258
  536loPI   C3B 8575   5.811  17.542   9.197 -0.1202 -0.0953  0.0431
  536loPI   C4B 8576   5.793  17.592   8.776 -0.0418 -0.1319 -0.2725
  537loPI    C1 8577   8.964   5.251  10.375  0.1728  0.2116  0.1103
  537loPI    C2 8578   9.092   5.027  10.680  0.1061  0.1423  0.0878
  537loPI    C3 8579   8.830   5.322  10.746  0.1503  0.1773  0.1088
  537loPI   PO4 8580   8.940   5.146  10.214 -0.1609 -0.3683  0.3425
  537loPI   GL1 8581   8.695   5.089   9.935  0.1931 -0.2484 -0.0971
  537loPI   GL2 8582   8.719   4.796   9.979  0.1079 -0.0768 -0.2734
  537loPI   C1A 8583   8.752   4.974   9.506 -0.1243 -0.3904  0.3251
  537loPI   C2A 8584   8.855   5.116   9.144 -0.0163  0.2477 -0.0008
  537loPI   C3A 8585   8.796   5.230   8.713 -0.5895 -0.0563 -0.2909
  537loPI   C4A 8586   8.983   5.106   8.313  0.3299 -0.0278 -0.1361
  537loPI   C5A 8587   9.224   4.973   7.884  0.0609  0.0443 -0.0230
  537loPI   C6A 8588   9.099   4.534   7.691  0.1798  0.5923  0.0703
  537loPI   C1B 8589   8.796   4.542   9.744  0.2730 -0.2124 -0.0653
  537loPI   C2B 8590   8.868   4.596   9.266 -0.4428 -0.1979 -0.1136
  537loPI   C3B 8591   8.912   4.648   8.933  0.2494  0.1088  0.4332
  537loPI   C4B 8592   8.742   4.704   8.593  0.2126  0.2182  0.2266
  538loPI    C1 8593  11.798   2.317  11.028 -0.0191  0.0991  0.0404
  538loPI    C2 8594  11.439   2.221  11.174 -0.0312  0.0028 -0.0515
  538loPI    C3 8595  11.768   2.053  11.327 -0.0171  0.1631  0.0976
  538loPI   PO4 8596  11.747   2.530  10.881 -0.4897  0.2843  0.2106
  538loPI   GL1 8597  11.762   2.564  10.445 -0.1802  0.1571 -0.3510
  538loPI   GL2 8598  12.108   2.715  10.558  0.3699  0.1482  0.0704
  538loPI   C1A 8599  11.828   2.517  10.046  0.0966  0.0805 -0.1484
  538loPI   C2A 8600  11.934   2.496   9.606  0.1155 -0.2282  0.2723
  538loPI   C3A 8601  12.077   2.549   9.288  0.2837 -0.2614  0.0273
  538loPI   C4A 8602  12.151   2.378   8.920 -0.1539 -0.1159  0.2284
  538loPI   C5A 8603  12.089   2.086   8.717  0.2899 -0.0670  0.0083
  538loPI   C6A 8604  12.505   1.842   8.556  0.0565  0.0170  0.3222
  538loPI   C1B 8605  12.058   2.176  10.327 -0.1811  0.0052  0.0353
  538loPI   C2B 8606  12.084   2.067   9.941  0.0325  0.1306 -0.0331
  538loPI   C3B 8607  12.133   2.016   9.528 -0.2316 -0.0593  0.3368
  538loPI   C4B 8608  12.237   2.063   9.295  0.2862 -0.0247  0.4702
  539loPI    C1 8609  13.397  12.923  10.842  0.2382 -0.1539 -0.1691
  539loPI    C2 8610  13.111  12.755  11.066 -0.1022  0.2776 -0.2668
  539loPI    C3 8611  13.402  12.968  11.240  0.1584 -0.1476 -0.1685
  539loPI   PO4 8612  13.409  12.887  10.641 -0.2047 -0.1256 -0.3079
  539loPI   GL1 8613  13.455  13.075  10.317  0.1806  0.1186  0.1045
  539loPI   GL2 8614  13.238  12.991  10.132 -0.1755  0.1094  0.1883
  539loPI   C1A 8615  13.777  12.953  10.073 -0.2509 -0.2659 -0.1728
  539loPI   C2A 8616  13.870  12.724   9.681  0.0444  0.1572  0.0067
  539loPI   C3A 8617  13.959  12.833   9.275 -0.1875  0.0719  0.1015
  539loPI   C4A 8618  13.858  12.994   8.947 -0.1295  0.0355 -0.0080
  539loPI   C5A 8619  13.832  12.925   8.531 -0.2276  0.0474 -0.0545
  539loPI   C6A 8620  13.594  12.948   8.168 -0.0470 -0.2129 -0.2009
  539loPI   C1B 8621  13.419  12.985   9.758  0.0708 -0.3011 -0.0472
  539loPI   C2B 8622  13.419  12.941   9.418 -0.0048 -0.1103  0.4659
  539loPI   C3B 8623  13.244  12.977   8.862 -0.0155 -0.1986  0.2297
  539loPI   C4B 8624  13.407  13.256   8.510  0.1073 -0.0279 -0.3030
  540loPI    C1 8625   4.350  11.717  10.945  0.1333 -0.0197 -0.4291
  540loPI    C2 8626   4.241  11.347  11.048 -0.0863  0.1159 -0.1619
  540loPI    C3 8627   4.610  11.476  11.131 -0.0907  0.0425 -0.0241
  540loPI   PO4 8628   4.131  11.779  10.801 -0.3127 -0.0113 -0.1152
  540loPI   GL1 8629   4.092  11.835  10.318  0.1297 -0.3416  0.3646
  540loPI   GL2 8630   4.396  11.668  10.061 -0.0430  0.0065 -0.0817
  540loPI   C1A 8631   4.041  12.029   9.896 -0.2730 -0.0071  0.0931
  540loPI   C2A 8632   3.893  11.939   9.564 -0.0271 -0.1547 -0.0457
  540loPI   C3A 8633   3.934  11.962   9.071  0.2844  0.1281 -0.3347
  540loPI   C4A 8634   3.821  11.983   8.719  0.0440 -0.0001  0.2383
  540loPI   C5A 8635   3.851  11.925   8.343  0.1912 -0.0241  0.2619
  540loPI   C6A 8636   3.953  11.763   7.966  0.3203  0.1002  0.2654
  540loPI   C1B 8637   4.454  11.850   9.633  0.3774 -0.3273  0.1031
  540loPI   C2B 8638   4.439  11.831   9.174 -0.0179  0.0307 -0.0293
  540loPI   C3B 8639   4.301  11.873   8.745  0.1201 -0.1882  0.1292
  540loPI   C4B 8640   4.323  11.722   8.335  0.0073  0.5911  0.1231
  541loPI    C1 8641   0.440  14.661  11.172 -0.0952  0.0708 -0.0821
  541loPI    C2 8642   0.278  15.019  11.247  0.0529  0.0959  0.1265
  541loPI    C3 8643   0.158  14.698  11.454 -0.1982 -0.0086 -0.1739
  541loPI   PO4 8644   0.421  14.487  10.906 -0.3298  0.0841 -0.0024
  541loPI   GL1 8645   0.256  14.591  10.503  0.1025 -0.1174 -0.0086
  541loPI   GL2 8646   0.406  14.832  10.354  0.2289 -0.1043  0.1131
  541loPI   C1A 8647   0.082  14.407  10.126 -0.1376 -0.0333  0.0542
  541loPI   C2A 8648   0.017  14.348   9.680  0.0079 -0.4530 -0.0749
  541loPI   C3A 8649  -0.040  14.528   9.242 -0.1088  0.1961 -0.1507
  541loPI   C4A 8650   0.112  14.504   8.861  0.1551  0.3132  0.2373
  541loPI   C5A 8651  -0.088  14.647   8.473 -0.1093  0.0815 -0.1580
  541loPI   C6A 8652  -0.153  14.904   8.125  0.1299  0.0493 -0.0102
  541loPI   C1B 8653   0.316  14.787   9.826 -0.0649  0.2684 -0.1790
  541loPI   C2B 8654   0.443  14.870   9.445  0.3252  0.3143  0.4194
  541loPI   C3B 8655   0.429  14.889   9.002 -0.1551 -0.2191 -0.0555
  541loPI   C4B 8656   0.436  14.880   8.583 -0.0071  0.1596 -0.1019
  542loPI    C1 8657   2.302  12.814  11.213 -0.3820  0.0447  0.1524
  542loPI    C2 8658   2.597  13.065  11.311 -0.2153  0.0428 -0.3212
  542loPI    C3 8659   2.325  12.961  11.584  0.1892  0.0849  0.1101
  542loPI   PO4 8660   2.155  12.871  10.937 -0.1231  0.2306  0.0391
  542loPI   GL1 8661   2.231  12.971  10.562  0.0693  0.1852  0.1561
  542loPI   GL2 8662   2.466  12.779  10.450  0.1077  0.1867  0.1375
  542loPI   C1A 8663   2.070  13.225  10.188  0.1295  0.4262  0.2739
  542loPI   C2A 8664   1.963  13.229   9.775 -0.2947 -0.0908  0.0253
  542loPI   C3A 8665   1.945  13.259   9.373 -0.0604  0.1845  0.1241
  542loPI   C4A 8666   1.894  13.385   8.968 -0.1086  0.1543  0.1047
  542loPI   C5A 8667   1.889  13.699   8.535 -0.1328  0.0055  0.0100
  542loPI   C6A 8668   2.255  13.838   8.173 -0.0846  0.2749  0.0500
  542loPI   C1B 8669   2.143  12.719  10.116 -0.0525 -0.1506 -0.1785
  542loPI   C2B 8670   2.186  12.809   9.663  0.1968  0.3127  0.1334
  542loPI   C3B 8671   2.103  12.777   9.188 -0.1487 -0.6340  0.0147
  542loPI   C4B 8672   2.072  12.787   8.657 -0.2436  0.2007  0.3204
  543loPI    C1 8673  16.434  11.066  10.906  0.3934 -0.2120 -0.0267
  543loPI    C2 8674  16.376  10.727  11.112  0.0901 -0.0142  0.2223
  543loPI    C3 8675  16.322  11.082  11.290 -0.2125  0.1632 -0.2050
  543loPI   PO4 8676  16.574  11.139  10.758 -0.2475  0.0889 -0.2477
  543loPI   GL1 8677  16.702  10.987  10.352  0.1320  0.1269 -0.0407
  543loPI   GL2 8678  17.000  10.890  10.267 -0.0450 -0.0047  0.2752
  543loPI   C1A 8679  16.485  10.931  10.039 -0.1218 -0.2062  0.1204
  543loPI   C2A 8680  16.478  11.023   9.624  0.1861 -0.2275  0.0305
  543loPI   C3A 8681  16.489  10.915   9.130  0.0304  0.0220 -0.1425
  543loPI   C4A 8682  16.640  10.862   8.667  0.1868 -0.2744  0.0879
  543loPI   C5A 8683  16.890  10.991   8.400  0.2567  0.2076 -0.2003
  543loPI   C6A 8684  17.319  11.097   8.163  0.2547  0.2266 -0.1023
  543loPI   C1B 8685  16.924  10.968   9.801  0.1315  0.0508 -0.1226
  543loPI   C2B 8686  16.892  10.898   9.390  0.0114 -0.0170 -0.1780
  543loPI   C3B 8687  17.058  10.801   8.920  0.1047 -0.2082  0.1455
  543loPI   C4B 8688  17.460  10.875   8.673 -0.0618 -0.1886  0.1436
  544loPI    C1 8689   0.233   9.700  11.250  0.0225  0.0755  0.0627
  544loPI    C2 8690  -0.069   9.442  11.199  0.2259 -0.1628  0.0431
  544loPI    C3 8691  -0.002   9.602  11.559  0.2365 -0.3140  0.1091
  544loPI   PO4 8692   0.209   9.936  10.973  0.0993 -0.0396  0.0696
  544loPI   GL1 8693   0.283   9.938  10.532  0.0332  0.1170  0.2616
  544loPI   GL2 8694   0.415  10.156  10.368 -0.1361  0.3780  0.0003
  544loPI   C1A 8695   0.434   9.737  10.117  0.1080 -0.1298  0.0210
  544loPI   C2A 8696   0.387   9.662   9.634  0.4078 -0.0921  0.0243
  544loPI   C3A 8697   0.376   9.818   9.190 -0.3324 -0.1218 -0.0483
  544loPI   C4A 8698   0.215  10.046   8.801  0.1933 -0.0463  0.1145
  544loPI   C5A 8699   0.158  10.245   8.468  0.1816 -0.0535 -0.4109
  544loPI   C6A 8700  -0.151  10.550   8.428  0.0476  0.2124  0.0563
  544loPI   C1B 8701   0.500  10.197   9.951  0.0213 -0.1433  0.1154
  544loPI   C2B 8702   0.399  10.149   9.560  0.0977 -0.0006  0.1525
  544loPI   C3B 8703   0.676  10.201   9.142  0.1355  0.1548  0.0591
  544loPI   C4B 8704   0.675  10.153   8.615 -0.1745 -0.0929  0.2743
  545loPI    C1 8705  15.807   9.639  10.967 -0.0290 -0.1251  0.0168
  545loPI    C2 8706  16.033   9.957  11.054 -0.0529 -0.1320  0.1049
  545loPI    C3 8707  15.922   9.706  11.344 -0.0437 -0.2144  0.0373
  545loPI   PO4 8708  15.902   9.513  10.743 -0.3091  0.2034 -0.2129
  545loPI   GL1 8709  15.935   9.236  10.385  0.2200 -0.0107 -0.1507
  545loPI   GL2 8710  15.847   8.926  10.321  0.1025  0.1292  0.0521
  545loPI   C1A 8711  15.636   9.440  10.172  0.0852 -0.2094 -0.4099
  545loPI   C2A 8712  15.528   9.394   9.820 -0.0516 -0.4206 -0.0304
  545loPI   C3A 8713  15.664   9.190   9.493  0.2458  0.0209 -0.3187
  545loPI   C4A 8714  15.744   9.211   9.036 -0.2976 -0.0992  0.2383
  545loPI   C5A 8715  15.708   9.250   8.627 -0.3946 -0.2166  0.0155
  545loPI   C6A 8716  15.724   8.993   8.316  0.0355 -0.0511 -0.0738
  545loPI   C1B 8717  15.838   8.830   9.965  0.2390  0.0008 -0.2921
  545loPI   C2B 8718  15.924   8.740   9.576 -0.3944 -0.1430 -0.0561
  545loPI   C3B 8719  15.944   8.795   9.219  0.0260  0.2746  0.1446
  545loPI   C4B 8720  15.930   8.777   8.793  0.5910 -0.0765  0.1509
  546loPI    C1 8721  11.592   3.066  11.033  0.0913  0.0094  0.1779
  546loPI    C2 8722  11.248   3.177  11.205 -0.0892  0.0950 -0.2253
  546loPI    C3 8723  11.562   3.425  11.208 -0.1787  0.2101 -0.2608
  546loPI   PO4 8724  11.593   2.954  10.713 -0.2397 -0.1185 -0.0887
  546loPI   GL1 8725  11.454   3.036  10.243  0.0294 -0.0227 -0.1846
  546loPI   GL2 8726  11.727   3.027  10.229  0.5532 -0.0315  0.2295
  546loPI   C1A 8727  11.595   2.944   9.716  0.1968  0.0170  0.3821
  546loPI   C2A 8728  11.894   3.006   9.435 -0.1925  0.0116  0.1112
  546loPI   C3A 8729  12.059   2.958   8.978 -0.2407  0.0124 -0.0295
  546loPI   C4A 8730  12.026   2.740   8.479  0.2695 -0.0600 -0.0216
  546loPI   C5A 8731  12.080   3.021   8.164 -0.0486  0.0562  0.1160
  546loPI   C6A 8732  12.002   3.367   8.100  0.2099 -0.1530 -0.1999
  546loPI   C1B 8733  12.095   3.016   9.866  0.0753 -0.1607  0.2911
  546loPI   C2B 8734  12.410   3.012   9.547 -0.0294  0.3312 -0.0746
  546loPI   C3B 8735  12.514   3.104   9.135  0.3782  0.1205 -0.2969
  546loPI   C4B 8736  12.440   2.805   8.790 -0.0197  0.2114  0.1774
  547loPI    C1 8737   8.530  17.442  10.934 -0.0205  0.1033  0.3016
  547loPI    C2 8738   8.415  17.818  10.860 -0.1919 -0.0462 -0.2358
  547loPI    C3 8739   8.147  17.547  10.984 -0.0805 -0.0102  0.0926
  547loPI   PO4 8740   8.638  17.335  10.682  0.1087  0.2186 -0.0921
  547loPI   GL1 8741   8.432  17.125  10.217 -0.3760  0.4186  0.0630
  547loPI   GL2 8742   8.744  17.236  10.194  0.1214  0.2473  0.1805
  547loPI   C1A 8743   8.542  17.290   9.733  0.2767 -0.0009 -0.0518
  547loPI   C2A 8744   8.718  17.542   9.398 -0.0393 -0.2673  0.0959
  547loPI   C3A 8745   8.883  17.528   8.964 -0.2925  0.0892  0.4466
  547loPI   C4A 8746   8.951  17.530   8.505 -0.1822  0.2422 -0.0985
  547loPI   C5A 8747   8.849  17.341   8.157 -0.3840 -0.4520 -0.0087
  547loPI   C6A 8748   8.597  17.205   7.800  0.1977  0.0042  0.0543
  547loPI   C1B 8749   9.035  17.436   9.950  0.4488 -0.0508 -0.1924
  547loPI   C2B 8750   9.273  17.558   9.679 -0.0109 -0.2841  0.2348
  547loPI   C3B 8751   9.447  17.515   9.288  0.1959  0.0340  0.1241
  547loPI   C4B 8752   9.439  17.465   8.831  0.0219 -0.3752  0.4317
  548loPI    C1 8753   7.226  11.422  10.230 -0.0438  0.1532 -0.0883
  548loPI    C2 8754   7.241  11.054  10.387  0.1186  0.1701 -0.0619
  548loPI    C3 8755   7.127  11.363  10.613  0.5944  0.2340  0.1011
  548loPI   PO4 8756   7.457  11.371  10.003 -0.1675  0.1842  0.1132
  548loPI   GL1 8757   7.476  11.424   9.518 -0.1641 -0.0911 -0.2827
  548loPI   GL2 8758   7.695  11.093   9.484  0.1206 -0.2731  0.3386
  548loPI   C1A 8759   7.063  11.362   9.204 -0.0831  0.3398 -0.5889
  548loPI   C2A 8760   6.974  11.425   8.806  0.1116  0.1182 -0.0804
  548loPI   C3A 8761   6.908  11.371   8.444  0.0567 -0.2794 -0.0486
  548loPI   C4A 8762   6.942  11.442   8.015 -0.0679 -0.1758  0.0680
  548loPI   C5A 8763   7.068  11.716   7.558  0.1886 -0.0717  0.2211
  548loPI   C6A 8764   7.127  12.146   7.586  0.2816 -0.1544 -0.0047
  548loPI   C1B 8765   7.911  11.254   9.106 -0.4291  0.1390  0.2306
  548loPI   C2B 8766   7.607  11.245   8.907 -0.1341 -0.0555  0.0858
  548loPI   C3B 8767   7.401  11.314   8.532 -0.3057  0.0682  0.4847
  548loPI   C4B 8768   7.406  11.252   8.112  0.4610 -0.1212 -0.1600
  549loPI    C1 8769   5.361   1.580  10.485 -0.2704  0.2331  0.0216
  549loPI    C2 8770   5.405   1.604  10.882 -0.2682 -0.1059  0.0442
  549loPI    C3 8771   5.039   1.580  10.723 -0.2641 -0.1016  0.0341
  549loPI   PO4 8772   5.518   1.398  10.436  0.1608 -0.2821 -0.0194
  549loPI   GL1 8773   5.668   1.379  10.031  0.0434 -0.1194 -0.0525
  549loPI   GL2 8774   5.763   1.044  10.007 -0.0170 -0.1157  0.2104
  549loPI   C1A 8775   5.661   1.441   9.615  0.0922 -0.2835 -0.0551
  549loPI   C2A 8776   5.614   1.400   9.186 -0.0239  0.1185  0.3338
  549loPI   C3A 8777   5.727   1.406   8.753  0.0645  0.2656 -0.0341
  549loPI   C4A 8778   5.846   1.383   8.368 -0.0709  0.0335 -0.2252
  549loPI   C5A 8779   6.116   1.371   8.016  0.0523  0.0137  0.1187
  549loPI   C6A 8780   6.106   1.253   7.592 -0.1737  0.0805 -0.0452
  549loPI   C1B 8781   5.827   0.977   9.644  0.1245 -0.0393 -0.0966
  549loPI   C2B 8782   5.834   0.928   9.268 -0.1269 -0.3236  0.0384
  549loPI   C3B 8783   5.869   0.853   8.822  0.1109  0.1184 -0.0211
  549loPI   C4B 8784   5.957   0.789   8.313  0.1396 -0.0226 -0.1344
  550loPI    C1 8785   3.693  14.431  10.902  0.0158 -0.1260 -0.0239
  550loPI    C2 8786   4.028  14.554  11.083 -0.0803  0.0652  0.0259
  550loPI    C3 8787   3.941  14.164  11.068  0.2118  0.0029 -0.1058
  550loPI   PO4 8788   3.706  14.570  10.605  0.2050 -0.1723  0.0481
  550loPI   GL1 8789   3.593  14.666  10.224 -0.0489  0.1450  0.0221
  550loPI   GL2 8790   3.559  14.410  10.080 -0.2193  0.0106 -0.0333
  550loPI   C1A 8791   3.324  14.819   9.888  0.0660  0.1653 -0.1116
  550loPI   C2A 8792   3.282  14.862   9.361  0.1434 -0.2677 -0.0345
  550loPI   C3A 8793   3.364  14.799   8.943 -0.1815 -0.2552 -0.1686
  550loPI   C4A 8794   3.281  14.825   8.480  0.0999 -0.1948 -0.0320
  550loPI   C5A 8795   3.330  14.517   8.097  0.2417 -0.0761 -0.1744
  550loPI   C6A 8796   3.236  14.242   7.774 -0.0858 -0.0887 -0.0936
  550loPI   C1B 8797   3.491  14.385   9.626 -0.1933 -0.1091 -0.2802
  550loPI   C2B 8798   3.516  14.404   9.240  0.0461  0.1059  0.1351
  550loPI   C3B 8799   3.664  14.312   8.846 -0.1100  0.1659  0.0043
  550loPI   C4B 8800   3.515  14.356   8.542  0.4113 -0.1126 -0.0434
  551loPI    C1 8801   3.445  16.681  10.887  0.1455 -0.0480  0.1407
  551loPI    C2 8802   3.447  16.309  11.033  0.0554  0.0004  0.2667
  551loPI    C3 8803   3.102  16.510  11.002  0.0207 -0.1319 -0.3344
  551loPI   PO4 8804   3.503  16.665  10.555 -0.0216  0.2450  0.3586
  551loPI   GL1 8805   3.403  16.658  10.123  0.4651  0.4382  0.0178
  551loPI   GL2 8806   3.146  16.951  10.155 -0.0280 -0.0150 -0.1911
  551loPI   C1A 8807   3.285  16.692   9.739 -0.2763  0.1382  0.1544
  551loPI   C2A 8808   3.207  16.725   9.352 -0.2162  0.0698 -0.1239
  551loPI   C3A 8809   3.236  16.636   8.971 -0.0799 -0.4428  0.1080
  551loPI   C4A 8810   3.221  16.716   8.507 -0.0169  0.1853  0.1408
  551loPI   C5A 8811   3.419  16.443   8.160  0.3038  0.0118 -0.2614
  551loPI   C6A 8812   3.689  16.287   7.855  0.1774  0.0932 -0.3684
  551loPI   C1B 8813   3.050  17.200   9.771  0.0105  0.0722  0.0356
  551loPI   C2B 8814   3.111  17.193   9.307  0.3314  0.1119  0.2812
  551loPI   C3B 8815   2.962  17.068   8.904  0.3393  0.0448  0.2416
  551loPI   C4B 8816   2.918  17.092   8.359 -0.0881  0.1289  0.0129
  552loPI    C1 8817   7.755   0.549  10.690 -0.1669 -0.1590  0.0910
  552loPI    C2 8818   7.364   0.520  10.766 -0.1470 -0.1092  0.2154
  552loPI    C3 8819   7.607   0.690  11.034 -0.0341 -0.1746  0.1553
  552loPI   PO4 8820   7.833   0.364  10.548  0.1385 -0.0336 -0.1335
  552loPI   GL1 8821   7.791   0.243  10.093 -0.0670  0.1112  0.4964
  552loPI   GL2 8822   7.911  -0.042  10.090  0.0131 -0.3143  0.1611
  552loPI   C1A 8823   7.529   0.203   9.725  0.0796  0.4241  0.0788
  552loPI   C2A 8824   7.625   0.224   9.301 -0.2410 -0.1719 -0.0863
  552loPI   C3A 8825   7.507   0.145   8.908 -0.2083  0.0583 -0.1297
  552loPI   C4A 8826   7.714   0.184   8.509  0.1141 -0.1918  0.0040
  552loPI   C5A 8827   7.770   0.509   8.137 -0.4024  0.2296  0.0636
  552loPI   C6A 8828   7.902   0.488   7.706  0.1265 -0.0557  0.0566
  552loPI   C1B 8829   7.864  -0.097   9.622 -0.0065 -0.1453 -0.1583
  552loPI   C2B 8830   7.944  -0.105   9.239 -0.0055  0.2426 -0.0001
  552loPI   C3B 8831   8.127  -0.016   8.757 -0.2269  0.4493  0.2482
  552loPI   C4B 8832   8.305   0.119   8.412 -0.0912 -0.0459 -0.0883
  553loPI    C1 8833   9.784   0.630  10.828  0.0659  0.1261 -0.0337
  553loPI    C2 8834   9.580   0.465  11.130  0.1512 -0.0823 -0.0878
  553loPI    C3 8835   9.440   0.793  10.948  0.1892  0.1515  0.2945
  553loPI   PO4 8836   9.797   0.447  10.633 -0.1192  0.0768 -0.1010
  553loPI   GL1 8837  10.097   0.288  10.527  0.2813  0.0712  0.2677
  553loPI   GL2 8838   9.888   0.054  10.365  0.1341  0.1640 -0.2705
  553loPI   C1A 8839  10.173   0.548  10.097  0.1801 -0.0445  0.0026
  553loPI   C2A 8840  10.231   0.574   9.636  0.0207 -0.0742  0.3783
  553loPI   C3A 8841  10.289   0.699   9.211 -0.0445  0.0712  0.4719
  553loPI   C4A 8842  10.453   0.607   8.778 -0.0567  0.0369 -0.0263
  553loPI   C5A 8843  10.401   0.517   8.395 -0.0222 -0.1294 -0.2042
  553loPI   C6A 8844  10.130   0.303   8.082  0.1758  0.0518 -0.0534
  553loPI   C1B 8845   9.855   0.119   9.827 -0.2909  0.0898  0.1493
  553loPI   C2B 8846   9.910   0.215   9.415  0.1004 -0.0858 -0.0125
  553loPI   C3B 8847  10.025   0.228   8.954  0.2491 -0.0700 -0.0493
  553loPI   C4B 8848  10.035   0.265   8.573 -0.2699  0.2407 -0.1728
  554loPI    C1 8849   9.456   1.853  11.017 -0.2979  0.2587 -0.0018
  554loPI    C2 8850   9.621   2.104  11.281  0.2248  0.1135 -0.1790
  554loPI    C3 8851   9.705   1.713  11.298 -0.1512  0.0268 -0.2426
  554loPI   PO4 8852   9.526   1.904  10.690 -0.1725  0.0817  0.0005
  554loPI   GL1 8853   9.447   2.268  10.360  0.0570 -0.0780  0.1703
  554loPI   GL2 8854   9.764   2.203  10.395 -0.1451 -0.0509  0.3277
  554loPI   C1A 8855   9.432   2.606  10.125  0.3500  0.1672 -0.0338
  554loPI   C2A 8856   9.424   2.549   9.828 -0.0775 -0.2370 -0.1075
  554loPI   C3A 8857   9.601   2.698   9.424 -0.0346 -0.3202 -0.0975
  554loPI   C4A 8858   9.616   2.606   8.957  0.0096  0.0481  0.0828
  554loPI   C5A 8859   9.651   2.481   8.574  0.1361 -0.3169  0.1319
  554loPI   C6A 8860   9.285   2.497   8.334  0.0356  0.0539 -0.1805
  554loPI   C1B 8861   9.656   2.162   9.890 -0.1614  0.2086 -0.1267
  554loPI   C2B 8862   9.733   2.186   9.498  0.0569 -0.2266  0.2785
  554loPI   C3B 8863   9.834   2.143   9.021  0.1222  0.0892  0.2751
  554loPI   C4B 8864   9.884   2.037   8.586  0.0370 -0.1986 -0.3766
  555POPI    C1 8865  10.253   5.816  10.526 -0.0198  0.0143  0.0658
  555POPI    C2 8866   9.855   5.851  10.512 -0.0020  0.1576 -0.1286
  555POPI    C3 8867  10.081   6.173  10.585  0.0893  0.1244 -0.2635
  555POPI   PO4 8868  10.307   5.732  10.316  0.0136 -0.2113 -0.2663
  555POPI   GL1 8869  10.405   5.666   9.882  0.0355  0.0272  0.2604
  555POPI   GL2 8870  10.757   5.571   9.931  0.1558  0.1319 -0.1534
  555POPI   C1A 8871  10.405   5.755   9.496  0.1738 -0.0642 -0.2979
  555POPI   D2A 8872  10.552   6.184   9.321  0.0744 -0.4763 -0.0037
  555POPI   C3A 8873  10.864   6.145   9.008 -0.0053 -0.1394  0.0590
  555POPI   C4A 8874  10.848   5.846   8.734 -0.1000 -0.1735 -0.2189
  555POPI   C1B 8875  10.883   5.861   9.538 -0.0949  0.1440  0.0717
  555POPI   C2B 8876  11.109   5.703   9.125  0.2652 -0.2793 -0.0801
  555POPI   C3B 8877  11.072   5.384   8.792  0.4753  0.0352 -0.1047
  555POPI   C4B 8878  11.203   5.451   8.337 -0.0336  0.1820  0.1686
  556POPI    C1 8879   8.354   6.405  10.311 -0.0875 -0.2123 -0.0325
  556POPI    C2 8880   8.074   6.644  10.467 -0.0034 -0.0643 -0.1065
  556POPI    C3 8881   8.462   6.724  10.527  0.0258 -0.1487 -0.1813
  556POPI   PO4 8882   8.346   6.336  10.104 -0.1341 -0.3758  0.2609
  556POPI   GL1 8883   8.398   6.329   9.728 -0.1373 -0.3698 -0.0600
  556POPI   GL2 8884   8.697   6.365   9.764 -0.0961 -0.4248 -0.1694
  556POPI   C1A 8885   8.028   6.192   9.503  0.1742  0.0764 -0.2323
  556POPI   D2A 8886   7.830   6.299   9.097  0.1487  0.2232  0.1132
  556POPI   C3A 8887   7.898   6.561   8.700  0.0967 -0.1171 -0.0277
  556POPI   C4A 8888   7.929   6.648   8.332  0.1017  0.0086  0.0485
  556POPI   C1B 8889   8.626   6.396   9.300 -0.1546  0.3687 -0.0781
  556POPI   C2B 8890   8.755   6.586   8.953  0.2612 -0.4834 -0.1215
  556POPI   C3B 8891   8.897   6.541   8.547  0.0872 -0.2273 -0.1491
  556POPI   C4B 8892   8.962   6.482   8.221 -0.0348 -0.0125  0.0060
  557POPI    C1 8893   8.302   0.553  10.582  0.0616 -0.1462  0.0901
  557POPI    C2 8894   8.243   0.278  10.867 -0.4514 -0.1661 -0.0254
  557POPI    C3 8895   8.182   0.665  10.947 -0.0442 -0.1113  0.0448
  557POPI   PO4 8896   8.536   0.563  10.517  0.1743  0.0938 -0.1537
  557POPI   GL1 8897   8.672   0.284  10.203 -0.0775  0.0317  0.0226
  557POPI   GL2 8898   8.937   0.408  10.193 -0.1212 -0.3185  0.1918
  557POPI   C1A 8899   8.610   0.128   9.814  0.0985  0.2358 -0.0837
  557POPI   D2A 8900   8.392  -0.156   9.532  0.2399 -0.4786  0.1526
  557POPI   C3A 8901   8.565  -0.115   9.146  0.1534  0.1540  0.3301
  557POPI   C4A 8902   8.706  -0.103   8.688  0.3428  0.1010  0.4424
  557POPI   C1B 8903   8.966   0.467   9.679 -0.0331 -0.1239  0.4585
  557POPI   C2B 8904   8.877   0.308   9.216  0.1259  0.0765 -0.0189
  557POPI   C3B 8905   8.961   0.279   8.853 -0.0266 -0.1563 -0.2103
  557POPI   C4B 8906   9.003   0.535   8.496 -0.2069 -0.1088  0.0571
  558POPI    C1 8907  10.452   3.399  10.690 -0.0617 -0.3224  0.3294
  558POPI    C2 8908  10.531   3.642  10.997  0.1969  0.1180 -0.0729
  558POPI    C3 8909  10.777   3.338  10.915  0.1608  0.0366  0.1157
  558POPI   PO4 8910  10.476   3.578  10.496 -0.0462 -0.1575 -0.1669
  558POPI   GL1 8911  10.708   3.656  10.089  0.0539 -0.1455  0.1197
  558POPI   GL2 8912  10.662   3.389  10.022  0.0959 -0.3712  0.3356
  558POPI   C1A 8913  10.929   3.758   9.763 -0.0386 -0.1501  0.2238
  558POPI   D2A 8914  10.989   3.768   9.442 -0.3210  0.1838 -0.0015
  558POPI   C3A 8915  11.135   3.648   9.014 -0.1347 -0.1172 -0.2465
  558POPI   C4A 8916  11.365   3.535   8.641 -0.1929  0.0277  0.2244
  558POPI   C1B 8917  10.703   3.334   9.611 -0.1479 -0.3854  0.2202
  558POPI   C2B 8918  10.785   3.345   9.133  0.1213 -0.0725 -0.1526
  558POPI   C3B 8919  10.889   3.289   8.714  0.3029 -0.0023  0.2321
  558POPI   C4B 8920  10.764   2.851   8.615  0.0472  0.0521  0.0081
  559POPI    C1 8921   1.097  12.481  11.166  0.2227 -0.1026 -0.0500
  559POPI    C2 8922   1.418  12.519  11.401  0.0717  0.0064  0.1412
  559POPI    C3 8923   1.051  12.559  11.555 -0.0364 -0.1742 -0.0644
  559POPI   PO4 8924   1.148  12.642  10.979  0.2800  0.1008 -0.1367
  559POPI   GL1 8925   1.190  12.751  10.593  0.3841  0.2173 -0.0746
  559POPI   GL2 8926   1.278  13.042  10.602  0.0497  0.0894 -0.1900
  559POPI   C1A 8927   1.176  12.843  10.057 -0.0945 -0.1596 -0.2117
  559POPI   D2A 8928   1.274  12.909   9.643 -0.3407  0.2905  0.1351
  559POPI   C3A 8929   1.108  12.857   9.242  0.1540  0.1300  0.1336
  559POPI   C4A 8930   1.181  12.874   8.798 -0.0985 -0.2511 -0.0781
  559POPI   C1B 8931   1.654  12.909  10.337  0.1241  0.3532  0.2694
  559POPI   C2B 8932   1.686  12.814   9.937  0.2230 -0.1716 -0.1212
  559POPI   C3B 8933   1.748  12.777   9.537  0.0509 -0.0431  0.1289
  559POPI   C4B 8934   1.615  12.841   9.067  0.1353  0.4977 -0.2028
  560POPI    C1 8935   1.267   4.269  11.166 -0.2186  0.0956 -0.1692
  560POPI    C2 8936   0.880   4.216  11.253 -0.1205 -0.2083  0.0984
  560POPI    C3 8937   1.101   4.470  11.470 -0.1927  0.0469 -0.1228
  560POPI   PO4 8938   1.383   3.956  11.206  0.0166  0.0442  0.0432
  560POPI   GL1 8939   1.130   3.736  10.930 -0.1858 -0.1313  0.2377
  560POPI   GL2 8940   1.377   3.485  10.657  0.0372  0.5457  0.1471
  560POPI   C1A 8941   0.719   3.825  10.797 -0.0592  0.0555  0.0490
  560POPI   D2A 8942   0.570   4.061  10.395 -0.0788 -0.1778 -0.1128
  560POPI   C3A 8943   0.690   4.088   9.895 -0.0511 -0.1363 -0.0119
  560POPI   C4A 8944   0.567   4.099   9.521 -0.2790  0.1696  0.1382
  560POPI   C1B 8945   1.313   3.591  10.280  0.2793 -0.2161  0.4777
  560POPI   C2B 8946   1.351   3.600   9.897  0.0067  0.0290  0.1656
  560POPI   C3B 8947   1.420   3.613   9.437 -0.1165  0.2087 -0.2516
  560POPI   C4B 8948   1.252   3.627   8.978  0.0373 -0.0445 -0.2909
  561POPI    C1 8949  12.485  12.529  10.994  0.0086 -0.0734  0.0252
  561POPI    C2 8950  12.627  12.678  11.337 -0.0856  0.0177  0.0250
  561POPI    C3 8951  12.348  12.391  11.343  0.2829 -0.3489  0.0281
  561POPI   PO4 8952  12.718  12.558  10.800 -0.0915  0.0164 -0.1604
  561POPI   GL1 8953  12.900  12.443  10.404  0.1604  0.0644 -0.1196
  561POPI   GL2 8954  13.219  12.498  10.281 -0.0324  0.1265 -0.3175
  561POPI   C1A 8955  12.901  12.546   9.941 -0.0660  0.4540  0.1008
  561POPI   D2A 8956  13.142  12.549   9.623  0.0110  0.2186  0.0445
  561POPI   C3A 8957  13.063  12.481   9.201  0.0034  0.1394  0.0896
  561POPI   C4A 8958  12.970  12.546   8.868 -0.0189 -0.1801 -0.0355
  561POPI   C1B 8959  13.549  12.471   9.943 -0.1539  0.2553 -0.2365
  561POPI   C2B 8960  13.570  12.351   9.479  0.0587 -0.3491 -0.0919
  561POPI   C3B 8961  13.562  12.516   9.167  0.1442  0.0692 -0.2555
  561POPI   C4B 8962  13.467  12.541   8.714 -0.1075  0.1629 -0.1911
  562POPI    C1 8963  16.074  13.581  11.044 -0.3393 -0.2461  0.0076
  562POPI    C2 8964  15.990  13.660  11.427  0.0515 -0.1287  0.0739
  562POPI    C3 8965  15.864  13.319  11.261 -0.2503 -0.1119  0.2606
  562POPI   PO4 8966  16.226  13.721  10.936  0.0795  0.2005  0.1343
  562POPI   GL1 8967  16.364  13.787  10.563  0.1256  0.1331  0.1142
  562POPI   GL2 8968  16.479  13.458  10.599  0.1412  0.0849 -0.4122
  562POPI   C1A 8969  16.417  13.929  10.121  0.2409  0.0932 -0.3420
  562POPI   D2A 8970  16.330  13.812   9.689  0.3448  0.0900  0.0126
  562POPI   C3A 8971  16.385  13.735   9.229 -0.1419 -0.0820 -0.1895
  562POPI   C4A 8972  16.444  13.919   8.903 -0.1152 -0.0842 -0.0481
  562POPI   C1B 8973  16.538  13.402  10.140  0.0773 -0.1712  0.1243
  562POPI   C2B 8974  16.479  13.301   9.766  0.0776  0.0745 -0.0846
  562POPI   C3B 8975  16.548  13.224   9.334  0.1696 -0.1524 -0.0715
  562POPI   C4B 8976  16.623  13.297   8.913  0.2843  0.2373 -0.0461
  563POPI    C1 8977  11.731   7.153  10.918  0.1265  0.1295 -0.0945
  563POPI    C2 8978  11.861   7.151  11.296 -0.1258 -0.0122 -0.0064
  563POPI    C3 8979  11.653   6.840  11.154  0.0594 -0.0076 -0.2956
  563POPI   PO4 8980  11.877   7.171  10.740 -0.2821 -0.3327 -0.2406
  563POPI   GL1 8981  11.940   7.131  10.377  0.3349  0.0424 -0.0797
  563POPI   GL2 8982  11.682   6.971  10.231 -0.0377  0.2775  0.2650
  563POPI   C1A 8983  12.145   7.373  10.096  0.0151 -0.1040 -0.0923
  563POPI   D2A 8984  12.315   7.415   9.839 -0.0251  0.0017 -0.0840
  563POPI   C3A 8985  12.409   7.459   9.306 -0.2808  0.1908 -0.0713
  563POPI   C4A 8986  12.580   7.398   8.835  0.0855 -0.2782 -0.2369
  563POPI   C1B 8987  11.883   6.988   9.856 -0.0086 -0.1710 -0.2063
  563POPI   C2B 8988  12.071   7.109   9.400 -0.0220 -0.0541 -0.1357
  563POPI   C3B 8989  12.146   7.138   8.962 -0.0447 -0.1250 -0.0728
  563POPI   C4B 8990  12.237   7.167   8.571 -0.0417  0.2304  0.2917
  564POPI    C1 8991   7.566  15.544  10.544  0.0960  0.1181 -0.2170
  564POPI    C2 8992   7.596  15.917  10.402 -0.0017  0.2455  0.0881
  564POPI    C3 8993   7.539  15.856  10.793 -0.1879 -0.0847  0.0132
  564POPI   PO4 8994   7.341  15.421  10.375  0.0966  0.1025 -0.0835
  564POPI   GL1 8995   7.343  15.423  10.028 -0.0144  0.1820  0.1799
  564POPI   GL2 8996   7.473  15.699   9.953 -0.0385  0.0892 -0.2508
  564POPI   C1A 8997   7.099  15.536   9.640 -0.0371 -0.1876 -0.1634
  564POPI   D2A 8998   7.070  15.608   9.248  0.0614  0.0901  0.1087
  564POPI   C3A 8999   7.382  15.628   8.957 -0.0415  0.0770  0.3491
  564POPI   C4A 9000   7.448  15.920   8.583 -0.0352  0.0320  0.0055
  564POPI   C1B 9001   7.579  15.705   9.516 -0.1446 -0.0481  0.2541
  564POPI   C2B 9002   7.846  15.741   9.172  0.1211 -0.1345  0.5396
  564POPI   C3B 9003   7.917  15.748   8.694 -0.0826  0.0170 -0.1623
  564POPI   C4B 9004   8.042  15.913   8.241 -0.1128 -0.0130  0.0977
  565POPI    C1 9005   7.739   5.850  10.494 -0.0257 -0.2502  0.3247
  565POPI    C2 9006   8.117   5.981  10.511 -0.0930  0.0230 -0.1141
  565POPI    C3 9007   7.834   6.158  10.731  0.0137 -0.1173  0.1395
  565POPI   PO4 9008   7.726   5.858  10.235 -0.0982  0.0248 -0.0172
  565POPI   GL1 9009   7.460   5.675   9.983  0.0073  0.1165  0.0446
  565POPI   GL2 9010   7.726   5.402   9.959 -0.3655 -0.4546  0.5059
  565POPI   C1A 9011   7.396   5.614   9.540  0.1304  0.0101  0.0022
  565POPI   D2A 9012   7.302   5.677   9.068  0.1552  0.1524  0.0694
  565POPI   C3A 9013   7.605   5.485   8.790  0.0014  0.2079  0.1536
  565POPI   C4A 9014   7.485   5.573   8.372 -0.1626  0.0826 -0.0189
  565POPI   C1B 9015   7.854   5.710   9.609 -0.0578 -0.2186 -0.0146
  565POPI   C2B 9016   7.791   5.834   9.222  0.1525 -0.1962  0.0724
  565POPI   C3B 9017   7.969   5.934   8.833 -0.1405 -0.1173 -0.4024
  565POPI   C4B 9018   8.064   6.189   8.388 -0.1080 -0.0763  0.1358
  566POPI    C1 9019   3.655  13.977  10.663 -0.0166  0.1158 -0.1183
  566POPI    C2 9020   3.297  13.800  10.643 -0.0482  0.1758 -0.0849
  566POPI    C3 9021   3.438  13.928  10.995  0.0895 -0.0189 -0.0676
  566POPI   PO4 9022   3.684  14.069  10.467 -0.2845  0.2051 -0.3739
  566POPI   GL1 9023   3.846  13.933  10.073  0.0340 -0.0473 -0.0313
  566POPI   GL2 9024   4.066  14.183  10.029 -0.0126 -0.3190 -0.2465
  566POPI   C1A 9025   3.764  13.831   9.664 -0.2752  0.2173 -0.0223
  566POPI   D2A 9026   3.637  13.893   9.310  0.3425 -0.4799 -0.2139
  566POPI   C3A 9027   3.741  13.791   8.966  0.5483  0.0145 -0.0074
  566POPI   C4A 9028   3.687  13.831   8.579 -0.0836  0.1683 -0.1590
  566POPI   C1B 9029   4.026  14.236   9.562  0.2064  0.3403 -0.1005
  566POPI   C2B 9030   4.094  14.165   9.126  0.1250 -0.2310  0.0365
  566POPI   C3B 9031   4.112  14.226   8.731  0.2414 -0.0337  0.1251
  566POPI   C4B 9032   4.128  14.383   8.313 -0.0440 -0.1763 -0.0612
  567POPI    C1 9033  16.603   2.303  11.437 -0.2123  0.1884 -0.2656
  567POPI    C2 9034  16.723   1.922  11.452 -0.1650  0.2120 -0.0007
  567POPI    C3 9035  16.914   2.201  11.667 -0.3102  0.3550 -0.0549
  567POPI   PO4 9036  16.579   2.391  11.179  0.0240 -0.0944 -0.2781
  567POPI   GL1 9037  16.721   2.159  10.852 -0.2125 -0.2192 -0.1678
  567POPI   GL2 9038  16.877   2.520  10.758  0.1593  0.1199  0.1769
  567POPI   C1A 9039  16.519   2.139  10.487 -0.1521  0.2165  0.1055
  567POPI   D2A 9040  16.399   2.186  10.196  0.3907 -0.0582 -0.0581
  567POPI   C3A 9041  16.441   2.231   9.843 -0.1856  0.1061  0.0700
  567POPI   C4A 9042  16.467   2.230   9.468 -0.3553 -0.0677 -0.2001
  567POPI   C1B 9043  16.754   2.679  10.439  0.0900 -0.0275 -0.2440
  567POPI   C2B 9044  16.708   2.608  10.028  0.3788 -0.0729 -0.1476
  567POPI   C3B 9045  16.788   2.600   9.587 -0.1319  0.1597 -0.2552
  567POPI   C4B 9046  16.847   2.598   9.168  0.1493  0.0495 -0.1101
  568POPI    C1 9047  12.241   5.120  10.948 -0.1410 -0.0846 -0.0276
  568POPI    C2 9048  12.364   4.998  11.308  0.0796  0.5895  0.1403
  568POPI    C3 9049  12.623   5.168  11.056 -0.0304 -0.0377 -0.4243
  568POPI   PO4 9050  12.036   5.266  10.900 -0.2095 -0.1325 -0.1634
  568POPI   GL1 9051  11.855   5.398  10.560 -0.0044 -0.1580 -0.1131
  568POPI   GL2 9052  12.118   5.672  10.568 -0.1478  0.2157 -0.0461
  568POPI   C1A 9053  11.891   5.202  10.212 -0.0690 -0.0484  0.1626
  568POPI   D2A 9054  12.022   4.879   9.949 -0.0028 -0.0022  0.0142
  568POPI   C3A 9055  12.017   4.917   9.525  0.2960 -0.0788 -0.2101
  568POPI   C4A 9056  12.189   4.798   9.172  0.1331 -0.0989  0.2068
  568POPI   C1B 9057  12.060   5.724  10.153  0.3173  0.0008  0.3140
  568POPI   C2B 9058  12.246   5.747   9.796 -0.1668 -0.0153  0.2232
  568POPI   C3B 9059  12.267   5.738   9.281 -0.1829 -0.0943 -0.0670
  568POPI   C4B 9060  12.275   5.569   8.825 -0.1526  0.1274  0.0991
  569POPI    C1 9061  13.404   8.171  11.257  0.0720  0.0964  0.0604
  569POPI    C2 9062  13.517   8.439  11.531 -0.0578  0.0645  0.1458
  569POPI    C3 9063  13.700   8.084  11.511  0.1360  0.1698  0.0117
  569POPI   PO4 9064  13.436   8.305  11.011 -0.0534 -0.2447 -0.0763
  569POPI   GL1 9065  13.310   8.130  10.638  0.1300 -0.2390 -0.0055
  569POPI   GL2 9066  13.375   8.362  10.519 -0.0644  0.0012 -0.2113
  569POPI   C1A 9067  13.661   7.935  10.298  0.0263  0.0665 -0.0013
  569POPI   D2A 9068  13.919   7.753   9.957 -0.1004 -0.0703 -0.1854
  569POPI   C3A 9069  13.820   7.867   9.508 -0.3806 -0.1546 -0.3820
  569POPI   C4A 9070  13.944   7.735   9.169 -0.2188 -0.0272 -0.1689
  569POPI   C1B 9071  13.390   8.286  10.121 -0.1837 -0.1661  0.0589
  569POPI   C2B 9072  13.618   8.346   9.693 -0.1861 -0.1012 -0.5184
  569POPI   C3B 9073  13.725   8.241   9.250 -0.0791  0.0964 -0.0402
  569POPI   C4B 9074  13.724   8.138   8.885 -0.0824 -0.3994 -0.1400
  570DPPI    C1 9075   9.193  16.835  10.726  0.0774  0.0931  0.0969
  570DPPI    C2 9076   9.225  16.470  10.566 -0.0905 -0.0926  0.4738
  570DPPI    C3 9077   9.548  16.703  10.599 -0.0389 -0.0773 -0.0574
  570DPPI   PO4 9078   8.956  16.909  10.604 -0.0152 -0.0284  0.0411
  570DPPI   GL1 9079   8.797  16.618  10.281  0.1639 -0.2333  0.1709
  570DPPI   GL2 9080   8.478  16.611  10.298  0.0553  0.1050  0.1541
  570DPPI   C1A 9081   9.092  16.561  10.041  0.0780 -0.1215 -0.0235
  570DPPI   C2A 9082   9.026  16.477   9.547 -0.0936  0.3834  0.1372
  570DPPI   C3A 9083   9.174  16.648   9.190  0.1765  0.1066  0.0889
  570DPPI   C4A 9084   9.154  16.569   8.733 -0.3684 -0.1461 -0.0370
  570DPPI   C1B 9085   8.603  16.795   9.824 -0.0986 -0.1060  0.0259
  570DPPI   C2B 9086   8.733  16.945   9.358  0.2858 -0.0021 -0.3304
  570DPPI   C3B 9087   8.593  17.060   9.023 -0.0549  0.1376  0.1523
  570DPPI   C4B 9088   8.747  17.141   8.678 -0.1396  0.0438  0.0646
  571DPPI    C1 9089  16.741  11.982  11.120 -0.0466  0.1284  0.1084
  571DPPI    C2 9090  16.524  12.284  11.270  0.0212  0.1044  0.2566
  571DPPI    C3 9091  16.475  11.912  11.411 -0.1106  0.0329  0.0272
  571DPPI   PO4 9092  16.672  12.001  10.860  0.4996 -0.0011  0.1332
  571DPPI   GL1 9093  16.491  11.769  10.602 -0.1461 -0.2292 -0.1429
  571DPPI   GL2 9094  16.597  11.490  10.441 -0.2159 -0.1351 -0.3621
  571DPPI   C1A 9095  16.589  11.888  10.157  0.2900  0.3722 -0.2715
  571DPPI   C2A 9096  16.593  12.004   9.782 -0.1032 -0.1320  0.0630
  571DPPI   C3A 9097  16.534  11.948   9.390 -0.1303 -0.3235  0.1511
  571DPPI   C4A 9098  16.629  11.879   8.979 -0.0881 -0.1827 -0.1231
  571DPPI   C1B 9099  16.788  11.347  10.075  0.0118  0.1819  0.1610
  571DPPI   C2B 9100  16.791  11.500   9.673 -0.2514 -0.0749  0.0881
  571DPPI   C3B 9101  16.765  11.360   9.326  0.0591 -0.0650  0.0887
  571DPPI   C4B 9102  16.761  11.373   8.862 -0.0106  0.1664 -0.3359
  572DPPI    C1 9103   0.938  16.016  11.113  0.2153  0.1671 -0.1354
  572DPPI    C2 9104   1.309  16.042  11.262  0.1376 -0.1378  0.1205
  572DPPI    C3 9105   0.997  15.990  11.508 -0.0337 -0.2763 -0.1213
  572DPPI   PO4 9106   1.056  15.933  10.870 -0.2662 -0.0037  0.0933
  572DPPI   GL1 9107   1.170  15.978  10.428  0.1090  0.1878 -0.1162
  572DPPI   GL2 9108   1.501  16.050  10.244 -0.2263 -0.0572 -0.1721
  572DPPI   C1A 9109   1.055  15.644  10.047 -0.0112 -0.0093 -0.0766
  572DPPI   C2A 9110   1.108  15.647   9.633 -0.0461 -0.2282 -0.1859
  572DPPI   C3A 9111   1.213  15.595   9.253  0.0391 -0.0183 -0.2185
  572DPPI   C4A 9112   1.051  15.618   8.869  0.0106  0.2818 -0.2602
  572DPPI   C1B 9113   1.465  16.045   9.837 -0.0468  0.2149 -0.2147
  572DPPI   C2B 9114   1.420  16.016   9.365  0.1984 -0.3367  0.1107
  572DPPI   C3B 9115   1.396  16.069   8.952  0.1858 -0.3281  0.0945
  572DPPI   C4B 9116   1.501  16.043   8.467 -0.0406 -0.0123  0.0952
  573DPPI    C1 9117  17.855  15.183  11.157 -0.0661  0.0511  0.0793
  573DPPI    C2 9118  17.691  14.854  11.314 -0.0442  0.0138  0.0244
  573DPPI    C3 9119  17.513  15.209  11.363 -0.2323 -0.0500 -0.1800
  573DPPI   PO4 9120  17.842  15.207  10.905  0.2047  0.1109  0.0282
  573DPPI   GL1 9121  17.754  15.509  10.689 -0.1650  0.6441  0.0077
  573DPPI   GL2 9122  17.519  15.793  10.643  0.1985 -0.0334  0.0738
  573DPPI   C1A 9123  17.766  15.385  10.253 -0.1269 -0.0113 -0.1644
  573DPPI   C2A 9124  17.807  15.434   9.776 -0.0002  0.0206 -0.0102
  573DPPI   C3A 9125  17.829  15.480   9.368 -0.2558  0.1393 -0.0662
  573DPPI   C4A 9126  17.837  15.412   8.974 -0.0801  0.0990 -0.2909
  573DPPI   C1B 9127  17.658  15.882  10.267  0.0668 -0.1358  0.1190
  573DPPI   C2B 9128  17.710  15.925   9.744  0.1071 -0.1873 -0.2308
  573DPPI   C3B 9129  17.636  15.951   9.432  0.1712  0.0981 -0.1182
  573DPPI   C4B 9130  17.636  15.937   8.999  0.0517  0.1113  0.0557
  574DPPI    C1 9131   8.461   1.918  10.936 -0.1482  0.0306 -0.1870
  574DPPI    C2 9132   8.357   1.821  11.309  0.0135  0.0558 -0.1344
  574DPPI    C3 9133   8.106   2.033  11.080  0.0523  0.3352  0.0761
  574DPPI   PO4 9134   8.536   1.691  10.770 -0.0095 -0.0134  0.4318
  574DPPI   GL1 9135   8.458   1.463  10.460 -0.0042  0.0562 -0.0843
  574DPPI   GL2 9136   8.808   1.389  10.422  0.1993  0.0352  0.1574
  574DPPI   C1A 9137   8.417   1.443  10.043 -0.2865 -0.0271 -0.2801
  574DPPI   C2A 9138   8.538   1.385   9.686 -0.0630  0.0597  0.0900
  574DPPI   C3A 9139   8.567   1.268   9.242  0.0789 -0.1175  0.0169
  574DPPI   C4A 9140   8.593   1.332   8.821 -0.1210  0.2349 -0.2490
  574DPPI   C1B 9141   8.928   1.282   9.914  0.3003  0.1044  0.0109
  574DPPI   C2B 9142   9.090   1.265   9.444 -0.2915 -0.3145  0.1836
  574DPPI   C3B 9143   9.074   1.208   9.011  0.1897  0.0969  0.0005
  574DPPI   C4B 9144   9.133   1.257   8.493 -0.0611  0.1788 -0.0947
  575DPPI    C1 9145   6.702  15.705  10.617  0.1248  0.1977 -0.1183
  575DPPI    C2 9146   6.735  15.949  10.932  0.1398  0.0833 -0.0304
  575DPPI    C3 9147   7.008  15.663  10.871 -0.0423 -0.1079  0.0393
  575DPPI   PO4 9148   6.652  15.884  10.415  0.3033 -0.0023  0.1862
  575DPPI   GL1 9149   6.698  15.628  10.065  0.2118 -0.0242 -0.1219
  575DPPI   GL2 9150   6.849  15.389  10.169 -0.1137 -0.1780  0.0769
  575DPPI   C1A 9151   6.488  15.399   9.757  0.0379 -0.0259  0.2162
  575DPPI   C2A 9152   6.567  15.505   9.367  0.0344  0.2696  0.0220
  575DPPI   C3A 9153   6.519  15.536   8.965 -0.1283  0.2586  0.1697
  575DPPI   C4A 9154   6.444  15.292   8.550 -0.2672 -0.3410 -0.0640
  575DPPI   C1B 9155   6.918  15.132   9.852  0.1741 -0.0583 -0.1154
  575DPPI   C2B 9156   6.855  15.140   9.483 -0.0399 -0.1033 -0.2396
  575DPPI   C3B 9157   6.759  15.096   9.038 -0.0562  0.1007 -0.4090
  575DPPI   C4B 9158   7.002  15.394   8.773 -0.0506 -0.1699  0.5354
  576DPPI    C1 9159  15.726  14.047  11.137 -0.1693 -0.0399  0.1227
  576DPPI    C2 9160  15.470  14.315  10.986 -0.0397 -0.0272 -0.0774
  576DPPI    C3 9161  15.693  14.409  11.305  0.0206  0.1122 -0.1594
  576DPPI   PO4 9162  15.641  13.836  10.977 -0.0300  0.0722 -0.2600
  576DPPI   GL1 9163  15.379  13.737  10.696 -0.0442  0.1939 -0.0405
  576DPPI   GL2 9164  15.392  14.088  10.523 -0.1162 -0.3014 -0.0356
  576DPPI   C1A 9165  15.465  13.541  10.292 -0.0132 -0.1101  0.1991
  576DPPI   C2A 9166  15.455  13.561   9.897  0.0397  0.0021  0.0299
  576DPPI   C3A 9167  15.450  13.527   9.447  0.2773 -0.0051 -0.1531
  576DPPI   C4A 9168  15.663  13.581   9.150  0.0738  0.1812  0.2095
  576DPPI   C1B 9169  15.230  14.015  10.080 -0.1490  0.1246  0.2170
  576DPPI   C2B 9170  15.254  13.988   9.627 -0.0712  0.1647 -0.1328
  576DPPI   C3B 9171  15.406  14.092   9.174 -0.1182 -0.0803  0.0575
  576DPPI   C4B 9172  15.480  13.918   8.906 -0.1483  0.0558 -0.0573
  577DPPI    C1 9173   6.903   7.855  10.671 -0.0933  0.2326  0.1200
  577DPPI    C2 9174   7.098   7.521  10.776 -0.0431  0.1583 -0.1982
  577DPPI    C3 9175   7.079   7.831  11.029  0.0418 -0.0274  0.0386
  577DPPI   PO4 9176   6.837   7.727  10.394 -0.2862  0.3589  0.1597
  577DPPI   GL1 9177   6.839   7.603   9.999  0.0468 -0.0973 -0.1548
  577DPPI   GL2 9178   7.013   7.498   9.820 -0.2544 -0.2420 -0.1008
  577DPPI   C1A 9179   6.570   7.793   9.748  0.0053  0.1976  0.1112
  577DPPI   C2A 9180   6.459   7.858   9.406  0.1489  0.1186 -0.0128
  577DPPI   C3A 9181   6.424   7.834   8.971  0.2652  0.0442  0.3323
  577DPPI   C4A 9182   6.453   7.719   8.664  0.0078 -0.0216 -0.0530
  577DPPI   C1B 9183   7.029   7.667   9.412  0.1989 -0.0110  0.3532
  577DPPI   C2B 9184   6.974   7.739   9.005  0.2613 -0.0836 -0.2080
  577DPPI   C3B 9185   6.958   7.724   8.530  0.0975 -0.0056  0.0937
  577DPPI   C4B 9186   6.678   7.767   8.184  0.1008  0.2746  0.0971
  578DPPI    C1 9187  12.477  15.998  10.992  0.2673 -0.0379  0.0562
  578DPPI    C2 9188  12.801  16.013  11.225  0.1733 -0.0719  0.1906
  578DPPI    C3 9189  12.524  15.731  11.286  0.2104 -0.1616 -0.0456
  578DPPI   PO4 9190  12.595  16.002  10.760  0.2993 -0.0237 -0.0041
  578DPPI   GL1 9191  12.904  15.942  10.460  0.2911  0.0944 -0.1671
  578DPPI   GL2 9192  12.639  15.858  10.282  0.3248  0.0377 -0.2458
  578DPPI   C1A 9193  13.320  16.017  10.389 -0.0045 -0.0332 -0.1652
  578DPPI   C2A 9194  13.430  16.190   9.984 -0.0091  0.3051  0.0706
  578DPPI   C3A 9195  13.556  16.193   9.517  0.0128  0.1659 -0.0344
  578DPPI   C4A 9196  13.611  16.282   8.945 -0.1287 -0.1067 -0.1984
  578DPPI   C1B 9197  12.765  15.941   9.771 -0.2214  0.0970  0.4740
  578DPPI   C2B 9198  12.753  15.898   9.313 -0.2808 -0.0138 -0.1192
  578DPPI   C3B 9199  12.762  16.000   8.928  0.3102  0.1735  0.2358
  578DPPI   C4B 9200  12.773  16.000   8.512 -0.0564  0.0722 -0.1352
  579PYPI    C1 9201   9.067   1.090  10.995  0.1382  0.0496  0.1221
  579PYPI    C2 9202   8.736   1.308  11.049  0.0064 -0.0974 -0.0769
  579PYPI    C3 9203   8.914   1.132  11.362 -0.0984 -0.0116  0.0322
  579PYPI   PO4 9204   9.085   1.116  10.717  0.0479  0.1219  0.1572
  579PYPI   GL1 9205   9.310   1.251  10.334  0.0928 -0.0732 -0.0288
  579PYPI   GL2 9206   9.135   0.945  10.260  0.3781  0.3258  0.1425
  579PYPI   C1A 9207   9.568   1.157   9.990  0.2207  0.1608 -0.0440
  579PYPI   C2A 9208   9.598   1.145   9.536  0.1149  0.2295 -0.1382
  579PYPI   D3A 9209   9.603   1.272   9.115 -0.0075 -0.3559 -0.0033
  579PYPI   C4A 9210   9.788   1.215   8.772  0.3869 -0.0610 -0.1903
  579PYPI   C1B 9211   9.181   0.857   9.857  0.0659  0.0137 -0.1178
  579PYPI   C2B 9212   9.247   0.774   9.322 -0.0346  0.2648  0.2155
  579PYPI   C3B 9213   9.267   0.763   8.824  0.0290 -0.0120 -0.2111
  579PYPI   C4B 9214   9.463   0.886   8.547  0.1311  0.3771  0.0783
  580PYPI    C1 9215  15.072   6.207  11.230 -0.0723 -0.2303  0.0406
  580PYPI    C2 9216  15.454   6.159  11.122 -0.0393  0.1874 -0.0445
  580PYPI    C3 9217  15.354   6.163  11.510  0.0855  0.3584 -0.0127
  580PYPI   PO4 9218  14.997   6.184  10.959  0.1421  0.0139  0.2685
  580PYPI   GL1 9219  14.854   6.120  10.511  0.0578 -0.0589  0.0409
  580PYPI   GL2 9220  14.697   5.855  10.465 -0.0338 -0.3196 -0.0124
  580PYPI   C1A 9221  15.043   6.129  10.056  0.2051 -0.0398  0.2937
  580PYPI   C2A 9222  15.000   6.118   9.659 -0.1058 -0.1761  0.1985
  580PYPI   D3A 9223  14.957   6.173   9.265  0.5135  0.0121  0.0658
  580PYPI   C4A 9224  15.129   6.277   8.910 -0.1719  0.0306 -0.1448
  580PYPI   C1B 9225  14.673   5.758  10.089 -0.0415 -0.1687  0.1865
  580PYPI   C2B 9226  14.659   5.760   9.645 -0.0785 -0.3361  0.3769
  580PYPI   C3B 9227  14.711   5.742   9.218 -0.3658 -0.1737 -0.1129
  580PYPI   C4B 9228  14.578   5.896   8.809  0.1586  0.3183 -0.0608
  581PYPI    C1 9229   2.218  15.200  10.779  0.1947 -0.1968  0.0239
  581PYPI    C2 9230   2.376  15.442  10.503  0.1791 -0.1967  0.0151
  581PYPI    C3 9231   2.483  15.480  10.887  0.1722 -0.1719  0.0146
  581PYPI   PO4 9232   1.970  15.137  10.654 -0.0998 -0.2591  0.0092
  581PYPI   GL1 9233   1.815  15.091  10.339  0.0738  0.3426  0.1539
  581PYPI   GL2 9234   1.867  14.740  10.312  0.1601  0.0746 -0.0675
  581PYPI   C1A 9235   1.741  15.096   9.973 -0.0590 -0.0401  0.0423
  581PYPI   C2A 9236   1.794  15.064   9.472  0.1009 -0.0822 -0.2387
  581PYPI   D3A 9237   1.910  15.071   9.074  0.2642  0.1618  0.4414
  581PYPI   C4A 9238   1.738  15.171   8.770  0.2492  0.1926  0.0469
  581PYPI   C1B 9239   2.001  14.660   9.857 -0.0823 -0.1606 -0.1164
  581PYPI   C2B 9240   2.006  14.599   9.523 -0.0362  0.0860 -0.1339
  581PYPI   C3B 9241   2.099  14.636   9.101  0.0425  0.0613 -0.1867
  581PYPI   C4B 9242   1.939  14.715   8.698 -0.2928 -0.0071  0.3439
  582PYPI    C1 9243  13.247   6.058  11.056  0.1661 -0.2274  0.0007
  582PYPI    C2 9244  13.449   5.904  11.364  0.1423 -0.1561  0.0523
  582PYPI    C3 9245  13.256   6.252  11.406  0.0130 -0.2210  0.0020
  582PYPI   PO4 9246  13.335   6.045  10.841 -0.1491 -0.2757 -0.0816
  582PYPI   GL1 9247  13.720   6.068  10.552 -0.1341 -0.1004  0.2146
  582PYPI   GL2 9248  13.781   5.768  10.574  0.1666 -0.1029  0.0272
  582PYPI   C1A 9249  13.631   5.969  10.109  0.1023 -0.3487 -0.0368
  582PYPI   C2A 9250  13.618   5.846   9.707  0.3250  0.0263 -0.0570
  582PYPI   D3A 9251  13.716   5.878   9.284 -0.0022  0.0420  0.1999
  582PYPI   C4A 9252  13.614   6.048   8.898 -0.0622 -0.2515  0.2745
  582PYPI   C1B 9253  13.837   5.459  10.383  0.1083  0.0213  0.1705
  582PYPI   C2B 9254  13.866   5.485   9.975  0.0810 -0.0927  0.3551
  582PYPI   C3B 9255  13.847   5.424   9.610 -0.0951  0.0939 -0.0017
  582PYPI   C4B 9256  13.917   5.448   9.167  0.2366 -0.1224  0.0843
  583PYPI    C1 9257   4.725   6.754  10.596 -0.1917 -0.1530  0.0354
  583PYPI    C2 9258   4.951   6.439  10.496 -0.2144 -0.1825  0.0762
  583PYPI    C3 9259   5.046   6.660  10.816 -0.2447 -0.1962  0.0948
  583PYPI   PO4 9260   4.601   6.831  10.371  0.1041 -0.1488 -0.3387
  583PYPI   GL1 9261   4.836   6.801  10.035 -0.1874  0.1000  0.3444
  583PYPI   GL2 9262   4.671   7.055   9.801 -0.0188 -0.1190 -0.0183
  583PYPI   C1A 9263   5.125   6.652   9.803 -0.3595  0.1946  0.1908
  583PYPI   C2A 9264   5.183   6.563   9.384  0.2115  0.1609 -0.1191
  583PYPI   D3A 9265   4.936   6.609   9.083  0.0325 -0.1101  0.2446
  583PYPI   C4A 9266   5.106   6.696   8.655  0.1604 -0.2155  0.2418
  583PYPI   C1B 9267   4.608   6.982   9.338 -0.0024 -0.0837 -0.0589
  583PYPI   C2B 9268   4.423   6.854   8.927  0.2475 -0.2589 -0.2170
  583PYPI   C3B 9269   4.412   6.782   8.594  0.1738  0.0624  0.2388
  583PYPI   C4B 9270   4.294   6.682   8.216  0.2177  0.0131  0.1057
  584PYPI    C1 9271  11.154  13.691  10.490 -0.0176 -0.0717  0.1144
  584PYPI    C2 9272  11.232  13.389  10.740 -0.0766 -0.1685  0.0170
  584PYPI    C3 9273  11.080  13.731  10.881 -0.1309 -0.2305  0.1102
  584PYPI   PO4 9274  11.410  13.636  10.354 -0.2024  0.1261  0.1509
  584PYPI   GL1 9275  11.537  13.987  10.094  0.1289 -0.0754  0.0177
  584PYPI   GL2 9276  11.279  14.063   9.980  0.2713  0.0236 -0.2061
  584PYPI   C1A 9277  11.793  13.931   9.654  0.3377  0.0984  0.1021
  584PYPI   C2A 9278  11.949  14.136   9.234  0.0907 -0.0179  0.2102
  584PYPI   D3A 9279  11.820  14.200   8.875 -0.0973 -0.2590  0.2311
  584PYPI   C4A 9280  12.030  14.099   8.502 -0.0286  0.0174  0.2246
  584PYPI   C1B 9281  11.522  14.360   9.715 -0.0383 -0.0187 -0.1024
  584PYPI   C2B 9282  11.686  14.548   9.389  0.2652  0.1572 -0.0283
  584PYPI   C3B 9283  11.810  14.725   9.018  0.3412 -0.0160  0.0025
  584PYPI   C4B 9284  11.930  14.592   8.604  0.1445 -0.2688 -0.0806
  585ERGO   ROH 9285   4.747  15.597  10.182 -0.1313  0.0413 -0.0222
  585ERGO    R1 9286   4.740  15.436   9.949 -0.2551  0.0262 -0.0091
  585ERGO    R2 9287   4.534  15.449   9.765 -0.1511  0.3139 -0.1125
  585ERGO    R3 9288   4.737  15.491   9.590  0.0030 -0.0011 -0.0174
  585ERGO    R4 9289   4.518  15.389   9.425 -0.0353  0.2075 -0.0995
  585ERGO    R5 9290   4.721  15.311   9.434 -0.1333 -0.0410  0.0420
  585ERGO    C1 9291   4.700  15.394   9.063  0.1767 -0.1503 -0.0027
  585ERGO    C2 9292   4.601  15.497   8.815 -0.0145  0.1490  0.2217
  586ERGO   ROH 9293   9.966  17.110  10.265 -0.0644 -0.1024  0.0921
  586ERGO    R1 9294  10.124  17.211  10.053 -0.0896 -0.0406  0.1023
  586ERGO    R2 9295  10.291  17.051   9.903  0.0386  0.0371  0.1601
  586ERGO    R3 9296  10.152  17.156   9.694  0.0091 -0.0872  0.1167
  586ERGO    R4 9297  10.434  17.165   9.609  0.0328  0.1638  0.2059
  586ERGO    R5 9298  10.293  17.332   9.612 -0.1200  0.0401  0.1621
  586ERGO    C1 9299  10.386  17.330   9.242  0.0016  0.1209  0.1920
  586ERGO    C2 9300  10.399  17.343   8.910  0.1560  0.1293  0.3213
  587ERGO   ROH 9301   0.630   8.313  10.197 -0.0008  0.0762 -0.0280
  587ERGO    R1 9302   0.766   8.355   9.952 -0.0482  0.0324 -0.0631
  587ERGO    R2 9303   0.922   8.161   9.832  0.0458  0.0552  0.0111
  587ERGO    R3 9304   0.761   8.209   9.618 -0.0070 -0.1308  0.0086
  587ERGO    R4 9305   1.026   8.160   9.502 -0.0226 -0.1240 -0.0102
  587ERGO    R5 9306   0.899   8.333   9.467 -0.0783 -0.1884 -0.0986
  587ERGO    C1 9307   0.935   8.205   9.110 -0.1121 -0.4031 -0.0249
  587ERGO    C2 9308   0.853   8.213   8.713 -0.0063 -0.0094 -0.4637
  588ERGO   ROH 9309   1.472   2.071  10.615 -0.0452 -0.0153  0.1251
  588ERGO    R1 9310   1.503   2.155  10.346 -0.0398  0.0333  0.1407
  588ERGO    R2 9311   1.596   1.987  10.148  0.1185  0.1147  0.1436
  588ERGO    R3 9312   1.367   2.061  10.022  0.0963 -0.0257  0.1001
  588ERGO    R4 9313   1.552   1.992   9.805  0.2218  0.2090  0.1313
  588ERGO    R5 9314   1.441   2.179   9.827  0.0612  0.1104  0.1686
  588ERGO    C1 9315   1.311   2.065   9.487  0.2612  0.1323  0.0832
  588ERGO    C2 9316   1.300   2.172   9.163  0.5002 -0.0548 -0.0023
  589ERGO   ROH 9317   6.961   6.940   9.772  0.0884 -0.0746  0.1016
  589ERGO    R1 9318   7.107   7.041   9.551  0.0366  0.0357  0.1170
  589ERGO    R2 9319   7.134   6.902   9.313  0.2145  0.0281  0.1390
  589ERGO    R3 9320   7.036   7.132   9.206  0.0164 -0.0767  0.0912
  589ERGO    R4 9321   7.170   6.999   8.983  0.2563  0.0560  0.1521
  589ERGO    R5 9322   7.204   7.203   9.052  0.0115  0.0963  0.1623
  589ERGO    C1 9323   7.099   7.271   8.691  0.0948 -0.0260  0.1149
  589ERGO    C2 9324   7.240   7.356   8.398 -0.1461  0.1569  0.1122
  590ERGO   ROH 9325   5.754   3.831  10.141 -0.2136 -0.1831  0.1773
  590ERGO    R1 9326   5.628   3.876   9.892 -0.1926 -0.1301  0.1757
  590ERGO    R2 9327   5.761   3.984   9.675 -0.2219  0.1007  0.2650
  590ERGO    R3 9328   5.669   3.761   9.549 -0.0262  0.1023  0.1164
  590ERGO    R4 9329   5.739   3.947   9.332 -0.1148  0.2697  0.2391
  590ERGO    R5 9330   5.548   3.846   9.361 -0.0437  0.1122  0.1363
  590ERGO    C1 9331   5.641   3.716   9.014  0.1313  0.3696  0.0847
  590ERGO    C2 9332   5.618   3.647   8.698 -0.0601  0.0557 -0.0016
  591ERGO   ROH 9333   6.805  16.487  10.117 -0.1065  0.0597 -0.0212
  591ERGO    R1 9334   6.839  16.558   9.846 -0.0388  0.0093 -0.0268
  591ERGO    R2 9335   6.991  16.408   9.670  0.0258 -0.0114  0.0432
  591ERGO    R3 9336   6.763  16.411   9.522  0.0652 -0.0637 -0.0179
  591ERGO    R4 9337   6.977  16.466   9.329  0.0889  0.0973  0.0590
  591ERGO    R5 9338   6.798  16.585   9.362  0.0281  0.0046  0.0509
  591ERGO    C1 9339   6.755  16.502   8.992  0.1626  0.1116  0.0110
  591ERGO    C2 9340   6.718  16.327   8.658 -0.0258 -0.1355  0.1331
  592ERGO   ROH 9341  15.344   8.126  10.616 -0.2112 -0.1265 -0.0574
  592ERGO    R1 9342  15.239   8.024  10.374 -0.1115 -0.1533 -0.0899
  592ERGO    R2 9343  15.144   8.188  10.173 -0.1541 -0.1785 -0.0918
  592ERGO    R3 9344  15.321   8.049  10.020 -0.0517 -0.0731 -0.0706
  592ERGO    R4 9345  15.115   8.138   9.832 -0.1203 -0.2594 -0.0829
  592ERGO    R5 9346  15.184   7.934   9.861  0.0328 -0.2027 -0.0495
  592ERGO    C1 9347  15.263   7.978   9.490 -0.0045 -0.2076 -0.0579
  592ERGO    C2 9348  15.168   8.066   9.138 -0.0669 -0.0499 -0.1557
  593ERGO   ROH 9349  16.677   4.001  10.639 -0.0971 -0.0606  0.1204
  593ERGO    R1 9350  16.725   4.087  10.374 -0.2435  0.0642  0.1326
  593ERGO    R2 9351  16.894   3.951  10.202  0.0805  0.4343  0.1456
  593ERGO    R3 9352  16.676   3.951  10.040  0.0925 -0.0265  0.1168
  593ERGO    R4 9353  16.904   3.956   9.857  0.1153  0.4069  0.1462
  593ERGO    R5 9354  16.737   4.095   9.858 -0.1706  0.0758  0.1051
  593ERGO    C1 9355  16.706   3.958   9.503  0.1466 -0.0416  0.1194
  593ERGO    C2 9356  16.842   4.043   9.116 -0.0772  0.2030  0.0403
  594ERGO   ROH 9357   1.836  14.128   6.734  0.1578  0.0287  0.0745
  594ERGO    R1 9358   1.752  13.992   6.968  0.0673  0.0101  0.0313
  594ERGO    R2 9359   1.712  14.121   7.209 -0.0194 -0.0115  0.0255
  594ERGO    R3 9360   1.467  14.005   7.193 -0.0170 -0.0052 -0.0717
  594ERGO    R4 9361   1.521  14.023   7.480 -0.1739  0.1052 -0.0390
  594ERGO    R5 9362   1.465  13.844   7.370 -0.1204  0.0613 -0.0059
  594ERGO    C1 9363   1.180  13.857   7.623 -0.2616  0.1791 -0.1680
  594ERGO    C2 9364   0.858  14.075   7.653  0.2527 -0.0047  0.1064
  595ERGO   ROH 9365   1.840  11.341   6.538 -0.0948 -0.1797 -0.0216
  595ERGO    R1 9366   1.884  11.382   6.815 -0.0377 -0.1074 -0.0412
  595ERGO    R2 9367   1.730  11.556   6.965  0.0035 -0.0563 -0.0580
  595ERGO    R3 9368   1.694  11.337   7.122  0.0195 -0.0111  0.0087
  595ERGO    R4 9369   1.492  11.529   7.214  0.0518  0.0294 -0.0023
  595ERGO    R5 9370   1.640  11.427   7.338  0.0697  0.0520 -0.0044
  595ERGO    C1 9371   1.320  11.308   7.507  0.0950  0.1217  0.0929
  595ERGO    C2 9372   1.126  11.373   7.834  0.0571  0.1097 -0.0620
  596ERGO   ROH 9373   3.457  13.597  10.022 -0.0365  0.0183 -0.0633
  596ERGO    R1 9374   3.400  13.433   9.798 -0.0398 -0.0219 -0.0361
  596ERGO    R2 9375   3.241  13.517   9.589  0.0565 -0.0059 -0.1218
  596ERGO    R3 9376   3.456  13.448   9.439  0.0842 -0.1402 -0.0181
  596ERGO    R4 9377   3.246  13.508   9.243  0.3068  0.1956 -0.1242
  596ERGO    R5 9378   3.364  13.325   9.255  0.0974  0.0751 -0.1565
  596ERGO    C1 9379   3.452  13.438   8.901  0.4785  0.1869 -0.0282
  596ERGO    C2 9380   3.276  13.500   8.537 -0.2164  0.1536 -0.2220
  597ERGO   ROH 9381  12.765  10.422  10.158 -0.2974  0.1554 -0.0199
  597ERGO    R1 9382  12.862  10.283   9.931 -0.0564  0.2539  0.0208
  597ERGO    R2 9383  12.696  10.189   9.731  0.1000 -0.1006  0.0535
  597ERGO    R3 9384  12.861  10.333   9.571 -0.1510  0.1442  0.0045
  597ERGO    R4 9385  12.771  10.110   9.403  0.1031  0.0164  0.0249
  597ERGO    R5 9386  12.977  10.168   9.442  0.0415  0.3071 -0.0400
  597ERGO    C1 9387  12.970  10.199   9.062 -0.1308  0.3143 -0.0378
  597ERGO    C2 9388  13.105  10.298   8.781 -0.1728  0.1137  0.0442
  598ERGO   ROH 9389   1.999  16.765  10.233  0.1845  0.3447  0.0078
  598ERGO    R1 9390   1.981  16.900   9.985  0.1611  0.3395  0.0050
  598ERGO    R2 9391   2.189  16.903   9.802  0.1032  0.2282 -0.0749
  598ERGO    R3 9392   1.998  16.809   9.633 -0.0077  0.3052  0.0072
  598ERGO    R4 9393   2.208  16.913   9.457  0.0195  0.0702 -0.0840
  598ERGO    R5 9394   1.997  16.966   9.451  0.0636  0.2269 -0.0546
  598ERGO    C1 9395   2.040  16.831   9.097 -0.1333  0.0508 -0.0121
  598ERGO    C2 9396   2.099  16.886   8.769  0.0062 -0.5149 -0.2243
  599ERGO   ROH 9397   5.344  13.506   9.930 -0.2360  0.1054 -0.0023
  599ERGO    R1 9398   5.320  13.424   9.660 -0.3385  0.1198  0.0032
  599ERGO    R2 9399   5.167  13.561   9.476 -0.0004  0.4268 -0.0520
  599ERGO    R3 9400   5.399  13.563   9.334  0.0502 -0.0835  0.0025
  599ERGO    R4 9401   5.189  13.597   9.133  0.1515  0.3746 -0.0498
  599ERGO    R5 9402   5.346  13.446   9.132 -0.1662  0.0188 -0.0077
  599ERGO    C1 9403   5.419  13.619   8.800  0.2875 -0.1350  0.0028
  599ERGO    C2 9404   5.443  13.628   8.436 -0.1128 -0.1907  0.1464
  600ERGO   ROH 9405  14.937   2.594   6.900 -0.0795 -0.1042 -0.0062
  600ERGO    R1 9406  14.936   2.486   7.162 -0.1674 -0.1475 -0.0241
  600ERGO    R2 9407  14.782   2.267   7.232 -0.0001 -0.3180 -0.1779
  600ERGO    R3 9408  15.020   2.167   7.316  0.0414 -0.0891 -0.0146
  600ERGO    R4 9409  14.819   2.007   7.456  0.0936 -0.3342 -0.2117
  600ERGO    R5 9410  14.985   2.115   7.547 -0.0884 -0.1802 -0.0537
  600ERGO    C1 9411  15.064   1.762   7.666  0.1871 -0.1287 -0.0780
  600ERGO    C2 9412  15.166   1.560   7.841 -0.0547  0.0434 -0.0179
  601ERGO   ROH 9413   1.206   0.542  10.584  0.1281  0.1482 -0.1252
  601ERGO    R1 9414   1.240   0.668  10.333  0.1808  0.1396 -0.1228
  601ERGO    R2 9415   1.480   0.664  10.196  0.1105 -0.1918 -0.2497
  601ERGO    R3 9416   1.327   0.563   9.995 -0.1466  0.0608 -0.1860
  601ERGO    R4 9417   1.559   0.679   9.860 -0.1021 -0.1593 -0.2995
  601ERGO    R5 9418   1.350   0.722   9.817 -0.0846  0.1014 -0.1411
  601ERGO    C1 9419   1.462   0.593   9.476 -0.4673  0.0968 -0.2685
  601ERGO    C2 9420   1.453   0.664   9.225 -0.0630 -0.1897 -0.1382
  602ERGO   ROH 9421   7.619   1.747   9.965 -0.0750  0.0342  0.0046
  602ERGO    R1 9422   7.550   1.609   9.728 -0.3626  0.1414  0.0239
  602ERGO    R2 9423   7.429   1.734   9.513 -0.0688  0.3756 -0.0048
  602ERGO    R3 9424   7.638   1.627   9.376 -0.2859 -0.1190  0.0257
  602ERGO    R4 9425   7.434   1.682   9.172 -0.0489  0.6578 -0.0503
  602ERGO    R5 9426   7.535   1.492   9.207 -0.6083  0.3125 -0.1502
  602ERGO    C1 9427   7.633   1.551   8.844 -0.2411  0.3579 -0.0482
  602ERGO    C2 9428   7.639   1.487   8.503  0.1377 -0.2023  0.2347
  603ERGO   ROH 9429   7.852  14.812   6.536  0.1880  0.0772 -0.0436
  603ERGO    R1 9430   7.822  14.755   6.812  0.2085  0.1292 -0.0315
  603ERGO    R2 9431   7.773  14.501   6.907 -0.0835  0.1969 -0.0059
  603ERGO    R3 9432   7.992  14.550   7.060  0.0328 -0.0768 -0.0762
  603ERGO    R4 9433   7.858  14.323   7.190 -0.1920  0.0502 -0.0633
  603ERGO    R5 9434   7.917  14.511   7.285  0.0614 -0.0236 -0.0533
  603ERGO    C1 9435   8.114  14.265   7.500 -0.1460 -0.2921 -0.1626
  603ERGO    C2 9436   8.313  14.213   7.805  0.3093 -0.0896  0.3349
  604ERGO   ROH 9437  13.511  11.113  10.126  0.0994 -0.6719 -0.0121
  604ERGO    R1 9438  13.526  10.995   9.869  0.0995 -0.3191 -0.1799
  604ERGO    R2 9439  13.360  11.070   9.661  0.0807 -0.0505 -0.0719
  604ERGO    R3 9440  13.595  11.108   9.530  0.0691  0.1565 -0.0351
  604ERGO    R4 9441  13.399  11.057   9.318  0.1509 -0.0647 -0.0633
  604ERGO    R5 9442  13.588  10.952   9.348  0.2492  0.1199 -0.0139
  604ERGO    C1 9443  13.642  11.085   8.995  0.1807  0.1215 -0.0238
  604ERGO    C2 9444  13.496  11.106   8.666 -0.0116 -0.2305 -0.0789
  605ERGO   ROH 9445  13.892  14.704  10.264  0.3927 -0.2152  0.1249
  605ERGO    R1 9446  14.084  14.640  10.065  0.4173  0.1034  0.0415
  605ERGO    R2 9447  14.014  14.535   9.819  0.4867 -0.0910  0.1054
  605ERGO    R3 9448  14.156  14.746   9.725  0.0393  0.1669 -0.0246
  605ERGO    R4 9449  14.052  14.615   9.485  0.3874 -0.2764  0.0481
  605ERGO    R5 9450  14.260  14.664   9.525  0.2792  0.2301  0.0682
  605ERGO    C1 9451  14.208  14.860   9.202 -0.0904 -0.1421 -0.1072
  605ERGO    C2 9452  14.221  14.716   8.889 -0.0506 -0.1981  0.1435
  606ERGO   ROH 9453  10.388  15.852  10.162 -0.0657  0.0511 -0.0794
  606ERGO    R1 9454  10.409  16.067   9.979 -0.0008  0.1085 -0.0053
  606ERGO    R2 9455  10.639  16.116   9.834 -0.0009  0.0623 -0.0208
  606ERGO    R3 9456  10.469  16.105   9.622 -0.0368  0.2116 -0.0008
  606ERGO    R4 9457  10.710  16.237   9.518  0.0688  0.0036 -0.0278
  606ERGO    R5 9458  10.505  16.312   9.506  0.1307  0.1828 -0.0029
  606ERGO    C1 9459  10.592  16.297   9.135  0.0755  0.1096 -0.0129
  606ERGO    C2 9460  10.738  16.286   8.846 -0.2826 -0.2312 -0.2622
  607ERGO   ROH 9461   2.269   6.911  10.435 -0.0375  0.2010  0.1164
  607ERGO    R1 9462   2.210   6.759  10.203  0.0326  0.0590  0.1909
  607ERGO    R2 9463   1.995   6.817  10.038  0.0833 -0.0442  0.0957
  607ERGO    R3 9464   2.187   6.822   9.845  0.1357 -0.1623  0.1422
  607ERGO    R4 9465   1.939   6.753   9.703  0.0878  0.1307  0.0600
  607ERGO    R5 9466   2.127   6.643   9.698 -0.0138 -0.0567  0.0646
  607ERGO    C1 9467   2.087   6.721   9.327  0.1395  0.1218  0.0826
  607ERGO    C2 9468   1.979   6.641   9.084 -0.0421 -0.1531 -0.1568
  608ERGO   ROH 9469   7.093  11.659   9.694 -0.0625 -0.0008  0.0573
  608ERGO    R1 9470   6.909  11.753   9.500 -0.0750 -0.1354  0.0027
  608ERGO    R2 9471   6.968  11.961   9.327 -0.1268 -0.1847 -0.0716
  608ERGO    R3 9472   6.898  11.779   9.137 -0.0511 -0.2790 -0.0098
  608ERGO    R4 9473   6.898  12.035   8.996 -0.3309 -0.2899 -0.0535
  608ERGO    R5 9474   6.735  11.892   9.003 -0.2089 -0.4344  0.0412
  608ERGO    C1 9475   6.792  11.908   8.627 -0.3787 -0.4396  0.0152
  608ERGO    C2 9476   6.730  11.873   8.278  0.0649  0.1440  0.1212
  609ERGO   ROH 9477  16.403  17.478  10.175  0.1147 -0.1472  0.0205
  609ERGO    R1 9478  16.524  17.541   9.927 -0.0392  0.0223 -0.0130
  609ERGO    R2 9479  16.549  17.357   9.723  0.1103  0.0724 -0.0382
  609ERGO    R3 9480  16.422  17.549   9.578 -0.1635 -0.0588  0.0201
  609ERGO    R4 9481  16.540  17.370   9.378  0.0314  0.1226 -0.0349
  609ERGO    R5 9482  16.566  17.587   9.390 -0.2411  0.1586 -0.0008
  609ERGO    C1 9483  16.416  17.558   9.040 -0.2714  0.0289  0.0219
  609ERGO    C2 9484  16.510  17.509   8.643  0.2435 -0.0288 -0.0932
  610ERGO   ROH 9485   8.037  17.420   6.552 -0.1396  0.2896 -0.2059
  610ERGO    R1 9486   7.996  17.503   6.819 -0.0647  0.2322 -0.1758
  610ERGO    R2 9487   7.776  17.651   6.896 -0.0778  0.1610 -0.0695
  610ERGO    R3 9488   7.745  17.450   7.077  0.0427  0.1193 -0.0942
  610ERGO    R4 9489   7.664  17.694   7.220 -0.1158  0.0468 -0.0670
  610ERGO    R5 9490   7.812  17.548   7.286 -0.0268  0.1344 -0.0804
  610ERGO    C1 9491   7.569  17.531   7.579 -0.0247 -0.0588 -0.0887
  610ERGO    C2 9492   7.492  17.649   7.830 -0.2819  0.2972  0.1742
  611ERGO   ROH 9493  15.449   5.179  10.410  0.1153 -0.0097  0.1313
  611ERGO    R1 9494  15.383   5.079  10.154  0.2420  0.0606  0.0702
  611ERGO    R2 9495  15.265   5.235   9.959  0.1719  0.0675  0.1163
  611ERGO    R3 9496  15.477   5.151   9.810  0.2657  0.2870  0.1232
  611ERGO    R4 9497  15.270   5.224   9.614  0.0184 -0.3596  0.1216
  611ERGO    R5 9498  15.376   5.034   9.626  0.3978 -0.1456  0.3162
  611ERGO    C1 9499  15.471   5.140   9.272  0.0171 -0.4022  0.1311
  611ERGO    C2 9500  15.434   5.190   8.945  0.0630  0.0488  0.0743
  612ERGO   ROH 9501   0.536  17.281  10.420  0.2592  0.1839 -0.1158
  612ERGO    R1 9502   0.609  17.208  10.157  0.0498  0.2521 -0.1940
  612ERGO    R2 9503   0.475  17.013  10.014  0.1485  0.0473 -0.0041
  612ERGO    R3 9504   0.452  17.210   9.829 -0.3463 -0.0081 -0.0153
  612ERGO    R4 9505   0.549  16.979   9.678  0.3199  0.2203  0.0133
  612ERGO    R5 9506   0.638  17.177   9.682 -0.2071  0.4807  0.0271
  612ERGO    C1 9507   0.569  17.144   9.309 -0.0448  0.2691  0.0131
  612ERGO    C2 9508   0.488  17.116   8.943 -0.0073  0.1858 -0.0174
  613ERGO   ROH 9509   2.073  13.754  10.586  0.0157 -0.0042 -0.1788
  613ERGO    R1 9510   1.979  13.698  10.325 -0.0553  0.0166 -0.1574
  613ERGO    R2 9511   1.737  13.794  10.231 -0.0376  0.1009 -0.1158
  613ERGO    R3 9512   1.891  13.891  10.029 -0.0410  0.0322 -0.1513
  613ERGO    R4 9513   1.693  13.724   9.895 -0.1035  0.0689 -0.1010
  613ERGO    R5 9514   1.909  13.710   9.874 -0.1114  0.0081 -0.1305
  613ERGO    C1 9515   1.812  13.774   9.511 -0.1450 -0.0143 -0.1259
  613ERGO    C2 9516   1.718  13.782   9.162 -0.2058  0.1637 -0.0198
  614ERGO   ROH 9517   3.497   9.729  10.023  0.0062 -0.3025  0.0245
  614ERGO    R1 9518   3.363   9.698   9.776  0.0481 -0.2828 -0.0007
  614ERGO    R2 9519   3.289   9.913   9.619 -0.2903 -0.2455  0.2003
  614ERGO    R3 9520   3.429   9.779   9.428 -0.0828  0.1453  0.0686
  614ERGO    R4 9521   3.201   9.895   9.285 -0.4080 -0.2713  0.2322
  614ERGO    R5 9522   3.261   9.685   9.285  0.0471 -0.1508  0.1033
  614ERGO    C1 9523   3.281   9.759   8.911 -0.2818  0.0804  0.1271
  614ERGO    C2 9524   3.142   9.771   8.584  0.1827  0.2563 -0.3472
  615PSPI    C1 9525  10.437   2.215   5.941 -0.0541  0.1880  0.1414
  615PSPI    C2 9526  10.699   2.510   5.877 -0.0692  0.2002  0.1354
  615PSPI    C3 9527  10.726   2.169   5.669  0.1477  0.0694  0.3725
  615PSPI   PO4 9528  10.443   2.340   6.261  0.0353 -0.0288 -0.2957
  615PSPI   GL1 9529  10.298   2.431   6.615  0.4133  0.1678  0.0560
  615PSPI   GL2 9530  10.057   2.689   6.520 -0.1709  0.4077  0.1808
  615PSPI   C1A 9531  10.254   2.402   7.105 -0.4146  0.1236  0.0549
  615PSPI   C2A 9532  10.128   2.386   7.555  0.0898 -0.1195  0.1771
  615PSPI   C3A 9533  10.052   2.726   7.854 -0.1167  0.0343 -0.0385
  615PSPI   C4A 9534  10.306   2.968   8.118 -0.1783  0.1642 -0.3202
  615PSPI   C1B 9535   9.722   2.518   6.839 -0.3420  0.2024  0.0415
  615PSPI   C2B 9536   9.733   2.558   7.254 -0.0711  0.1159 -0.1325
  615PSPI   C3B 9537   9.597   2.520   7.646  0.0833 -0.1545  0.0585
  615PSPI   C4B 9538   9.570   2.788   7.937 -0.2337 -0.0720  0.0933
  616PSPI    C1 9539   6.697   8.961   5.647  0.1888  0.0048  0.1280
  616PSPI    C2 9540   7.019   8.849   5.437 -0.0528  0.1018 -0.3057
  616PSPI    C3 9541   6.935   9.238   5.483  0.0831  0.0869  0.1121
  616PSPI   PO4 9542   6.657   8.776   5.862  0.1615  0.1253 -0.1951
  616PSPI   GL1 9543   6.631   8.433   6.216 -0.2996 -0.0314 -0.2773
  616PSPI   GL2 9544   6.585   8.662   6.500  0.1308  0.1644  0.0582
  616PSPI   C1A 9545   6.973   8.420   6.600  0.0257 -0.0799 -0.0001
  616PSPI   C2A 9546   7.047   8.361   7.025 -0.0669  0.1836  0.0738
  616PSPI   C3A 9547   7.035   8.376   7.445  0.1459  0.1308 -0.5209
  616PSPI   C4A 9548   6.959   8.014   7.746 -0.0990  0.0710 -0.1237
  616PSPI   C1B 9549   6.546   8.540   6.913 -0.1495 -0.2816 -0.0326
  616PSPI   C2B 9550   6.460   8.358   7.270 -0.2429  0.4313  0.0837
  616PSPI   C3B 9551   6.574   8.394   7.694 -0.1457  0.1435  0.0418
  616PSPI   C4B 9552   6.713   8.260   8.134  0.0250 -0.2583  0.2328
  617PSPI    C1 9553   2.740   2.771   6.191  0.2676 -0.1060  0.0427
  617PSPI    C2 9554   2.942   2.619   5.881 -0.0091  0.2430 -0.3186
  617PSPI    C3 9555   2.556   2.528   5.932  0.0280  0.2091 -0.0887
  617PSPI   PO4 9556   2.887   2.988   6.221  0.1187 -0.2720 -0.0131
  617PSPI   GL1 9557   2.963   3.033   6.652 -0.1821  0.0104 -0.1313
  617PSPI   GL2 9558   3.159   2.748   6.763 -0.0299 -0.1889 -0.0270
  617PSPI   C1A 9559   3.126   3.183   7.077  0.6191  0.2189 -0.1304
  617PSPI   C2A 9560   3.488   3.236   7.328  0.1356  0.2968  0.1210
  617PSPI   C3A 9561   3.755   3.166   7.711  0.1003 -0.2182 -0.0369
  617PSPI   C4A 9562   4.103   3.184   7.918 -0.0533  0.2674  0.2081
  617PSPI   C1B 9563   3.417   2.339   6.952  0.3043 -0.0009  0.5506
  617PSPI   C2B 9564   3.411   2.202   7.357 -0.3906 -0.0859 -0.1154
  617PSPI   C3B 9565   3.488   2.237   7.739  0.0318 -0.4067  0.1626
  617PSPI   C4B 9566   3.150   2.375   8.077 -0.3277 -0.2845  0.0863
  618PSPI    C1 9567   7.044  12.347   5.172  0.0216  0.2382  0.1708
  618PSPI    C2 9568   7.362  12.588   5.201  0.1477  0.1177 -0.1686
  618PSPI    C3 9569   7.407  12.213   5.070 -0.1303  0.0898 -0.1892
  618PSPI   PO4 9570   6.974  12.322   5.449 -0.1433  0.0356  0.0127
  618PSPI   GL1 9571   7.133  12.184   5.848 -0.2775 -0.2546 -0.3194
  618PSPI   GL2 9572   7.395  11.915   6.030  0.0462 -0.1461  0.1097
  618PSPI   C1A 9573   7.049  12.345   6.214  0.2580 -0.0774 -0.1794
  618PSPI   C2A 9574   6.950  12.434   6.633 -0.0168 -0.1516 -0.1415
  618PSPI   C3A 9575   7.008  12.782   6.964 -0.4209 -0.0845  0.1069
  618PSPI   C4A 9576   7.390  12.999   7.131 -0.1416 -0.2732 -0.0752
  618PSPI   C1B 9577   7.507  12.111   6.477 -0.0119 -0.1604 -0.0467
  618PSPI   C2B 9578   7.892  12.224   6.638 -0.2276  0.0105  0.0789
  618PSPI   C3B 9579   8.004  12.365   6.983 -0.1652  0.0909  0.1402
  618PSPI   C4B 9580   8.305  12.418   7.178 -0.1648  0.0544  0.0621
  619PSPI    C1 9581  13.170   4.424   5.802 -0.1257 -0.1508  0.0272
  619PSPI    C2 9582  12.798   4.569   5.826 -0.1943 -0.3452  0.1693
  619PSPI    C3 9583  12.950   4.468   5.471 -0.1784 -0.0163  0.0795
  619PSPI   PO4 9584  13.159   4.274   6.077  0.0230  0.1398  0.1074
  619PSPI   GL1 9585  13.240   4.328   6.503  0.2223  0.0374 -0.2819
  619PSPI   GL2 9586  13.206   4.068   6.729  0.0588  0.1250  0.1882
  619PSPI   C1A 9587  13.118   4.544   6.937 -0.2337 -0.2549 -0.1031
  619PSPI   C2A 9588  13.227   4.613   7.262  0.1277  0.1411 -0.3747
  619PSPI   C3A 9589  13.383   4.732   7.571 -0.2848 -0.3529 -0.0256
  619PSPI   C4A 9590  13.847   4.894   7.761 -0.1208 -0.0454 -0.0684
  619PSPI   C1B 9591  13.398   4.081   7.157 -0.1846 -0.2028 -0.0490
  619PSPI   C2B 9592  13.302   4.041   7.553  0.0577  0.0475 -0.0188
  619PSPI   C3B 9593  13.121   4.281   7.960 -0.1509  0.2345 -0.1138
  619PSPI   C4B 9594  12.643   4.368   8.018 -0.0778 -0.1131 -0.2050
  620PSPI    C1 9595  13.102  15.852   5.711 -0.0858  0.1045  0.1828
  620PSPI    C2 9596  13.144  16.227   5.578  0.0411  0.0079 -0.0534
  620PSPI    C3 9597  13.467  16.014   5.680 -0.0508  0.0660  0.3769
  620PSPI   PO4 9598  12.842  15.840   5.840 -0.0548  0.0491 -0.0249
  620PSPI   GL1 9599  12.654  15.743   6.247  0.0735  0.2410  0.1399
  620PSPI   GL2 9600  12.946  15.680   6.411 -0.0759 -0.1639  0.1661
  620PSPI   C1A 9601  12.550  15.868   6.635  0.0117 -0.1125  0.1153
  620PSPI   C2A 9602  12.413  16.211   6.869 -0.1937 -0.0449 -0.1146
  620PSPI   C3A 9603  12.435  16.264   7.261  0.0307  0.1706 -0.1347
  620PSPI   C4A 9604  12.356  16.126   7.620 -0.1118  0.0187 -0.0288
  620PSPI   C1B 9605  13.103  15.454   6.709  0.0091 -0.0079  0.2090
  620PSPI   C2B 9606  13.325  15.545   7.027  0.1453 -0.1546  0.1304
  620PSPI   C3B 9607  13.114  15.613   7.367  0.0345 -0.4159 -0.0556
  620PSPI   C4B 9608  12.906  15.977   7.600 -0.3035 -0.0501 -0.0982
  621PSPI    C1 9609  10.654   1.750   5.930  0.0253  0.0404 -0.2782
  621PSPI    C2 9610  10.973   1.511   5.889 -0.0822 -0.0768 -0.4434
  621PSPI    C3 9611  10.613   1.387   5.767 -0.2391 -0.0443 -0.0312
  621PSPI   PO4 9612  10.649   1.795   6.183  0.1784  0.1950  0.0666
  621PSPI   GL1 9613  10.804   2.082   6.492 -0.1040 -0.0641  0.2166
  621PSPI   GL2 9614  11.094   2.018   6.543 -0.1579 -0.1868 -0.1788
  621PSPI   C1A 9615  10.476   2.008   6.798  0.4924  0.0188 -0.0171
  621PSPI   C2A 9616  10.396   1.936   7.197 -0.3621  0.0554  0.1365
  621PSPI   C3A 9617  10.627   2.036   7.585 -0.1381  0.3518 -0.1656
  621PSPI   C4A 9618  10.970   1.951   7.904  0.2489 -0.2706 -0.2958
  621PSPI   C1B 9619  11.228   2.130   7.004  0.4282 -0.2079  0.3061
  621PSPI   C2B 9620  11.309   2.119   7.413  0.0060 -0.0057  0.1161
  621PSPI   C3B 9621  11.420   2.164   7.977 -0.0719  0.0636  0.2499
  621PSPI   C4B 9622  11.206   2.137   8.428 -0.0987 -0.0950 -0.2264
  622PSPI    C1 9623   4.219   1.553   6.063 -0.1218 -0.2236 -0.0817
  622PSPI    C2 9624   4.488   1.599   5.771 -0.0684 -0.0469 -0.0059
  622PSPI    C3 9625   4.102   1.672   5.700 -0.0600 -0.0369 -0.0416
  622PSPI   PO4 9626   4.477   1.481   6.272  0.1392 -0.0595 -0.0389
  622PSPI   GL1 9627   4.431   1.331   6.701 -0.0415  0.1676 -0.1041
  622PSPI   GL2 9628   4.689   1.052   6.557  0.3261  0.1273 -0.0520
  622PSPI   C1A 9629   4.567   1.420   7.122 -0.2787 -0.2348 -0.0349
  622PSPI   C2A 9630   4.580   1.576   7.590 -0.0888  0.0239  0.1953
  622PSPI   C3A 9631   4.258   1.809   7.681  0.1452 -0.0080  0.1117
  622PSPI   C4A 9632   3.984   2.005   8.090 -0.0559  0.1329 -0.1574
  622PSPI   C1B 9633   4.889   0.984   6.953  0.0124 -0.1731 -0.1277
  622PSPI   C2B 9634   4.914   1.050   7.289  0.4210  0.3623 -0.0628
  622PSPI   C3B 9635   5.047   1.037   7.624 -0.0218  0.1439 -0.0606
  622PSPI   C4B 9636   5.054   1.356   7.905 -0.1323  0.1264 -0.2572
  623PSPI    C1 9637   2.192  14.660   5.933  0.0999 -0.1285  0.1629
  623PSPI    C2 9638   2.066  14.780   5.573 -0.0643 -0.0929  0.2317
  623PSPI    C3 9639   2.430  14.883   5.701 -0.1299  0.1740  0.2105
  623PSPI   PO4 9640   1.988  14.779   6.089  0.3168 -0.0958  0.0438
  623PSPI   GL1 9641   1.870  14.654   6.601  0.0138  0.1601 -0.0442
  623PSPI   GL2 9642   2.125  14.883   6.562 -0.0913 -0.4417  0.2043
  623PSPI   C1A 9643   1.816  14.535   6.969 -0.1208 -0.2016  0.0020
  623PSPI   C2A 9644   1.781  14.553   7.362  0.1270  0.1024 -0.2116
  623PSPI   C3A 9645   1.644  14.332   7.816 -0.1485 -0.0484 -0.0998
  623PSPI   C4A 9646   1.339  14.129   7.980  0.0067  0.1487  0.0700
  623PSPI   C1B 9647   2.284  14.883   6.931  0.0146 -0.2996 -0.1965
  623PSPI   C2B 9648   2.360  14.691   7.367 -0.0222  0.1816  0.0739
  623PSPI   C3B 9649   2.521  14.550   7.844 -0.0861 -0.1362 -0.0086
  623PSPI   C4B 9650   2.849  14.709   8.146 -0.0813 -0.0514 -0.0567
  624PSPI    C1 9651   9.752   6.435   5.756  0.1308 -0.0621  0.1437
  624PSPI    C2 9652   9.503   6.184   5.569  0.1082  0.1928 -0.1771
  624PSPI    C3 9653   9.897   6.157   5.507  0.1311  0.0438  0.0246
  624PSPI   PO4 9654   9.855   6.530   6.099 -0.0562  0.2274  0.0730
  624PSPI   GL1 9655   9.564   6.411   6.466  0.1213  0.0121 -0.5650
  624PSPI   GL2 9656   9.305   6.311   6.452 -0.2444 -0.0150 -0.0383
  624PSPI   C1A 9657   9.627   6.552   6.837 -0.1404 -0.0256  0.0257
  624PSPI   C2A 9658   9.766   6.865   6.986  0.1693  0.2294 -0.1815
  624PSPI   C3A 9659   9.755   7.291   6.979  0.2994  0.0181  0.1350
  624PSPI   C4A 9660   9.617   7.746   6.888  0.0054 -0.0655 -0.2463
  624PSPI   C1B 9661   9.333   6.140   6.875  0.2754  0.0908  0.0554
  624PSPI   C2B 9662   9.169   6.302   7.398 -0.3425  0.1002 -0.1682
  624PSPI   C3B 9663   9.019   6.718   7.590  0.0538 -0.1913 -0.0401
  624PSPI   C4B 9664   8.784   6.819   7.896  0.2966  0.4398  0.3436
  625PSPI    C1 9665  10.172  17.302   5.754  0.0125  0.0005 -0.1248
  625PSPI    C2 9666  10.108  16.976   5.532  0.1452 -0.0792 -0.0472
  625PSPI    C3 9667   9.823  17.255   5.564  0.0965 -0.1033 -0.2550
  625PSPI   PO4 9668  10.276  17.167   6.041 -0.1445  0.0000 -0.2528
  625PSPI   GL1 9669  10.344  17.358   6.387  0.0877  0.1283 -0.0596
  625PSPI   GL2 9670  10.054  17.462   6.564  0.0677  0.2479 -0.2360
  625PSPI   C1A 9671  10.536  17.136   6.827 -0.0803 -0.1706  0.1784
  625PSPI   C2A 9672  10.669  17.174   7.147  0.0089  0.0277 -0.3714
  625PSPI   C3A 9673  10.980  17.093   7.498  0.0321  0.1659  0.3040
  625PSPI   C4A 9674  11.342  17.141   7.804  0.2199 -0.0949  0.2232
  625PSPI   C1B 9675   9.953  17.439   6.964 -0.0697 -0.1029 -0.1087
  625PSPI   C2B 9676   9.923  17.449   7.401 -0.4223  0.2736 -0.1174
  625PSPI   C3B 9677  10.016  17.241   7.841 -0.0401 -0.0353 -0.1331
  625PSPI   C4B 9678  10.199  16.947   8.116 -0.2366 -0.4709 -0.2424
  626PSPI    C1 9679  14.660   2.172   6.354 -0.0813  0.0868  0.1284
  626PSPI    C2 9680  14.798   2.541   6.425 -0.0190  0.0606  0.1439
  626PSPI    C3 9681  14.424   2.489   6.291  0.0154  0.1372  0.0162
  626PSPI   PO4 9682  14.759   2.044   6.471  0.3947  0.0903 -0.1352
  626PSPI   GL1 9683  14.864   1.977   6.827 -0.2066  0.0891  0.1157
  626PSPI   GL2 9684  15.173   2.084   6.794  0.1194 -0.0737  0.2345
  626PSPI   C1A 9685  14.598   1.812   7.046 -0.1072 -0.2938  0.0825
  626PSPI   C2A 9686  14.354   1.674   7.443  0.2555 -0.0077 -0.2042
  626PSPI   C3A 9687  14.613   1.741   7.874  0.2516 -0.1375  0.0624
  626PSPI   C4A 9688  14.908   1.962   8.131  0.0293  0.0354  0.0056
  626PSPI   C1B 9689  15.328   1.841   7.112 -0.1995  0.0955 -0.3824
  626PSPI   C2B 9690  14.977   1.586   7.227 -0.0581  0.1368  0.1398
  626PSPI   C3B 9691  14.692   1.268   7.484 -0.2318  0.0338 -0.3336
  626PSPI   C4B 9692  14.655   1.176   7.927  0.0869  0.0736 -0.0996
  627PSPI    C1 9693  13.100   3.717   6.175 -0.0696  0.0983 -0.0070
  627PSPI    C2 9694  13.399   3.655   5.916 -0.0025  0.1895  0.0481
  627PSPI    C3 9695  13.028   3.532   5.827  0.0163  0.2366 -0.0992
  627PSPI   PO4 9696  13.307   3.662   6.467  0.0599  0.1300  0.1530
  627PSPI   GL1 9697  13.693   3.648   6.680 -0.2463 -0.2562  0.0880
  627PSPI   GL2 9698  13.881   3.792   6.823 -0.1194 -0.4219  0.0056
  627PSPI   C1A 9699  13.624   3.371   7.063 -0.0025 -0.1177 -0.0674
  627PSPI   C2A 9700  13.437   3.115   7.253  0.0304  0.0307 -0.1247
  627PSPI   C3A 9701  13.138   3.156   7.511  0.2182 -0.2625 -0.0046
  627PSPI   C4A 9702  13.016   3.089   7.819  0.1829 -0.2983  0.1887
  627PSPI   C1B 9703  13.877   3.829   7.323  0.0009 -0.0529  0.1853
  627PSPI   C2B 9704  13.916   3.969   7.715 -0.0665 -0.0438 -0.3961
  627PSPI   C3B 9705  14.111   4.120   8.064  0.0123  0.0534 -0.1287
  627PSPI   C4B 9706  13.945   4.308   8.453  0.1737 -0.0753 -0.1242
  628PSPI    C1 9707   9.306   0.780   6.162  0.1580  0.1039 -0.0401
  628PSPI    C2 9708   9.447   0.995   6.468 -0.1591  0.0937  0.1176
  628PSPI    C3 9709   9.234   1.173   6.181  0.0447  0.0835 -0.0425
  628PSPI   PO4 9710   9.142   0.592   6.324  0.2048  0.4570  0.3011
  628PSPI   GL1 9711   9.073   0.812   6.749 -0.0258  0.0722  0.2620
  628PSPI   GL2 9712   8.778   0.729   6.679  0.1968 -0.0213 -0.0122
  628PSPI   C1A 9713   8.877   0.956   7.161 -0.2103 -0.2032 -0.0240
  628PSPI   C2A 9714   8.833   1.035   7.547  0.3188 -0.0990  0.0445
  628PSPI   C3A 9715   8.679   0.682   7.880 -0.0105  0.0306 -0.1138
  628PSPI   C4A 9716   8.556   0.541   8.288  0.2791  0.1056  0.0605
  628PSPI   C1B 9717   8.379   0.806   7.006  0.3626  0.2115 -0.2871
  628PSPI   C2B 9718   8.329   0.941   7.428 -0.2738 -0.3852 -0.3132
  628PSPI   C3B 9719   8.093   1.248   7.644 -0.3175  0.1916  0.0973
  628PSPI   C4B 9720   7.829   1.579   7.623  0.3146  0.0339  0.2222
  629PSPI    C1 9721  14.301   0.656   6.323  0.1958 -0.0701 -0.1588
  629PSPI    C2 9722  14.061   0.747   6.017 -0.0655  0.2404  0.1302
  629PSPI    C3 9723  13.953   0.464   6.278 -0.0226  0.2406  0.1483
  629PSPI   PO4 9724  14.429   0.886   6.330  0.1209 -0.0261 -0.0524
  629PSPI   GL1 9725  14.625   0.888   6.692 -0.1733 -0.1004 -0.2283
  629PSPI   GL2 9726  14.883   0.998   6.871 -0.2993 -0.1744  0.0613
  629PSPI   C1A 9727  14.521   0.819   7.212 -0.1236  0.1896 -0.2112
  629PSPI   C2A 9728  14.469   0.663   7.605  0.0939  0.2332 -0.0501
  629PSPI   C3A 9729  14.222   0.866   7.746  0.3224 -0.1540  0.1097
  629PSPI   C4A 9730  13.926   0.917   8.062  0.1512 -0.0514 -0.0998
  629PSPI   C1B 9731  14.892   0.475   6.979 -0.2952  0.1053 -0.1816
  629PSPI   C2B 9732  15.127   0.108   7.258  0.1753  0.1278 -0.3388
  629PSPI   C3B 9733  15.019  -0.317   7.352 -0.0646  0.4287 -0.1718
  629PSPI   C4B 9734  14.942  -0.576   7.724 -0.2912 -0.0827 -0.0327
  630PSPI    C1 9735   7.008   4.703   5.754  0.3070  0.1319 -0.0279
  630PSPI    C2 9736   6.919   4.590   5.381  0.2046 -0.1152  0.0691
  630PSPI    C3 9737   7.171   4.894   5.443 -0.2211  0.3087 -0.2067
  630PSPI   PO4 9738   6.794   4.527   5.918 -0.2338 -0.2021  0.1033
  630PSPI   GL1 9739   6.768   4.726   6.349 -0.1075 -0.3069  0.1790
  630PSPI   GL2 9740   6.567   4.479   6.388  0.0146 -0.0847 -0.0876
  630PSPI   C1A 9741   6.871   4.768   6.815 -0.0260 -0.1357  0.2154
  630PSPI   C2A 9742   6.724   4.788   7.202  0.0949  0.0890  0.2646
  630PSPI   C3A 9743   6.730   4.764   7.545 -0.1290  0.1703 -0.0349
  630PSPI   C4A 9744   6.421   4.912   7.824  0.1607 -0.3141 -0.1477
  630PSPI   C1B 9745   6.695   4.243   6.693 -0.0368 -0.1031 -0.0320
  630PSPI   C2B 9746   6.659   4.285   7.195 -0.0550 -0.0204 -0.1366
  630PSPI   C3B 9747   7.085   4.447   7.340  0.2201  0.0074 -0.3484
  630PSPI   C4B 9748   7.203   4.778   7.508  0.1379 -0.0344 -0.1255
  631PSPI    C1 9749   1.384   0.915   6.065 -0.0989 -0.2408 -0.0390
  631PSPI    C2 9750   1.258   1.166   5.780  0.1423 -0.2660 -0.1698
  631PSPI    C3 9751   1.231   0.771   5.725  0.0694 -0.2706 -0.1027
  631PSPI   PO4 9752   1.585   1.080   6.145  0.2165 -0.1040  0.1385
  631PSPI   GL1 9753   1.662   1.238   6.497  0.0998 -0.2327 -0.1383
  631PSPI   GL2 9754   1.332   1.012   6.627  0.0800  0.0478 -0.0292
  631PSPI   C1A 9755   1.818   1.207   6.882  0.0997  0.0974  0.0914
  631PSPI   C2A 9756   1.613   1.277   7.311  0.1428  0.0729 -0.1344
  631PSPI   C3A 9757   1.363   0.999   7.643  0.2942 -0.1401  0.0508
  631PSPI   C4A 9758   1.380   0.642   8.005  0.0536 -0.7249  0.1277
  631PSPI   C1B 9759   1.385   0.926   7.032  0.0010  0.2362  0.0006
  631PSPI   C2B 9760   1.125   0.677   7.282  0.3681 -0.2956  0.0110
  631PSPI   C3B 9761   1.009   0.490   7.689  0.1625  0.0019  0.0644
  631PSPI   C4B 9762   0.798   0.340   8.081  0.1044 -0.2835 -0.1164
  632PSPI    C1 9763   2.814   5.333   5.706  0.2162  0.0730 -0.0024
  632PSPI    C2 9764   2.998   5.354   5.352  0.1041  0.1470 -0.0569
  632PSPI    C3 9765   2.604   5.419   5.376  0.0633 -0.1268  0.0410
  632PSPI   PO4 9766   2.825   5.254   6.023  0.4035  0.1597 -0.0381
  632PSPI   GL1 9767   2.675   5.361   6.452  0.0886 -0.0798  0.3292
  632PSPI   GL2 9768   2.975   5.368   6.623  0.0350 -0.1123  0.0106
  632PSPI   C1A 9769   2.508   5.486   6.843 -0.3459  0.1602  0.3028
  632PSPI   C2A 9770   2.309   5.469   7.257 -0.1162  0.1030 -0.1487
  632PSPI   C3A 9771   2.081   5.387   7.694  0.1861  0.0866 -0.1364
  632PSPI   C4A 9772   2.163   5.390   8.147  0.0185 -0.1678 -0.0881
  632PSPI   C1B 9773   3.093   5.226   6.924 -0.1622  0.1427 -0.2858
  632PSPI   C2B 9774   2.802   5.254   7.288  0.0099  0.1726  0.0634
  632PSPI   C3B 9775   2.637   5.275   7.754 -0.2151  0.0333  0.4580
  632PSPI   C4B 9776   2.707   4.923   8.113  0.2126 -0.1385  0.2989
  633PSPI    C1 9777  17.589   1.278   6.179  0.3366 -0.3196  0.1885
  633PSPI    C2 9778  17.590   0.898   6.055  0.1171 -0.2279 -0.1043
  633PSPI    C3 9779  17.718   1.189   5.812  0.1876 -0.1024  0.0808
  633PSPI   PO4 9780  17.719   1.194   6.424 -0.3254  0.0609  0.3129
  633PSPI   GL1 9781  17.643   1.057   6.880 -0.1795 -0.1972  0.3900
  633PSPI   GL2 9782  17.296   0.980   6.934  0.2118  0.0264  0.2414
  633PSPI   C1A 9783  17.817   1.150   7.273  0.0359 -0.3858 -0.0076
  633PSPI   C2A 9784  17.723   1.186   7.646 -0.0415 -0.0343 -0.0903
  633PSPI   C3A 9785  17.707   1.248   8.022  0.2157  0.1522  0.0354
  633PSPI   C4A 9786  17.792   1.427   8.438  0.1330 -0.1792  0.2147
  633PSPI   C1B 9787  17.403   0.805   7.310  0.2896 -0.1862 -0.3268
  633PSPI   C2B 9788  17.312   0.567   7.627 -0.0293 -0.0850 -0.0219
  633PSPI   C3B 9789  17.036   0.239   7.732  0.1232  0.3693  0.1882
  633PSPI   C4B 9790  16.690  -0.066   7.954 -0.0591 -0.2513 -0.2842
  634PSPI    C1 9791  10.439  11.004   5.343  0.0364  0.0743  0.0553
  634PSPI    C2 9792  10.360  11.387   5.257  0.0110  0.0218 -0.1607
  634PSPI    C3 9793  10.329  11.107   4.972 -0.1294 -0.1658  0.0357
  634PSPI   PO4 9794  10.289  11.026   5.668  0.1347  0.1782  0.1164
  634PSPI   GL1 9795  10.265  11.126   6.090 -0.2017  0.1529  0.0100
  634PSPI   GL2 9796  10.523  11.296   6.094  0.1025  0.1095  0.1512
  634PSPI   C1A 9797  10.017  11.492   6.344  0.1249 -0.5501 -0.2475
  634PSPI   C2A 9798   9.752  11.711   6.650 -0.1880  0.1499  0.0888
  634PSPI   C3A 9799   9.653  11.963   6.973  0.1785  0.1361 -0.2228
  634PSPI   C4A 9800   9.541  11.993   7.331 -0.1299  0.1050 -0.0723
  634PSPI   C1B 9801  10.793  11.405   6.432  0.0558 -0.1841 -0.1620
  634PSPI   C2B 9802  10.770  11.433   6.848  0.1189  0.1819  0.2165
  634PSPI   C3B 9803  11.090  11.475   7.248  0.1505 -0.2646 -0.1517
  634PSPI   C4B 9804  11.226  11.658   7.481  0.0813  0.3608  0.1820
  635POPI    C1 9805  16.112  12.978   5.976 -0.0079 -0.0616 -0.2801
  635POPI    C2 9806  16.444  12.756   5.996  0.1112  0.1272 -0.1229
  635POPI    C3 9807  16.265  12.815   5.644 -0.0295 -0.3686 -0.1430
  635POPI   PO4 9808  16.027  12.899   6.191  0.3201  0.1731  0.0764
  635POPI   GL1 9809  16.163  12.884   6.557  0.0099 -0.0026 -0.1341
  635POPI   GL2 9810  16.398  12.606   6.512  0.0677 -0.2185  0.3489
  635POPI   C1A 9811  15.968  12.856   6.990 -0.0591 -0.1060 -0.2472
  635POPI   D2A 9812  15.881  12.869   7.424 -0.1589  0.2936  0.2150
  635POPI   C3A 9813  15.700  13.120   7.698  0.0996  0.0949  0.0691
  635POPI   C4A 9814  15.605  13.574   7.842  0.4950  0.0536  0.2035
  635POPI   C1B 9815  16.495  12.518   6.971  0.2604 -0.1377  0.4050
  635POPI   C2B 9816  16.665  12.435   7.507 -0.1785 -0.0813  0.1702
  635POPI   C3B 9817  16.954  12.495   7.912 -0.0578 -0.3767  0.4184
  635POPI   C4B 9818  16.946  12.434   8.295  0.0415  0.0126 -0.0218
  636POPI    C1 9819   2.813   2.153   6.095 -0.0433  0.2858 -0.1738
  636POPI    C2 9820   2.495   2.029   5.886 -0.0142 -0.0487 -0.0262
  636POPI    C3 9821   2.838   2.111   5.698  0.0555 -0.4889 -0.1015
  636POPI   PO4 9822   2.726   2.232   6.334  0.0915  0.2416 -0.0089
  636POPI   GL1 9823   2.656   2.374   6.716  0.0450  0.1625  0.2704
  636POPI   GL2 9824   2.485   2.653   6.666 -0.0407  0.0460 -0.2657
  636POPI   C1A 9825   2.929   2.438   7.096  0.1225  0.0156 -0.0274
  636POPI   D2A 9826   3.239   2.693   7.283  0.0429 -0.0450  0.1067
  636POPI   C3A 9827   3.236   2.939   7.711  0.3158 -0.0809  0.1339
  636POPI   C4A 9828   3.025   2.924   8.054  0.1559 -0.2111  0.2051
  636POPI   C1B 9829   2.616   2.836   7.072  0.2885  0.0724 -0.0122
  636POPI   C2B 9830   2.782   2.928   7.372  0.1865  0.0705 -0.3176
  636POPI   C3B 9831   2.631   2.905   7.790 -0.0624 -0.0157 -0.2798
  636POPI   C4B 9832   2.284   2.613   7.843  0.1424  0.0506  0.2186
  637POPI    C1 9833   9.882  10.262   5.520 -0.0419  0.0112  0.1426
  637POPI    C2 9834  10.128  10.040   5.296 -0.1071  0.1247 -0.0439
  637POPI    C3 9835   9.963  10.370   5.144 -0.1282  0.2208  0.1829
  637POPI   PO4 9836   9.797  10.154   5.654 -0.0545 -0.1840  0.2056
  637POPI   GL1 9837   9.889  10.211   6.083  0.1803 -0.0469  0.1826
  637POPI   GL2 9838   9.974  10.573   5.999 -0.1689  0.0956  0.1494
  637POPI   C1A 9839  10.010   9.990   6.418 -0.3350  0.1292  0.0522
  637POPI   D2A 9840   9.979  10.024   6.856  0.1253 -0.0895 -0.0220
  637POPI   C3A 9841   9.669  10.293   6.968 -0.1732  0.0580  0.0214
  637POPI   C4A 9842   9.457  10.620   7.177 -0.0667 -0.0530  0.0635
  637POPI   C1B 9843   9.969  10.517   6.501  0.0258  0.0000 -0.2589
  637POPI   C2B 9844   9.936  10.724   6.873 -0.1888  0.3938  0.0712
  637POPI   C3B 9845  10.015  10.449   7.283 -0.0795  0.2952 -0.2328
  637POPI   C4B 9846   9.793  10.025   7.418  0.0970  0.0384  0.4495
  638POPI    C1 9847   0.606  11.713   5.916  0.1907  0.1711 -0.2985
  638POPI    C2 9848   0.230  11.782   6.034  0.1984 -0.2048 -0.0373
  638POPI    C3 9849   0.410  12.035   5.782 -0.1879  0.0402 -0.0755
  638POPI   PO4 9850   0.765  11.613   6.125 -0.0109  0.1064 -0.0372
  638POPI   GL1 9851   0.827  11.772   6.582  0.2647  0.1614  0.1987
  638POPI   GL2 9852   0.948  12.086   6.672  0.0776 -0.1973 -0.2464
  638POPI   C1A 9853   0.741  11.713   7.101 -0.0848  0.0538  0.2428
  638POPI   D2A 9854   0.802  11.679   7.462  0.1081 -0.1073  0.0104
  638POPI   C3A 9855   0.615  11.330   7.689  0.0755  0.1104 -0.0653
  638POPI   C4A 9856   0.545  10.934   7.988 -0.0075 -0.0085 -0.3209
  638POPI   C1B 9857   0.985  12.338   7.046 -0.0062  0.2491 -0.1015
  638POPI   C2B 9858   1.042  12.434   7.542  0.1854 -0.0560  0.1440
  638POPI   C3B 9859   1.043  12.277   7.872  0.1472 -0.3118  0.1564
  638POPI   C4B 9860   0.985  11.820   8.008 -0.2264  0.2577 -0.0902
  639POPI    C1 9861  10.559  13.883   5.717  0.1547 -0.0889 -0.0784
  639POPI    C2 9862  10.535  13.498   5.612 -0.0514 -0.1204  0.0782
  639POPI    C3 9863  10.281  13.764   5.456  0.0350 -0.0619  0.0360
  639POPI   PO4 9864  10.650  13.908   5.974 -0.2693  0.2785 -0.1258
  639POPI   GL1 9865  10.543  13.648   6.338 -0.0192  0.0610 -0.0563
  639POPI   GL2 9866  10.763  13.747   6.498  0.0394 -0.1311 -0.0538
  639POPI   C1A 9867  10.180  13.520   6.466 -0.1081  0.1311  0.2657
  639POPI   D2A 9868   9.938  13.615   6.762  0.1768  0.1334 -0.0910
  639POPI   C3A 9869  10.069  13.351   7.045  0.5740  0.1763 -0.0034
  639POPI   C4A 9870  10.202  13.521   7.429 -0.3486  0.3357 -0.1025
  639POPI   C1B 9871  10.800  13.993   6.866 -0.0405  0.2260  0.2229
  639POPI   C2B 9872  10.801  14.024   7.344  0.1333  0.0228  0.0361
  639POPI   C3B 9873  10.926  14.497   7.515  0.2367  0.0303  0.0385
  639POPI   C4B 9874  11.175  14.478   7.953  0.1926 -0.0886  0.0013
  640POPI    C1 9875   1.138   3.205   6.205  0.0373  0.1086 -0.1196
  640POPI    C2 9876   1.476   3.155   5.997  0.0232  0.0093 -0.1192
  640POPI    C3 9877   1.123   3.087   5.823  0.0006  0.1675 -0.1364
  640POPI   PO4 9878   1.204   3.094   6.533 -0.0794  0.1681  0.2697
  640POPI   GL1 9879   1.361   3.081   7.005 -0.0837  0.0887  0.4104
  640POPI   GL2 9880   1.296   3.399   6.982 -0.1416 -0.1203 -0.1937
  640POPI   C1A 9881   1.567   2.775   7.101  0.1361  0.0138  0.0643
  640POPI   D2A 9882   1.894   2.459   7.131 -0.1270 -0.0734 -0.1618
  640POPI   C3A 9883   2.057   2.209   7.472  0.2263 -0.1421  0.1278
  640POPI   C4A 9884   2.318   2.062   7.656  0.0110  0.1345 -0.1434
  640POPI   C1B 9885   1.295   3.778   7.202 -0.0666 -0.2408 -0.1138
  640POPI   C2B 9886   1.363   3.821   7.569  0.1917 -0.0407 -0.2378
  640POPI   C3B 9887   1.314   4.073   7.963  0.3791 -0.0078 -0.0942
  640POPI   C4B 9888   1.495   4.130   8.390  0.2144 -0.2032 -0.0576
  641POPI    C1 9889  10.737  11.814   5.631 -0.0338 -0.1563  0.0344
  641POPI    C2 9890  10.411  12.037   5.696  0.1122  0.0619  0.0277
  641POPI    C3 9891  10.485  11.894   5.330 -0.0262 -0.0697  0.0506
  641POPI   PO4 9892  10.818  11.724   5.898  0.0145  0.2869 -0.1409
  641POPI   GL1 9893  10.749  11.896   6.285 -0.0220 -0.0194 -0.1255
  641POPI   GL2 9894  10.379  11.757   6.183 -0.3099  0.0916 -0.1107
  641POPI   C1A 9895  10.910  11.861   6.695  0.0751  0.2041  0.0032
  641POPI   D2A 9896  10.890  11.905   7.109 -0.1428 -0.0749  0.0819
  641POPI   C3A 9897  10.577  11.753   7.410 -0.0561  0.2014  0.2214
  641POPI   C4A 9898  10.231  11.519   7.756 -0.1294 -0.2650 -0.0811
  641POPI   C1B 9899  10.341  11.789   6.611 -0.0551  0.0938  0.1579
  641POPI   C2B 9900  10.351  11.576   7.004  0.0529 -0.0227  0.2393
  641POPI   C3B 9901  10.156  11.356   7.326 -0.1996  0.0242 -0.0553
  641POPI   C4B 9902   9.838  10.895   7.457 -0.2394 -0.2815 -0.1155
  642POPI    C1 9903  17.725   2.076   6.563  0.3761  0.0825 -0.1843
  642POPI    C2 9904  17.851   1.756   6.360 -0.0430 -0.1960 -0.0193
  642POPI    C3 9905  18.014   1.845   6.715 -0.0633 -0.3447  0.0280
  642POPI   PO4 9906  17.438   2.053   6.543 -0.0409 -0.0411 -0.3218
  642POPI   GL1 9907  17.223   2.179   6.865 -0.0714  0.2132  0.0608
  642POPI   GL2 9908  17.397   2.039   7.088 -0.0423 -0.1387 -0.1862
  642POPI   C1A 9909  16.947   2.075   7.267  0.1343  0.1298 -0.2872
  642POPI   D2A 9910  16.946   1.679   7.502  0.2132  0.1801  0.0171
  642POPI   C3A 9911  17.340   1.548   7.789  0.0289 -0.2163 -0.1192
  642POPI   C4A 9912  17.437   1.600   8.241 -0.1772 -0.1909  0.1616
  642POPI   C1B 9913  17.355   2.030   7.541  0.2093 -0.0924 -0.0146
  642POPI   C2B 9914  17.223   2.041   7.996  0.2609 -0.1821  0.0120
  642POPI   C3B 9915  17.073   1.852   8.406 -0.1169  0.0737 -0.1475
  642POPI   C4B 9916  16.806   1.558   8.558  0.1234 -0.1880 -0.2533
  643POPI    C1 9917   1.109   2.311   6.086  0.0148  0.0077 -0.1233
  643POPI    C2 9918   1.219   2.677   6.202  0.0228  0.0879 -0.3767
  643POPI    C3 9919   0.838   2.604   6.107 -0.0004  0.0011 -0.2201
  643POPI   PO4 9920   1.273   2.240   6.445  0.0944  0.1009  0.0817
  643POPI   GL1 9921   1.334   2.082   6.833  0.1222 -0.3269 -0.1269
  643POPI   GL2 9922   1.019   2.092   6.910  0.2418 -0.1082  0.0752
  643POPI   C1A 9923   1.466   2.080   7.161 -0.2353  0.1700 -0.1362
  643POPI   D2A 9924   1.680   1.855   7.472  0.1256 -0.0640 -0.0898
  643POPI   C3A 9925   2.007   1.713   7.847  0.2601  0.3222 -0.0531
  643POPI   C4A 9926   2.193   1.902   8.288  0.2490  0.0186  0.0777
  643POPI   C1B 9927   1.092   2.500   7.146 -0.2898 -0.5285 -0.1467
  643POPI   C2B 9928   1.234   2.739   7.463 -0.1940  0.1444  0.1720
  643POPI   C3B 9929   1.392   2.700   7.831 -0.2594 -0.1487 -0.2234
  643POPI   C4B 9930   1.482   2.485   8.158  0.3058 -0.0370  0.1200
  644POPI    C1 9931   6.191   9.486   5.743  0.3263  0.3598  0.1675
  644POPI    C2 9932   6.233   9.770   5.465  0.1311  0.1953 -0.0336
  644POPI    C3 9933   6.375   9.403   5.398  0.0095  0.1325  0.0492
  644POPI   PO4 9934   6.280   9.593   6.032  0.3545  0.0793  0.0755
  644POPI   GL1 9935   6.497   9.969   6.266 -0.1096  0.1636  0.0253
  644POPI   GL2 9936   6.665   9.694   6.473  0.0250  0.0261 -0.3194
  644POPI   C1A 9937   6.734  10.334   6.480  0.1247  0.0425 -0.3187
  644POPI   D2A 9938   6.623  10.719   6.450 -0.5007 -0.1059 -0.1330
  644POPI   C3A 9939   6.506  10.853   6.832 -0.0730  0.0457 -0.0547
  644POPI   C4A 9940   6.391  11.013   7.276  0.4433 -0.3874  0.1863
  644POPI   C1B 9941   6.722   9.924   6.825  0.0282  0.1394  0.5797
  644POPI   C2B 9942   6.938   9.708   7.199  0.0456  0.0568 -0.1091
  644POPI   C3B 9943   7.008   9.755   7.587  0.3047 -0.0121 -0.0875
  644POPI   C4B 9944   7.148   9.899   8.031 -0.1638  0.1070 -0.2460
  645POPI    C1 9945   4.921  17.712   5.890 -0.0709  0.0794 -0.0854
  645POPI    C2 9946   4.951  17.957   5.575 -0.0346  0.1699 -0.0120
  645POPI    C3 9947   5.222  17.668   5.630 -0.1113  0.0742 -0.1316
  645POPI   PO4 9948   4.649  17.663   5.882 -0.4358  0.5593  0.2607
  645POPI   GL1 9949   4.258  17.691   6.288  0.1297  0.1478  0.3507
  645POPI   GL2 9950   4.490  17.625   6.496 -0.0425  0.0358 -0.0040
  645POPI   C1A 9951   4.037  18.000   6.554  0.1235  0.0743  0.4089
  645POPI   D2A 9952   3.640  17.927   6.744 -0.0515  0.0565 -0.0481
  645POPI   C3A 9953   3.257  17.917   6.578  0.0925 -0.0546 -0.1322
  645POPI   C4A 9954   2.927  18.060   6.525  0.2030 -0.0872 -0.3258
  645POPI   C1B 9955   4.650  17.563   6.867  0.3126 -0.2330 -0.0208
  645POPI   C2B 9956   4.702  17.575   7.263  0.2336 -0.0109 -0.0092
  645POPI   C3B 9957   5.099  17.458   7.438  0.1899 -0.0253  0.0405
  645POPI   C4B 9958   5.292  17.439   7.933 -0.0560  0.1018  0.2705
  646POPI    C1 9959  14.756  11.862   5.897 -0.1980  0.2243 -0.0744
  646POPI    C2 9960  14.747  11.464   5.856  0.4976  0.1817  0.0550
  646POPI    C3 9961  14.729  11.699   5.533  0.2040  0.0468 -0.0303
  646POPI   PO4 9962  14.643  11.844   6.177  0.2094  0.0132  0.2081
  646POPI   GL1 9963  14.621  11.861   6.551 -0.1045  0.1714 -0.2881
  646POPI   GL2 9964  14.934  11.953   6.649  0.0852 -0.1230  0.3930
  646POPI   C1A 9965  14.390  11.692   6.849 -0.1915  0.0911  0.1309
  646POPI   D2A 9966  14.192  11.710   7.241 -0.3095 -0.1652 -0.0301
  646POPI   C3A 9967  14.536  11.831   7.463 -0.0220  0.2261  0.0948
  646POPI   C4A 9968  14.841  11.963   7.861  0.2567  0.1751 -0.0960
  646POPI   C1B 9969  14.701  12.041   7.060  0.2046 -0.2077  0.2008
  646POPI   C2B 9970  14.491  12.297   7.408 -0.0204 -0.0069  0.4335
  646POPI   C3B 9971  14.217  12.268   7.809 -0.2505 -0.2962  0.1765
  646POPI   C4B 9972  14.310  12.173   8.224  0.1287 -0.0810  0.2181
  647POPI    C1 9973  10.984  13.245   5.422 -0.2783 -0.2577 -0.0647
  647POPI    C2 9974  10.761  13.383   5.120 -0.0570  0.3455  0.0315
  647POPI    C3 9975  11.084  13.159   5.044 -0.0903  0.3630 -0.1684
  647POPI   PO4 9976  10.900  13.102   5.690  0.0435  0.1607  0.1593
  647POPI   GL1 9977  11.055  12.915   6.086  0.2217 -0.0042  0.1796
  647POPI   GL2 9978  11.159  12.514   6.163  0.0042  0.0371  0.0693
  647POPI   C1A 9979  11.256  12.769   6.558  0.2378  0.0778 -0.0326
  647POPI   D2A 9980  11.472  12.806   6.982  0.2507  0.2242  0.1119
  647POPI   C3A 9981  11.749  12.448   7.154  0.1923 -0.0036  0.1755
  647POPI   C4A 9982  11.965  12.153   7.310 -0.2457  0.0065 -0.2841
  647POPI   C1B 9983  10.835  12.346   6.397 -0.0766 -0.3133  0.1027
  647POPI   C2B 9984  10.586  12.250   6.717 -0.2354 -0.0715  0.4821
  647POPI   C3B 9985  10.533  12.234   7.163  0.2211  0.2557 -0.1376
  647POPI   C4B 9986  10.133  11.944   7.217  0.0973  0.0223 -0.2006
  648POPI    C1 9987  15.539   9.927   6.001  0.0316 -0.0077 -0.1032
  648POPI    C2 9988  15.306   9.786   5.708  0.1535 -0.1917 -0.1136
  648POPI    C3 9989  15.614  10.025   5.620  0.0646 -0.0765 -0.1147
  648POPI   PO4 9990  15.643   9.678   6.233  0.1429  0.1748  0.1319
  648POPI   GL1 9991  15.806   9.475   6.573  0.0863  0.0407  0.2839
  648POPI   GL2 9992  15.894   9.797   6.667 -0.1131  0.1949 -0.1423
  648POPI   C1A 9993  15.438   9.820   6.890 -0.2535  0.2488 -0.0704
  648POPI   D2A 9994  15.066   9.596   6.958 -0.0015  0.0206 -0.1131
  648POPI   C3A 9995  15.064   9.171   7.228  0.2205  0.0851 -0.0708
  648POPI   C4A 9996  15.213   9.151   7.652  0.5284 -0.1448 -0.1396
  648POPI   C1B 9997  16.029   9.897   6.937 -0.0481  0.0287  0.2748
  648POPI   C2B 9998  15.931   9.727   7.310  0.1762  0.1821 -0.1703
  648POPI   C3B 9999  15.990   9.631   7.668  0.0241  0.1819  0.1341
  648POPI   C4B10000  16.088   9.329   8.117  0.0313 -0.0452  0.1653
  649POPI    C110001   0.472  17.795   6.480  0.1837 -0.1049  0.0774
  649POPI    C210002   0.595  17.990   6.807  0.1616  0.2802 -0.1375
  649POPI    C310003   0.832  17.969   6.486  0.1325  0.0120 -0.1438
  649POPI   PO410004   0.397  17.536   6.565 -0.3584  0.0502  0.1356
  649POPI   GL110005   0.664  17.432   6.900  0.2846  0.3375 -0.0668
  649POPI   GL210006   0.386  17.280   7.029  0.0851 -0.0727 -0.0936
  649POPI   C1A10007   0.904  17.639   7.168  0.3137 -0.1394 -0.1480
  649POPI   D2A10008   0.692  17.610   7.558  0.1752 -0.0414 -0.0335
  649POPI   C3A10009   0.226  17.680   7.595  0.3047  0.3127  0.0924
  649POPI   C4A10010  -0.172  17.612   7.343  0.1632 -0.0008 -0.0014
  649POPI   C1B10011   0.159  17.201   7.340 -0.2405  0.1813 -0.0291
  649POPI   C2B10012   0.247  17.009   7.697  0.0059  0.1068  0.0414
  649POPI   C3B10013   0.268  16.919   8.072 -0.0113 -0.2219 -0.2422
  649POPI   C4B10014   0.345  16.972   8.447  0.1574  0.0894 -0.3329
  650POPI    C110015   9.693   3.049   5.880 -0.0416 -0.0198 -0.2727
  650POPI    C210016  10.006   2.865   5.713  0.0706  0.0005 -0.0877
  650POPI    C310017   9.693   2.971   5.488  0.1522 -0.1106 -0.2557
  650POPI   PO410018   9.767   2.956   6.131 -0.4594  0.5593 -0.1646
  650POPI   GL110019   9.618   3.193   6.476 -0.1056  0.0375  0.0980
  650POPI   GL210020   9.273   3.162   6.601  0.1286  0.0321  0.0974
  650POPI   C1A10021   9.927   3.117   6.872  0.1177 -0.3809  0.2511
  650POPI   D2A10022   9.994   3.349   7.216  0.0954  0.2540 -0.1835
  650POPI   C3A10023   9.737   3.662   7.366  0.2203  0.0964  0.1094
  650POPI   C4A10024   9.416   3.879   7.078  0.0688 -0.3524 -0.0249
  650POPI   C1B10025   9.079   3.451   6.924  0.1315 -0.0935 -0.1952
  650POPI   C2B10026   9.151   3.528   7.333  0.1124 -0.0454  0.0132
  650POPI   C3B10027   9.017   3.530   7.745 -0.0060 -0.3781  0.1369
  650POPI   C4B10028   8.655   3.423   8.008  0.1894 -0.0590 -0.1299
  651POPI    C110029   5.748   8.191   5.615 -0.3112  0.1050 -0.1775
  651POPI    C210030   5.834   7.803   5.656  0.2907  0.2612  0.1483
  651POPI    C310031   6.022   8.021   5.379  0.1780  0.3873  0.1700
  651POPI   PO410032   5.797   8.256   5.831  0.0498  0.0507 -0.0538
  651POPI   GL110033   5.703   7.947   6.284  0.0159  0.0701 -0.0942
  651POPI   GL210034   5.899   8.251   6.364  0.0247  0.0290 -0.0511
  651POPI   C1A10035   5.738   7.892   6.697 -0.0822 -0.0295 -0.2013
  651POPI   D2A10036   5.597   8.054   7.036  0.1761 -0.1077 -0.2526
  651POPI   C3A10037   5.375   8.049   7.355 -0.0512 -0.1957  0.2973
  651POPI   C4A10038   5.275   8.459   7.450  0.3556  0.0881 -0.1949
  651POPI   C1B10039   5.967   8.423   6.870  0.1285 -0.2179  0.1113
  651POPI   C2B10040   5.833   8.411   7.283  0.4925 -0.0579  0.1213
  651POPI   C3B10041   5.654   8.241   7.728  0.1524 -0.2272 -0.0708
  651POPI   C4B10042   5.297   7.990   7.893  0.0112  0.0784 -0.1425
  652POPI    C110043   3.333   1.982   6.221  0.0915 -0.0461  0.1007
  652POPI    C210044   3.265   2.217   5.904 -0.4015 -0.2045  0.0798
  652POPI    C310045   3.216   1.821   5.873 -0.0896 -0.2605  0.2576
  652POPI   PO410046   3.481   2.056   6.354 -0.1264  0.0763 -0.0428
  652POPI   GL110047   3.520   1.798   6.757  0.2730 -0.0629 -0.2486
  652POPI   GL210048   3.426   1.587   6.553 -0.2175  0.0056  0.0411
  652POPI   C1A10049   3.713   1.807   7.128  0.1384 -0.2630 -0.3068
  652POPI   D2A10050   3.651   1.843   7.576  0.1082  0.2993 -0.0095
  652POPI   C3A10051   3.837   1.596   7.841 -0.1582 -0.2159  0.1191
  652POPI   C4A10052   4.056   1.527   8.283  0.2418  0.2172  0.0156
  652POPI   C1B10053   3.461   1.254   6.877 -0.1785  0.1774  0.3073
  652POPI   C2B10054   3.611   1.351   7.381  0.1741  0.1097  0.0862
  652POPI   C3B10055   3.470   1.268   7.832 -0.1985 -0.1234 -0.0664
  652POPI   C4B10056   3.379   1.340   8.243 -0.1786 -0.1803 -0.0253
  653POPI    C110057  13.038  11.390   5.727  0.0091 -0.0468 -0.3025
  653POPI    C210058  12.755  11.499   5.988  0.2248  0.0750 -0.1159
  653POPI    C310059  12.735  11.141   5.809  0.0219  0.0310 -0.0087
  653POPI   PO410060  13.210  11.332   5.836  0.2490 -0.2801  0.0858
  653POPI   GL110061  13.379  11.213   6.112  0.3568  0.1279 -0.2538
  653POPI   GL210062  13.213  11.255   6.344  0.2039 -0.1386 -0.3512
  653POPI   C1A10063  13.716  11.071   6.355 -0.0363 -0.5059  0.0265
  653POPI   D2A10064  14.154  11.006   6.579 -0.1305 -0.0824  0.2146
  653POPI   C3A10065  14.544  11.191   6.806  0.2162 -0.0913  0.0741
  653POPI   C4A10066  14.793  11.472   7.156  0.0480  0.3162  0.2000
  653POPI   C1B10067  13.308  10.859   6.541  0.0104  0.2081 -0.0444
  653POPI   C2B10068  13.315  10.644   6.921 -0.1551  0.2902  0.2607
  653POPI   C3B10069  13.481  10.461   7.267  0.2354  0.3723  0.1666
  653POPI   C4B10070  13.768  10.523   7.510  0.1691 -0.0799  0.0497
  654POPI    C110071  17.581   6.695   6.418  0.0388 -0.0718 -0.2825
  654POPI    C210072  17.625   6.827   6.043 -0.1321  0.3896 -0.1467
  654POPI    C310073  17.263   6.723   6.177 -0.0548  0.1228 -0.1388
  654POPI   PO410074  17.727   6.468   6.504  0.1534 -0.1160 -0.2460
  654POPI   GL110075  17.731   6.235   6.870 -0.4723 -0.3038 -0.0576
  654POPI   GL210076  17.493   6.343   6.925  0.0455 -0.1304 -0.1296
  654POPI   C1A10077  17.750   6.031   7.264  0.2537 -0.6192 -0.0981
  654POPI   D2A10078  17.548   6.018   7.704 -0.1394  0.2451 -0.0347
  654POPI   C3A10079  17.640   5.970   8.137 -0.1125  0.0846 -0.0798
  654POPI   C4A10080  17.451   6.278   8.404 -0.3911  0.2345  0.1533
  654POPI   C1B10081  17.610   6.593   7.195  0.1090 -0.0156 -0.0050
  654POPI   C2B10082  17.555   6.529   7.659 -0.0684  0.2573  0.2460
  654POPI   C3B10083  17.444   6.668   8.010  0.1079  0.1144  0.0722
  654POPI   C4B10084  17.460   7.171   8.167  0.0532  0.0424  0.1368
  655POPI    C110085   8.085  10.739   5.393 -0.0192 -0.1375 -0.0586
  655POPI    C210086   7.804  10.577   5.159 -0.0597 -0.0146 -0.0964
  655POPI    C310087   8.168  10.654   5.011 -0.2078  0.4403 -0.2394
  655POPI   PO410088   7.871  10.783   5.630 -0.1575 -0.0950  0.0747
  655POPI   GL110089   7.887  11.168   5.884 -0.1355  0.3284 -0.2047
  655POPI   GL210090   7.686  11.369   5.977  0.3339  0.4363  0.1556
  655POPI   C1A10091   8.082  11.611   6.049 -0.1050  0.1805  0.0464
  655POPI   D2A10092   8.414  11.887   6.116  0.2362 -0.0336  0.1852
  655POPI   C3A10093   8.654  11.628   6.486 -0.1959  0.0138 -0.1061
  655POPI   C4A10094   8.638  11.217   6.600  0.1404 -0.3675 -0.0600
  655POPI   C1B10095   7.638  11.605   6.373 -0.0292 -0.2567 -0.0285
  655POPI   C2B10096   7.742  11.734   6.748 -0.1322  0.0756  0.1429
  655POPI   C3B10097   7.918  11.897   7.057  0.3053  0.0778  0.3293
  655POPI   C4B10098   7.970  11.725   7.314  0.0872  0.1841  0.0261
  656POPI    C110099   3.157   9.424   5.852  0.2899  0.0648 -0.0143
  656POPI    C210100   3.531   9.417   5.711  0.2598 -0.2280 -0.0855
  656POPI    C310101   3.222   9.392   5.459  0.1927 -0.0722 -0.0198
  656POPI   PO410102   3.220   9.300   6.157 -0.2225  0.0478  0.0341
  656POPI   GL110103   3.245   9.505   6.637 -0.0329  0.0389 -0.1471
  656POPI   GL210104   3.523   9.221   6.642 -0.5769 -0.0105  0.2726
  656POPI   C1A10105   3.402   9.875   6.843  0.0875  0.1974 -0.0775
  656POPI   D2A10106   3.574  10.229   7.232  0.3479 -0.0397 -0.2558
  656POPI   C3A10107   3.315  10.524   7.459  0.1132 -0.1864 -0.0145
  656POPI   C4A10108   3.163  10.889   7.507 -0.0735 -0.3152  0.1863
  656POPI   C1B10109   3.452   9.340   7.022  0.2594  0.0152 -0.1837
  656POPI   C2B10110   3.312   9.525   7.294 -0.0617  0.0340  0.3478
  656POPI   C3B10111   3.372   9.824   7.637 -0.0761  0.1529  0.3339
  656POPI   C4B10112   3.614  10.206   7.769  0.1026 -0.1064  0.0260
  657POPI    C110113   3.760   6.185   5.923 -0.0420 -0.0258 -0.0805
  657POPI    C210114   3.791   6.482   5.657  0.1157  0.1882  0.1723
  657POPI    C310115   3.976   6.133   5.591 -0.0800  0.1384 -0.1316
  657POPI   PO410116   3.515   6.134   5.994  0.0331 -0.0364 -0.0081
  657POPI   GL110117   3.417   6.292   6.353  0.0571  0.0203  0.1730
  657POPI   GL210118   3.074   6.244   6.536 -0.1117 -0.0157  0.0987
  657POPI   C1A10119   3.486   6.324   6.846 -0.4031 -0.0719 -0.3191
  657POPI   D2A10120   3.784   6.238   7.187  0.1550  0.0036  0.4760
  657POPI   C3A10121   3.809   6.554   7.391 -0.1720  0.0061 -0.1923
  657POPI   C4A10122   3.913   6.764   7.640  0.1077  0.2435  0.2510
  657POPI   C1B10123   3.006   6.201   6.935 -0.1156  0.0077 -0.0601
  657POPI   C2B10124   2.679   6.250   7.228  0.0189 -0.0116 -0.0877
  657POPI   C3B10125   2.658   6.274   7.750  0.0180 -0.1262 -0.0887
  657POPI   C4B10126   2.868   6.191   8.194  0.3508  0.1550  0.0911
  658POPI    C110127  15.534   3.298   6.434  0.0998  0.1791  0.1806
  658POPI    C210128  15.795   3.325   6.133 -0.2111 -0.0532 -0.1186
  658POPI    C310129  15.531   3.619   6.196 -0.0449  0.0669  0.0287
  658POPI   PO410130  15.814   3.158   6.659  0.0344 -0.1944  0.2033
  658POPI   GL110131  16.274   3.336   6.913 -0.1364 -0.2911  0.0857
  658POPI   GL210132  15.914   3.418   7.069  0.1015  0.0868  0.0290
  658POPI   C1A10133  16.427   3.653   7.277  0.0584 -0.3112 -0.2630
  658POPI   D2A10134  16.751   3.911   7.071  0.0068  0.1769  0.1083
  658POPI   C3A10135  17.073   3.988   7.386  0.1280  0.1602  0.2775
  658POPI   C4A10136  17.365   4.118   7.633 -0.1654 -0.0082  0.2692
  658POPI   C1B10137  16.033   3.325   7.512  0.0599 -0.3847 -0.0285
  658POPI   C2B10138  16.433   3.377   7.744 -0.1285 -0.0368  0.1554
  658POPI   C3B10139  16.698   3.350   8.066 -0.1074  0.2372 -0.0961
  658POPI   C4B10140  17.009   3.733   8.276 -0.0890  0.1344  0.3743
  659POPI    C110141   6.987   2.858   6.056  0.2465 -0.0647 -0.2717
  659POPI    C210142   6.705   3.116   5.938  0.0895 -0.0884  0.0414
  659POPI    C310143   6.681   2.731   5.833  0.0135 -0.0872  0.0537
  659POPI   PO410144   7.014   2.863   6.371 -0.0086  0.2953  0.0870
  659POPI   GL110145   6.911   2.520   6.617 -0.0209  0.1321 -0.2319
  659POPI   GL210146   7.121   2.311   6.630  0.1683  0.0695 -0.2551
  659POPI   C1A10147   6.685   2.519   7.033 -0.0880 -0.1336  0.0842
  659POPI   D2A10148   6.507   2.543   7.479 -0.0086 -0.1302 -0.2030
  659POPI   C3A10149   6.669   2.835   7.713  0.0859  0.0613 -0.1151
  659POPI   C4A10150   6.649   3.045   8.062 -0.1077  0.2060  0.1482
  659POPI   C1B10151   6.964   2.058   6.901  0.0040 -0.0511 -0.0095
  659POPI   C2B10152   6.775   1.968   7.290 -0.1729  0.0950  0.1779
  659POPI   C3B10153   6.906   1.835   7.697 -0.1522  0.2120  0.0025
  659POPI   C4B10154   7.104   1.851   8.096  0.2078 -0.2123  0.2726
  660POPI    C110155  13.220   8.343   6.023 -0.0623 -0.2666 -0.1334
  660POPI    C210156  13.379   8.335   5.657 -0.3397 -0.3354 -0.2549
  660POPI    C310157  13.016   8.493   5.714 -0.1584 -0.0141  0.0488
  660POPI   PO410158  13.136   8.097   6.208 -0.2277  0.1586 -0.1591
  660POPI   GL110159  12.900   7.954   6.503  0.1374  0.1708 -0.0874
  660POPI   GL210160  13.077   7.726   6.723 -0.2605  0.2363  0.1151
  660POPI   C1A10161  12.688   8.120   6.820 -0.0963  0.2860  0.0432
  660POPI   D2A10162  12.623   7.878   7.283  0.0474  0.1269 -0.0410
  660POPI   C3A10163  12.204   7.823   7.406 -0.4022  0.2795  0.0454
  660POPI   C4A10164  11.880   7.953   7.691  0.1634 -0.2727 -0.0109
  660POPI   C1B10165  12.955   7.563   7.041 -0.2476  0.4882  0.0705
  660POPI   C2B10166  12.965   7.582   7.560  0.1329  0.1017  0.2326
  660POPI   C3B10167  12.822   7.649   7.969 -0.1132  0.2431  0.1405
  660POPI   C4B10168  12.500   7.433   8.265 -0.0583  0.3352 -0.0829
  661POPI    C110169  13.620   5.092   6.062  0.2405  0.0053 -0.0668
  661POPI    C210170  13.665   4.828   5.765  0.1200  0.0023 -0.0827
  661POPI    C310171  13.820   5.195   5.732  0.3851 -0.1016 -0.0139
  661POPI   PO410172  13.698   4.984   6.363 -0.4943  0.4360 -0.0188
  661POPI   GL110173  13.436   4.826   6.659  0.2027 -0.2207 -0.0288
  661POPI   GL210174  13.685   4.619   6.636  0.2798 -0.0088  0.1352
  661POPI   C1A10175  13.543   4.971   7.098 -0.1057  0.0413  0.1972
  661POPI   D2A10176  13.518   5.237   7.406  0.2325  0.2967 -0.2326
  661POPI   C3A10177  13.399   5.143   7.821  0.2538  0.0072  0.1049
  661POPI   C4A10178  13.328   5.404   8.156  0.0515 -0.1984 -0.2564
  661POPI   C1B10179  14.045   4.905   6.945  0.1489  0.1229  0.0093
  661POPI   C2B10180  14.059   5.250   7.344 -0.2677 -0.1319  0.3289
  661POPI   C3B10181  13.877   5.370   7.700  0.0361  0.3374  0.1952
  661POPI   C4B10182  13.958   5.286   8.099 -0.2221  0.4749 -0.0226
  662POPI    C110183  15.219  17.151   6.435  0.1286  0.2461 -0.2155
  662POPI    C210184  14.880  17.359   6.475 -0.0803 -0.0853 -0.2330
  662POPI    C310185  14.938  17.131   6.152  0.1535 -0.0430 -0.2226
  662POPI   PO410186  15.152  16.963   6.722  0.0394 -0.1889  0.0756
  662POPI   GL110187  15.330  16.882   6.975 -0.0191 -0.0405  0.0990
  662POPI   GL210188  15.508  16.622   6.997 -0.1342  0.0692 -0.4109
  662POPI   C1A10189  15.104  16.739   7.319  0.4216  0.1545 -0.2632
  662POPI   D2A10190  14.893  16.664   7.653  0.0421 -0.2331 -0.0517
  662POPI   C3A10191  14.422  16.429   7.574  0.3004 -0.0287 -0.0983
  662POPI   C4A10192  14.276  16.331   7.934 -0.2123  0.2912 -0.1875
  662POPI   C1B10193  15.861  16.572   7.379 -0.0832 -0.2134  0.0277
  662POPI   C2B10194  15.966  16.310   7.669 -0.1249  0.1375 -0.0232
  662POPI   C3B10195  15.825  15.852   7.982 -0.0699  0.2706  0.2235
  662POPI   C4B10196  15.709  15.382   8.024 -0.0233 -0.0088 -0.2678
  663POPI    C110197  10.787   4.730   5.848 -0.0412  0.1225  0.0968
  663POPI    C210198  10.753   4.956   5.520 -0.0213 -0.1688 -0.1094
  663POPI    C310199  10.427   4.862   5.733  0.0206  0.4155  0.2316
  663POPI   PO410200  11.044   4.824   6.025  0.0171 -0.0040  0.0280
  663POPI   GL110201  11.154   4.882   6.526  0.0865 -0.1223 -0.3389
  663POPI   GL210202  11.341   4.933   6.850  0.1715  0.1169 -0.1934
  663POPI   C1A10203  10.861   5.152   6.716 -0.0663 -0.2080  0.0950
  663POPI   D2A10204  10.799   5.075   7.158  0.0114  0.0337 -0.3052
  663POPI   C3A10205  10.645   4.858   7.512  0.0355  0.1636 -0.1152
  663POPI   C4A10206  10.533   4.627   7.909  0.1988 -0.0937 -0.1586
  663POPI   C1B10207  11.320   5.017   7.351  0.0468 -0.0156  0.0381
  663POPI   C2B10208  11.104   5.104   7.728 -0.0961 -0.0478  0.1021
  663POPI   C3B10209  11.386   4.976   8.138  0.2021 -0.0810 -0.0185
  663POPI   C4B10210  11.656   5.000   8.396 -0.1188 -0.1895 -0.1442
  664POPI    C110211  13.235   1.327   6.255  0.1426 -0.1251  0.0417
  664POPI    C210212  13.059   1.030   6.053  0.1990 -0.1460  0.0229
  664POPI    C310213  13.163   1.367   5.864 -0.2786  0.0728  0.1345
  664POPI   PO410214  13.360   1.141   6.465 -0.1892 -0.0047 -0.1778
  664POPI   GL110215  13.660   1.034   6.848 -0.1522  0.0622 -0.0692
  664POPI   GL210216  13.890   1.316   7.019  0.3029  0.3803 -0.1773
  664POPI   C1A10217  13.449   1.235   7.227  0.0733 -0.2046  0.1134
  664POPI   D2A10218  13.216   1.184   7.631 -0.1668  0.2354 -0.0541
  664POPI   C3A10219  13.315   1.383   7.976  0.0109 -0.1160  0.2357
  664POPI   C4A10220  13.319   1.668   8.229  0.2599 -0.0590 -0.0853
  664POPI   C1B10221  13.780   1.475   7.501  0.1533 -0.3048  0.0272
  664POPI   C2B10222  13.777   1.395   8.033 -0.0189  0.3196 -0.0211
  664POPI   C3B10223  13.522   1.005   8.223  0.0760 -0.1377 -0.3323
  664POPI   C4B10224  13.682   0.790   8.603 -0.0459 -0.0346 -0.1203
  665POPI    C110225   0.832  12.782   6.275 -0.2561  0.1818  0.3003
  665POPI    C210226   0.620  13.112   6.352 -0.2150  0.3076 -0.1019
  665POPI    C310227   0.697  13.007   5.974  0.0246 -0.0046  0.0287
  665POPI   PO410228   0.733  12.629   6.423 -0.0243 -0.1232  0.0297
  665POPI   GL110229   0.675  12.731   6.858  0.0725 -0.2379 -0.3526
  665POPI   GL210230   0.533  12.913   6.804 -0.2015  0.0350  0.2580
  665POPI   C1A10231   0.783  12.760   7.250 -0.0588 -0.2450  0.1068
  665POPI   D2A10232   0.940  12.998   7.608  0.1088  0.0610  0.2718
  665POPI   C3A10233   0.889  12.877   8.078  0.1030 -0.2071  0.0644
  665POPI   C4A10234   0.592  12.651   8.270 -0.1875  0.0444 -0.2481
  665POPI   C1B10235   0.268  13.225   6.998  0.0970  0.0537 -0.2029
  665POPI   C2B10236   0.015  13.268   7.387 -0.0603 -0.1204 -0.1634
  665POPI   C3B10237   0.134  13.336   7.746  0.0592  0.0383 -0.2315
  665POPI   C4B10238   0.483  13.189   8.002  0.1341 -0.1168 -0.0894
  666POPI    C110239   0.812  15.291   6.282  0.0276 -0.0092  0.1683
  666POPI    C210240   0.630  15.632   6.178 -0.0986 -0.0118  0.3755
  666POPI    C310241   0.500  15.284   6.031  0.0501  0.0299  0.1392
  666POPI   PO410242   1.044  15.355   6.307  0.0630  0.1392  0.0920
  666POPI   GL110243   1.247  15.219   6.602  0.4819  0.1045  0.0640
  666POPI   GL210244   1.005  15.096   6.741  0.0944 -0.0053  0.0070
  666POPI   C1A10245   1.208  15.508   6.946  0.1038 -0.0334 -0.1996
  666POPI   D2A10246   1.292  15.495   7.371  0.2286  0.0522  0.1560
  666POPI   C3A10247   1.339  15.824   7.609 -0.1287 -0.0212 -0.0442
  666POPI   C4A10248   1.421  15.855   7.984 -0.2128  0.1070 -0.2914
  666POPI   C1B10249   0.991  14.975   7.158  0.2923  0.0577  0.3360
  666POPI   C2B10250   1.132  14.933   7.557 -0.1120 -0.1168 -0.0485
  666POPI   C3B10251   1.516  14.820   7.926 -0.1805  0.0417  0.1295
  666POPI   C4B10252   1.821  14.972   8.289 -0.0252  0.1418 -0.0572
  667POPI    C110253  16.089  12.121   6.324  0.3509 -0.0016 -0.1159
  667POPI    C210254  16.067  12.442   6.087 -0.0952  0.0352 -0.0333
  667POPI    C310255  16.111  12.078   5.927 -0.1785  0.0804 -0.1610
  667POPI   PO410256  16.258  12.074   6.550 -0.0487 -0.1442  0.0901
  667POPI   GL110257  16.295  11.912   6.922  0.1950  0.0372  0.0317
  667POPI   GL210258  16.110  12.168   6.984 -0.0388 -0.0823 -0.0249
  667POPI   C1A10259  16.330  11.940   7.359  0.1661 -0.0831 -0.0168
  667POPI   D2A10260  16.645  11.937   7.645 -0.2979  0.1180  0.2984
  667POPI   C3A10261  16.445  11.735   7.874 -0.4088  0.1425 -0.0727
  667POPI   C4A10262  16.666  11.441   8.262 -0.0281 -0.0755  0.3476
  667POPI   C1B10263  16.187  12.458   7.353 -0.5126  0.1556 -0.3146
  667POPI   C2B10264  16.265  12.211   7.772  0.0619 -0.5265  0.2057
  667POPI   C3B10265  16.404  12.146   8.197 -0.0690 -0.2146  0.0917
  667POPI   C4B10266  16.840  11.938   8.449 -0.0468 -0.1701 -0.0762
  668POPI    C110267  14.082   6.619   5.987  0.3023  0.2198 -0.0569
  668POPI    C210268  13.813   6.914   6.016  0.1779  0.1012  0.0071
  668POPI    C310269  13.790   6.650   5.716  0.0304 -0.0979  0.1902
  668POPI   PO410270  14.196   6.673   6.320  0.2162 -0.0968 -0.0477
  668POPI   GL110271  14.054   6.554   6.610  0.0025  0.0476  0.0302
  668POPI   GL210272  13.728   6.609   6.625  0.2436 -0.1210 -0.0209
  668POPI   C1A10273  13.992   6.417   6.974  0.2910  0.2115 -0.1350
  668POPI   D2A10274  13.904   5.887   6.998  0.1881  0.1799  0.1996
  668POPI   C3A10275  13.586   5.673   7.021 -0.0522  0.1890 -0.4400
  668POPI   C4A10276  13.430   5.610   6.690 -0.0162  0.3973  0.2711
  668POPI   C1B10277  13.578   6.716   7.119  0.0659 -0.0317 -0.2072
  668POPI   C2B10278  13.396   6.766   7.534  0.1355  0.1000  0.0948
  668POPI   C3B10279  13.266   6.592   7.873 -0.2403  0.0346 -0.0153
  668POPI   C4B10280  13.119   6.593   8.406 -0.0505 -0.0072 -0.2415
  669POPI    C110281  10.081   4.150   5.934 -0.0646  0.1276  0.0023
  669POPI    C210282  10.263   4.055   5.591 -0.0197  0.1116  0.0304
  669POPI    C310283  10.141   4.431   5.656  0.1332  0.1551  0.0712
  669POPI   PO410284   9.931   3.984   5.960  0.0671 -0.0868  0.3434
  669POPI   GL110285   9.712   4.011   6.314  0.1942  0.0737  0.1082
  669POPI   GL210286   9.942   3.795   6.436  0.1668  0.2017  0.3273
  669POPI   C1A10287   9.660   4.169   6.761 -0.0274  0.0164  0.3114
  669POPI   D2A10288   9.303   4.399   7.114  0.1452  0.1025  0.1121
  669POPI   C3A10289   8.889   4.251   7.110  0.3621 -0.1366 -0.0413
  669POPI   C4A10290   8.695   3.818   7.190  0.1049  0.1377  0.1917
  669POPI   C1B10291  10.006   3.672   6.791  0.0199 -0.0348  0.1504
  669POPI   C2B10292  10.293   3.738   7.111 -0.3188 -0.0903  0.1036
  669POPI   C3B10293  10.219   3.813   7.534  0.1167 -0.0087  0.0520
  669POPI   C4B10294   9.919   3.917   7.783  0.0486 -0.2888  0.0276
  670POPI    C110295  13.683  17.546   6.208 -0.0042 -0.0743 -0.0627
  670POPI    C210296  13.468  17.500   5.874 -0.0520 -0.3723  0.0061
  670POPI    C310297  13.331  17.732   6.170 -0.0534 -0.1825 -0.1411
  670POPI   PO410298  13.759  17.319   6.366 -0.1033 -0.2164  0.1710
  670POPI   GL110299  13.661  17.223   6.767 -0.1447 -0.0624  0.1530
  670POPI   GL210300  13.972  17.179   6.811 -0.2077  0.0079  0.0135
  670POPI   C1A10301  13.557  17.167   7.150  0.1922 -0.0132 -0.0567
  670POPI   D2A10302  13.594  17.086   7.563  0.2653 -0.2857 -0.3811
  670POPI   C3A10303  13.377  17.203   7.882  0.1946 -0.3142 -0.0786
  670POPI   C4A10304  13.198  17.471   8.287 -0.0013  0.0171 -0.1566
  670POPI   C1B10305  14.013  17.438   7.175 -0.4187 -0.0654  0.2100
  670POPI   C2B10306  13.965  17.436   7.626 -0.1264  0.0252 -0.1538
  670POPI   C3B10307  14.049  17.108   7.922  0.0419 -0.1853 -0.0046
  670POPI   C4B10308  14.256  16.794   8.193 -0.1800  0.0790  0.0361
  671POPI    C110309   8.074  13.631   5.510 -0.1093 -0.0407  0.0958
  671POPI    C210310   7.743  13.821   5.629 -0.0681  0.1830 -0.1373
  671POPI    C310311   8.102  13.962   5.732 -0.0395  0.1469 -0.1873
  671POPI   PO410312   7.975  13.369   5.611 -0.1747 -0.1301 -0.1359
  671POPI   GL110313   8.130  13.017   5.806  0.1451 -0.3523 -0.2280
  671POPI   GL210314   8.153  12.588   5.838 -0.2649  0.1743  0.3397
  671POPI   C1A10315   7.944  13.078   6.310 -0.1652 -0.1309 -0.0808
  671POPI   D2A10316   7.669  12.957   6.673 -0.2356  0.1088 -0.0626
  671POPI   C3A10317   7.641  13.278   6.775  0.4244 -0.2713 -0.1285
  671POPI   C4A10318   7.403  13.667   6.698  0.2760  0.0972  0.1264
  671POPI   C1B10319   8.349  12.773   6.197 -0.0994  0.1050 -0.2252
  671POPI   C2B10320   8.546  13.153   6.179  0.0397 -0.1403 -0.0787
  671POPI   C3B10321   8.885  13.455   6.304 -0.1638  0.0104  0.0919
  671POPI   C4B10322   9.229  13.498   6.272 -0.0257 -0.0485  0.1890
  672POPI    C110323   6.475  15.249   6.077  0.0561 -0.2355 -0.0459
  672POPI    C210324   6.765  15.115   5.836  0.2261  0.0494 -0.0048
  672POPI    C310325   6.611  15.479   5.780 -0.1971 -0.1357 -0.0867
  672POPI   PO410326   6.569  15.267   6.351 -0.0947  0.0843  0.1873
  672POPI   GL110327   6.533  14.978   6.760 -0.1117 -0.2382  0.1094
  672POPI   GL210328   6.409  15.302   6.879  0.1154 -0.0551  0.0385
  672POPI   C1A10329   6.604  14.803   7.159  0.1835  0.2033  0.0858
  672POPI   D2A10330   6.536  14.437   7.428 -0.1036 -0.0270 -0.1357
  672POPI   C3A10331   6.502  14.599   7.876  0.2511 -0.0124  0.3941
  672POPI   C4A10332   6.463  14.743   8.302  0.2439 -0.0329 -0.0511
  672POPI   C1B10333   6.579  15.588   7.286  0.0131  0.1122  0.0544
  672POPI   C2B10334   6.608  15.764   7.722 -0.0964  0.0455 -0.0088
  672POPI   C3B10335   6.824  15.758   8.087 -0.4242 -0.1897 -0.2257
  672POPI   C4B10336   7.027  16.112   8.329 -0.2253 -0.1483 -0.0695
  673POPI    C110337  11.443   1.870   5.846  0.1756 -0.2190 -0.2721
  673POPI    C210338  11.133   1.855   5.593  0.0853 -0.0097 -0.1761
  673POPI    C310339  11.335   2.197   5.643 -0.0773  0.0307  0.2454
  673POPI   PO410340  11.310   1.783   6.124  0.0139  0.0267 -0.0212
  673POPI   GL110341  11.550   1.672   6.485  0.0672  0.0213 -0.3427
  673POPI   GL210342  11.819   1.741   6.648  0.0212  0.0626  0.1571
  673POPI   C1A10343  11.246   1.645   6.867  0.0368 -0.1601  0.0561
  673POPI   D2A10344  10.862   1.756   7.034  0.2722 -0.0743  0.2381
  673POPI   C3A10345  10.654   1.492   7.116  0.1507  0.0726  0.1766
  673POPI   C4A10346  10.453   1.181   7.120 -0.1689 -0.0464  0.3615
  673POPI   C1B10347  11.665   1.787   7.107 -0.1194  0.0622 -0.0481
  673POPI   C2B10348  11.746   1.896   7.572 -0.0577  0.0289  0.3604
  673POPI   C3B10349  11.827   1.731   7.912  0.0166 -0.2612  0.0828
  673POPI   C4B10350  12.028   1.806   8.372 -0.1343 -0.2351 -0.2014
  674POPI    C110351   4.196   6.454   5.961  0.2418  0.4741  0.1302
  674POPI    C210352   4.345   6.512   5.594 -0.0905  0.1803 -0.0566
  674POPI    C310353   4.439   6.181   5.798 -0.4330  0.0180 -0.1545
  674POPI   PO410354   4.245   6.750   6.091 -0.0693  0.2222  0.2424
  674POPI   GL110355   4.087   6.877   6.511  0.0768 -0.0712 -0.1230
  674POPI   GL210356   4.186   7.080   6.432 -0.1574  0.3687 -0.1697
  674POPI   C1A10357   3.976   7.105   6.889  0.2201  0.3544 -0.0337
  674POPI   D2A10358   3.910   7.106   7.304 -0.1634  0.2116  0.3918
  674POPI   C3A10359   4.230   7.161   7.612 -0.1061  0.4453 -0.1684
  674POPI   C4A10360   4.582   7.522   7.736  0.2640  0.1411  0.0963
  674POPI   C1B10361   4.428   7.340   6.646 -0.2818 -0.1749  0.2729
  674POPI   C2B10362   4.470   7.746   6.703 -0.0526  0.0125 -0.0720
  674POPI   C3B10363   4.708   8.070   6.618 -0.4575  0.1707  0.4107
  674POPI   C4B10364   4.990   8.432   6.785 -0.0291  0.1367  0.1004
  675POPI    C110365   5.669  13.830   5.446 -0.2144  0.2201 -0.0510
  675POPI    C210366   5.556  14.158   5.247 -0.0925  0.1367 -0.2612
  675POPI    C310367   5.608  13.813   5.051  0.2673  0.1101 -0.1273
  675POPI   PO410368   5.586  13.846   5.709  0.1457  0.4112  0.2860
  675POPI   GL110369   5.616  14.041   6.021 -0.0065 -0.0253 -0.2084
  675POPI   GL210370   5.857  14.164   6.225  0.2349 -0.2249  0.2286
  675POPI   C1A10371   5.346  14.091   6.349 -0.3190 -0.1700 -0.0051
  675POPI   D2A10372   4.979  14.025   6.619 -0.0123  0.0989 -0.0315
  675POPI   C3A10373   4.872  14.251   6.892  0.4371 -0.0010  0.1237
  675POPI   C4A10374   4.821  14.322   7.465  0.3972 -0.0184 -0.2911
  675POPI   C1B10375   5.788  13.985   6.599 -0.1340  0.0916 -0.1828
  675POPI   C2B10376   5.721  13.957   6.978  0.0283  0.1196  0.3636
  675POPI   C3B10377   5.961  13.810   7.293  0.1362 -0.0172 -0.3510
  675POPI   C4B10378   6.083  13.780   7.752 -0.1755  0.0655  0.0066
  676POPI    C110379   4.798  14.408   5.564 -0.2510 -0.2302  0.1351
  676POPI    C210380   4.856  14.262   5.196 -0.1108 -0.2199  0.1525
  676POPI    C310381   4.929  14.648   5.272 -0.3131 -0.1797  0.1486
  676POPI   PO410382   4.530  14.354   5.699  0.1110  0.1105 -0.2341
  676POPI   GL110383   4.260  14.464   6.012 -0.0328  0.1553  0.0885
  676POPI   GL210384   4.495  14.670   6.060 -0.0017  0.1089  0.1507
  676POPI   C1A10385   4.073  14.353   6.386  0.0547 -0.0283 -0.1411
  676POPI   D2A10386   3.635  14.319   6.436  0.0339 -0.2058 -0.1284
  676POPI   C3A10387   3.478  14.371   6.866  0.0503  0.0598  0.3169
  676POPI   C4A10388   3.290  14.245   7.259  0.2165 -0.0218  0.1656
  676POPI   C1B10389   4.366  14.840   6.422 -0.2459  0.0429  0.0511
  676POPI   C2B10390   4.249  15.140   6.730 -0.0919  0.1149 -0.1107
  676POPI   C3B10391   4.093  14.983   7.095  0.2197 -0.2031 -0.0343
  676POPI   C4B10392   4.111  14.772   7.521 -0.0389 -0.0176 -0.1219
  677POPI    C110393   7.067  17.035   5.898  0.2118  0.1950 -0.1779
  677POPI    C210394   6.875  16.700   5.794  0.0340  0.2674 -0.0887
  677POPI    C310395   7.269  16.733   5.733  0.0632  0.0192 -0.0423
  677POPI   PO410396   6.916  17.119   6.161 -0.1364 -0.0074 -0.0972
  677POPI   GL110397   6.613  17.234   6.405 -0.1815 -0.0072 -0.3523
  677POPI   GL210398   6.815  17.493   6.544  0.0687 -0.3307  0.1861
  677POPI   C1A10399   6.318  17.082   6.625  0.1892  0.1444 -0.1429
  677POPI   D2A10400   6.563  16.862   7.009  0.0482 -0.3344  0.0716
  677POPI   C3A10401   6.254  16.550   7.306 -0.1122 -0.1358 -0.3587
  677POPI   C4A10402   6.379  16.485   7.664  0.0605 -0.0087 -0.1312
  677POPI   C1B10403   6.606  17.387   6.939 -0.2788 -0.1376  0.0548
  677POPI   C2B10404   6.691  17.361   7.319  0.0503 -0.5078  0.0060
  677POPI   C3B10405   6.486  17.614   7.531 -0.0124  0.0116 -0.0206
  677POPI   C4B10406   6.396  17.981   7.736 -0.0427 -0.3741  0.4297
  678POPI    C110407   6.050   1.152   6.056  0.1582  0.2375  0.1416
  678POPI    C210408   5.808   1.462   5.986 -0.2993 -0.1156  0.1095
  678POPI    C310409   5.923   1.227   5.684 -0.0949 -0.0799  0.1586
  678POPI   PO410410   5.904   1.053   6.305  0.1990  0.0366 -0.1498
  678POPI   GL110411   6.053   0.913   6.713  0.2799 -0.0808 -0.2656
  678POPI   GL210412   6.082   0.601   6.585  0.0105  0.1369 -0.1374
  678POPI   C1A10413   5.678   0.772   6.875 -0.0267 -0.3646  0.4170
  678POPI   D2A10414   5.419   0.827   7.205  0.0388 -0.0450 -0.4652
  678POPI   C3A10415   5.352   0.632   7.547  0.0177 -0.2976 -0.1710
  678POPI   C4A10416   5.038   0.397   7.754 -0.2830 -0.2753  0.1632
  678POPI   C1B10417   6.081   0.436   7.038  0.1068  0.0900  0.1147
  678POPI   C2B10418   6.005   0.263   7.392  0.0221 -0.2928  0.2769
  678POPI   C3B10419   5.922   0.022   7.710 -0.0816 -0.0097 -0.0489
  678POPI   C4B10420   5.596  -0.276   7.640  0.1344 -0.2929 -0.1278
  679POPI    C110421   6.162  13.686   5.227 -0.1203 -0.1070  0.1425
  679POPI    C210422   5.871  13.412   5.225 -0.1531 -0.0721  0.0135
  679POPI    C310423   6.034  13.534   4.881  0.0459 -0.1243  0.0874
  679POPI   PO410424   6.394  13.601   5.385  0.0009 -0.1600 -0.3336
  679POPI   GL110425   6.359  13.529   5.921  0.1192 -0.0606 -0.3380
  679POPI   GL210426   6.323  13.155   6.027  0.3208 -0.2041 -0.1408
  679POPI   C1A10427   5.991  13.680   6.163  0.0766  0.0552 -0.3760
  679POPI   D2A10428   5.842  13.528   6.581  0.2108  0.1703 -0.1077
  679POPI   C3A10429   5.845  13.110   6.294  0.1256  0.1660 -0.2572
  679POPI   C4A10430   5.842  12.846   5.929  0.0470  0.1545  0.0734
  679POPI   C1B10431   6.252  13.299   6.395 -0.0826  0.1097 -0.2197
  679POPI   C2B10432   6.317  13.407   6.788 -0.1854  0.0122  0.0772
  679POPI   C3B10433   6.131  13.385   7.136  0.0199  0.0062 -0.3119
  679POPI   C4B10434   6.052  13.247   7.613 -0.1843 -0.1259 -0.0995
  680POPI    C110435  16.829  11.215   6.167  0.0373  0.0677  0.2252
  680POPI    C210436  17.158  11.008   6.259  0.0482 -0.1006 -0.1736
  680POPI    C310437  16.829  10.817   6.135 -0.0632  0.0961 -0.1852
  680POPI   PO410438  16.816  11.418   6.386 -0.3995 -0.1094 -0.2687
  680POPI   GL110439  16.446  11.417   6.663  0.1107 -0.1234 -0.1610
  680POPI   GL210440  16.354  11.220   6.752  0.1926  0.0398 -0.0677
  680POPI   C1A10441  16.213  11.463   7.189 -0.1885  0.2074 -0.2272
  680POPI   D2A10442  16.053  11.570   7.540  0.0574 -0.1554 -0.1177
  680POPI   C3A10443  16.108  11.330   7.971 -0.0400 -0.1414  0.3448
  680POPI   C4A10444  16.182  11.579   8.324 -0.0369  0.2289  0.1442
  680POPI   C1B10445  16.598  11.174   7.120  0.0557 -0.2884 -0.0125
  680POPI   C2B10446  16.651  11.480   7.424 -0.1806  0.1677 -0.3361
  680POPI   C3B10447  16.874  11.477   7.764 -0.2442  0.0767 -0.0126
  680POPI   C4B10448  17.298  11.540   7.870  0.0385 -0.1281  0.5123
  681POPI    C110449  14.070  16.825   6.445  0.0736  0.0396 -0.0929
  681POPI    C210450  13.821  16.512   6.439  0.0029  0.0795  0.3681
  681POPI    C310451  13.701  16.866   6.295  0.0316 -0.0637 -0.0189
  681POPI   PO410452  14.214  16.742   6.656  0.2249 -0.1523 -0.1687
  681POPI   GL110453  14.253  16.399   6.969  0.1392 -0.0687  0.3251
  681POPI   GL210454  14.002  16.310   6.831  0.0100 -0.0269  0.1348
  681POPI   C1A10455  14.327  16.047   7.148  0.0108 -0.1708  0.1590
  681POPI   D2A10456  14.207  15.919   7.553  0.0081  0.1132  0.0729
  681POPI   C3A10457  14.282  15.519   7.764 -0.2633  0.0746  0.0796
  681POPI   C4A10458  14.182  15.054   7.894 -0.0676  0.1698 -0.0369
  681POPI   C1B10459  13.825  16.358   7.265  0.0400  0.1047  0.0394
  681POPI   C2B10460  13.858  16.270   7.642  0.1698  0.0963 -0.1242
  681POPI   C3B10461  13.631  16.168   8.065 -0.3338  0.0131  0.2413
  681POPI   C4B10462  13.469  15.886   8.364 -0.0968  0.1244  0.1569
  682POPS   CNO10463   3.542   7.775   6.020 -0.4943  0.1219 -0.0924
  682POPS   PO410464   3.272   8.206   5.833 -0.0885 -0.3867  0.2357
  682POPS   GL110465   3.239   8.136   6.315 -0.0211 -0.1011 -0.1258
  682POPS   GL210466   3.329   8.383   6.611 -0.3357  0.1536 -0.1699
  682POPS   C1A10467   3.548   7.953   6.643  0.0028  0.0426  0.1487
  682POPS   D2A10468   3.913   8.046   6.852 -0.0118 -0.1829 -0.0298
  682POPS   C3A10469   3.880   8.414   6.907  0.0020  0.0388  0.1303
  682POPS   C4A10470   3.674   8.874   7.005 -0.3244 -0.1339 -0.0340
  682POPS   C1B10471   3.413   8.421   7.029 -0.0896  0.1286  0.0300
  682POPS   C2B10472   3.491   8.569   7.498  0.0172 -0.2416 -0.0251
  682POPS   C3B10473   3.476   8.331   7.929  0.0156 -0.0023 -0.1576
  682POPS   C4B10474   3.640   7.937   8.054 -0.3598  0.1349 -0.5074
  683POPS   CNO10475  11.402  13.630   5.689 -0.0061  0.3810 -0.1065
  683POPS   PO410476  11.234  13.931   5.871  0.1368  0.1343 -0.2611
  683POPS   GL110477  11.200  13.806   6.258 -0.0289 -0.2158 -0.0835
  683POPS   GL210478  11.140  13.429   6.375  0.0074  0.1083  0.0329
  683POPS   C1A10479  11.157  14.166   6.636  0.2527 -0.2371  0.0619
  683POPS   D2A10480  11.403  14.506   6.778  0.0335 -0.0833 -0.2481
  683POPS   C3A10481  11.433  14.819   7.080  0.1613  0.1074 -0.1314
  683POPS   C4A10482  11.828  15.002   7.372  0.0171  0.0556  0.0387
  683POPS   C1B10483  10.773  13.172   6.447 -0.2711 -0.0889  0.5113
  683POPS   C2B10484  10.496  13.191   6.798  0.1353  0.0332  0.1756
  683POPS   C3B10485  10.278  12.764   7.035 -0.1987 -0.1254 -0.0258
  683POPS   C4B10486  10.344  12.583   7.496 -0.0620 -0.0052  0.0838
  684POPS   CNO10487   8.968   3.658   5.146  0.2269  0.0551  0.3352
  684POPS   PO410488   9.135   3.587   5.634 -0.2330  0.2353  0.0951
  684POPS   GL110489   8.908   3.731   6.046  0.0511 -0.0642  0.0946
  684POPS   GL210490   9.080   3.911   6.188 -0.1416 -0.0504 -0.0563
  684POPS   C1A10491   8.601   3.984   6.403 -0.0320  0.0405 -0.0684
  684POPS   D2A10492   8.449   4.176   6.829 -0.1261  0.0759  0.1868
  684POPS   C3A10493   8.185   4.055   7.131  0.0424  0.0405 -0.0128
  684POPS   C4A10494   8.004   4.144   7.456  0.2252 -0.3125 -0.1803
  684POPS   C1B10495   9.421   3.747   6.612 -0.3136  0.2353 -0.2841
  684POPS   C2B10496   9.577   3.474   6.858  0.0075  0.0752 -0.2430
  684POPS   C3B10497   9.468   3.146   7.185 -0.1810 -0.1248  0.1605
  684POPS   C4B10498   9.264   2.826   7.419  0.0242 -0.1374  0.1622
  685POPS   CNO10499  13.197  13.565   5.801 -0.0399 -0.1095  0.1082
  685POPS   PO410500  12.810  13.547   6.045 -0.0277  0.1135  0.1251
  685POPS   GL110501  12.800  13.451   6.454  0.3444 -0.2002 -0.1197
  685POPS   GL210502  12.901  13.275   6.579 -0.2566 -0.4294  0.0953
  685POPS   C1A10503  12.756  13.827   6.824  0.0188 -0.1186 -0.1422
  685POPS   D2A10504  12.575  14.013   7.219  0.0507 -0.1063  0.1243
  685POPS   C3A10505  12.593  14.453   7.343  0.3452 -0.0994 -0.1672
  685POPS   C4A10506  12.411  14.808   7.662 -0.2066 -0.0367 -0.0941
  685POPS   C1B10507  12.855  13.363   7.093 -0.0887  0.1621 -0.0724
  685POPS   C2B10508  12.779  13.592   7.381  0.0496  0.0109  0.0513
  685POPS   C3B10509  12.659  13.928   7.692  0.2029 -0.1378 -0.4131
  685POPS   C4B10510  12.410  13.930   8.027  0.0034  0.0320 -0.1111
  686POPS   CNO10511  10.340   5.892   5.744 -0.0055  0.1714 -0.1874
  686POPS   PO410512  10.139   6.078   5.955  0.2492 -0.0666 -0.1638
  686POPS   GL110513  10.113   6.209   6.458 -0.0484  0.0499  0.2747
  686POPS   GL210514  10.095   6.533   6.550  0.1698 -0.2299  0.2736
  686POPS   C1A10515   9.854   6.065   6.851  0.2436 -0.0231  0.0534
  686POPS   D2A10516   9.761   6.242   7.248  0.1351 -0.0846 -0.0772
  686POPS   C3A10517   9.817   6.056   7.644  0.1154  0.2054 -0.2169
  686POPS   C4A10518   9.933   5.616   7.721  0.1036  0.1307  0.3156
  686POPS   C1B10519  10.280   6.868   6.703 -0.1632  0.0211  0.3920
  686POPS   C2B10520  10.581   7.026   7.058  0.5613  0.3261  0.2812
  686POPS   C3B10521  10.686   7.450   7.095  0.1221  0.1347 -0.0695
  686POPS   C4B10522  10.910   7.860   7.189 -0.0750  0.1139  0.1080
  687POPS   CNO10523  11.688   8.916   6.257  0.0223 -0.2452 -0.0946
  687POPS   PO410524  11.527   8.468   6.233 -0.2356 -0.4070 -0.0239
  687POPS   GL110525  11.510   8.368   6.613  0.2092 -0.0636 -0.0212
  687POPS   GL210526  11.595   8.131   6.829 -0.0263  0.1265  0.0238
  687POPS   C1A10527  11.363   8.610   6.912 -0.2369 -0.0435 -0.1842
  687POPS   D2A10528  11.073   8.830   7.162  0.0555  0.1818  0.0730
  687POPS   C3A10529  11.262   8.736   7.532  0.0741 -0.1427  0.2507
  687POPS   C4A10530  11.282   8.843   7.932  0.0801 -0.1307  0.1553
  687POPS   C1B10531  11.506   8.220   7.154  0.0364 -0.0921 -0.2491
  687POPS   C2B10532  11.125   8.295   7.364 -0.0155  0.0311  0.3896
  687POPS   C3B10533  10.745   8.146   7.614 -0.0758  0.4420  0.1775
  687POPS   C4B10534  10.279   8.180   7.571 -0.3199 -0.1307 -0.1503
  688POPS   CNO10535   0.741  14.485   6.280 -0.0386 -0.1265 -0.0079
  688POPS   PO410536   0.349  14.161   6.271  0.4093 -0.0143 -0.1773
  688POPS   GL110537   0.357  14.221   6.624  0.2399 -0.2637 -0.0210
  688POPS   GL210538   0.140  13.977   6.748  0.1026 -0.2073  0.0341
  688POPS   C1A10539   0.559  14.309   6.921 -0.0947  0.0169  0.1507
  688POPS   D2A10540   0.490  14.125   7.306  0.2892 -0.3373 -0.0516
  688POPS   C3A10541   0.365  14.352   7.621  0.3288 -0.0700  0.1349
  688POPS   C4A10542   0.324  14.067   7.928 -0.1977  0.4164 -0.0587
  688POPS   C1B10543  -0.167  13.860   7.125 -0.0946 -0.1837  0.0257
  688POPS   C2B10544  -0.315  13.650   7.567 -0.2901  0.3915  0.1667
  688POPS   C3B10545  -0.355  13.393   7.865 -0.0035 -0.0441  0.0798
  688POPS   C4B10546  -0.422  13.533   8.383 -0.1837  0.1246 -0.1309
  689POPS   CNO10547  12.911   0.722   6.402  0.0814  0.2446 -0.0201
  689POPS   PO410548  12.895   0.323   6.427 -0.0036 -0.1806  0.1926
  689POPS   GL110549  13.002   0.461   6.833 -0.1869 -0.3614 -0.2251
  689POPS   GL210550  13.253   0.737   6.806 -0.0715  0.3742  0.2574
  689POPS   C1A10551  12.858   0.325   7.238 -0.0356 -0.0254  0.0807
  689POPS   D2A10552  12.976   0.277   7.660 -0.3813 -0.1514 -0.2351
  689POPS   C3A10553  12.651   0.413   7.872  0.0375  0.0042  0.3205
  689POPS   C4A10554  12.299   0.696   7.938  0.0228 -0.1263 -0.0214
  689POPS   C1B10555  13.341   0.745   7.203  0.1943 -0.1599 -0.2225
  689POPS   C2B10556  13.291   0.698   7.770 -0.0910 -0.1850 -0.1230
  689POPS   C3B10557  13.069   0.581   8.150  0.0462  0.1465 -0.1683
  689POPS   C4B10558  13.172   0.623   8.523  0.2996 -0.1923 -0.3386
  690POPS   CNO10559  16.418  13.730   5.838  0.1427 -0.1147 -0.1745
  690POPS   PO410560  16.621  13.572   6.223  0.0651 -0.2798 -0.0410
  690POPS   GL110561  16.855  13.551   6.609  0.1076 -0.2372  0.2961
  690POPS   GL210562  16.968  13.809   6.851  0.0754  0.0531 -0.0532
  690POPS   C1A10563  16.980  13.350   7.038  0.2072  0.0812 -0.1000
  690POPS   D2A10564  16.949  13.015   7.349 -0.0496  0.1299 -0.3278
  690POPS   C3A10565  16.955  12.603   7.102  0.0693  0.3614 -0.5210
  690POPS   C4A10566  17.161  12.453   6.773  0.0388 -0.1011 -0.2274
  690POPS   C1B10567  16.874  13.838   7.268 -0.3648 -0.0154  0.1243
  690POPS   C2B10568  17.082  13.988   7.732  0.1803 -0.0197 -0.0867
  690POPS   C3B10569  17.532  13.955   7.954  0.0189  0.1132 -0.2585
  690POPS   C4B10570  17.996  13.787   8.062  0.0481 -0.0951  0.1082
  691POPS   CNO10571   4.620  10.595   5.795  0.1861 -0.0465  0.0628
  691POPS   PO410572   4.381  10.249   5.756  0.1039  0.0754  0.2203
  691POPS   GL110573   4.494  10.255   6.205 -0.0025 -0.0818  0.1294
  691POPS   GL210574   4.426  10.528   6.300 -0.3208 -0.0650  0.0887
  691POPS   C1A10575   4.597  10.031   6.593  0.0291 -0.3212 -0.1824
  691POPS   D2A10576   4.576  10.016   6.987 -0.1412 -0.1769 -0.2491
  691POPS   C3A10577   4.375   9.812   7.265  0.0222  0.0213 -0.1655
  691POPS   C4A10578   4.144   9.712   7.793  0.2782 -0.2218  0.1526
  691POPS   C1B10579   4.649  10.508   6.633  0.4328 -0.0629 -0.1961
  691POPS   C2B10580   4.907  10.407   7.192 -0.1430  0.3217 -0.2215
  691POPS   C3B10581   4.949  10.526   7.625  0.3251  0.2012 -0.1009
  691POPS   C4B10582   5.011  10.546   7.987  0.1474 -0.2454  0.2493
  692POPS   CNO10583  16.557   7.618   5.641  0.2386 -0.2328 -0.1824
  692POPS   PO410584  16.427   7.843   6.006 -0.0344  0.1825  0.1139
  692POPS   GL110585  16.626   7.937   6.480 -0.1434 -0.0594 -0.0186
  692POPS   GL210586  16.607   7.694   6.693 -0.2634 -0.1147  0.0473
  692POPS   C1A10587  16.780   8.134   6.918 -0.3358 -0.3133  0.0005
  692POPS   D2A10588  16.864   8.092   7.299 -0.2083 -0.0161  0.1597
  692POPS   C3A10589  16.732   8.305   7.696  0.1713  0.2097  0.2034
  692POPS   C4A10590  16.618   8.749   7.753  0.2681  0.2968 -0.0528
  692POPS   C1B10591  16.598   7.682   7.129 -0.2822 -0.3395  0.1126
  692POPS   C2B10592  16.373   7.934   7.430 -0.1641 -0.1465 -0.1522
  692POPS   C3B10593  16.402   7.939   7.767  0.2843  0.0742 -0.2819
  692POPS   C4B10594  16.414   8.345   8.084 -0.0317  0.1774 -0.0382
  693POPS   CNO10595  17.749   5.949   6.403  0.1243  0.1077 -0.2181
  693POPS   PO410596  17.501   5.773   6.245 -0.0093 -0.2564 -0.2460
  693POPS   GL110597  17.322   5.781   6.665  0.2341 -0.1865 -0.2807
  693POPS   GL210598  17.064   5.510   6.792 -0.0578  0.0946 -0.0520
  693POPS   C1A10599  17.177   5.830   7.159 -0.2951  0.0661  0.1427
  693POPS   D2A10600  16.758   6.015   7.258  0.0178  0.0550  0.4027
  693POPS   C3A10601  16.611   6.481   7.488 -0.0783 -0.0017  0.0623
  693POPS   C4A10602  16.718   6.886   7.368 -0.0276  0.0132  0.0338
  693POPS   C1B10603  17.013   5.377   7.246  0.3699 -0.3511  0.0382
  693POPS   C2B10604  17.061   5.266   7.682  0.0151  0.3960 -0.3875
  693POPS   C3B10605  17.137   5.359   8.126 -0.0796 -0.0697 -0.0473
  693POPS   C4B10606  17.108   5.191   8.552 -0.0640 -0.1249 -0.1410
  694POPS   CNO10607  12.698  12.782   5.516  0.0742  0.3139 -0.0923
  694POPS   PO410608  12.855  12.636   5.915 -0.2015 -0.1558 -0.4232
  694POPS   GL110609  12.736  12.766   6.347  0.0311  0.2683 -0.2154
  694POPS   GL210610  12.513  12.553   6.489  0.1061  0.1696  0.1703
  694POPS   C1A10611  12.644  12.894   6.849 -0.1858  0.0365 -0.1081
  694POPS   D2A10612  12.675  12.781   7.277  0.0591 -0.2412 -0.0429
  694POPS   C3A10613  12.722  12.591   7.713  0.2411  0.0800  0.0322
  694POPS   C4A10614  13.007  12.455   8.034 -0.1449  0.0359 -0.1169
  694POPS   C1B10615  12.342  12.483   6.846 -0.2042 -0.1742  0.3031
  694POPS   C2B10616  12.338  12.452   7.193  0.1697  0.1262 -0.0661
  694POPS   C3B10617  12.162  12.731   7.454 -0.3568  0.1608 -0.0956
  694POPS   C4B10618  11.817  12.578   7.711  0.2541 -0.0862  0.0815
  695POPS   CNO10619   2.513  17.768   5.693 -0.0148  0.1051 -0.0090
  695POPS   PO410620   2.617  17.467   5.857  0.0719  0.2438 -0.1421
  695POPS   GL110621   2.626  17.492   6.317  0.0943  0.2761 -0.0094
  695POPS   GL210622   3.006  17.500   6.422 -0.3384 -0.0125  0.2059
  695POPS   C1A10623   2.555  17.773   6.651 -0.0688  0.3422 -0.1691
  695POPS   D2A10624   2.859  17.853   6.961 -0.2583 -0.1927 -0.1273
  695POPS   C3A10625   2.874  17.814   7.386  0.0560 -0.4209 -0.0747
  695POPS   C4A10626   2.974  17.718   7.836 -0.2505 -0.1982 -0.1107
  695POPS   C1B10627   3.129  17.454   6.827  0.1404 -0.2334 -0.1011
  695POPS   C2B10628   3.231  17.483   7.276  0.2247 -0.2582  0.2046
  695POPS   C3B10629   3.462  17.533   7.592 -0.1595 -0.2502  0.1885
  695POPS   C4B10630   3.822  17.749   7.744  0.3504 -0.2645  0.0875
  696POPS   CNO10631   7.205   9.015   5.866 -0.1511 -0.4494  0.0872
  696POPS   PO410632   7.136   9.420   6.042  0.1241 -0.0825 -0.0094
  696POPS   GL110633   7.012   9.311   6.376 -0.1889 -0.0155  0.3247
  696POPS   GL210634   6.969   8.966   6.311  0.0797 -0.1028 -0.0646
  696POPS   C1A10635   6.985   9.444   6.772  0.0011  0.1860 -0.4477
  696POPS   D2A10636   7.201   9.205   7.067  0.3269 -0.1907 -0.2499
  696POPS   C3A10637   7.228   9.276   7.531  0.2558  0.1525  0.4952
  696POPS   C4A10638   7.103   9.304   7.893  0.1864  0.0619  0.1896
  696POPS   C1B10639   7.206   8.847   6.675  0.3524  0.3424  0.1330
  696POPS   C2B10640   7.409   8.758   6.996  0.1466  0.2100  0.1259
  696POPS   C3B10641   7.785   8.699   7.173  0.4122 -0.2183 -0.2449
  696POPS   C4B10642   8.055   8.923   7.438  0.0389  0.0021 -0.2533
  697POPS   CNO10643   0.872   7.085   6.469 -0.0007 -0.1444 -0.0131
  697POPS   PO410644   0.438   7.104   6.284  0.0220 -0.1572 -0.0893
  697POPS   GL110645   0.494   7.305   6.791 -0.1250 -0.0152 -0.1685
  697POPS   GL210646   0.833   7.380   6.872 -0.3229 -0.0588 -0.2912
  697POPS   C1A10647   0.475   7.283   7.239 -0.1836  0.1505  0.0172
  697POPS   D2A10648   0.230   7.195   7.739 -0.1479 -0.3734 -0.0739
  697POPS   C3A10649  -0.121   7.422   7.929 -0.0406  0.2090  0.2457
  697POPS   C4A10650  -0.173   7.833   8.100  0.1283 -0.0274 -0.1445
  697POPS   C1B10651   1.290   7.286   7.033  0.1762  0.1717  0.0578
  697POPS   C2B10652   1.694   7.255   7.284 -0.2413  0.1095  0.0041
  697POPS   C3B10653   1.741   7.188   7.692  0.0159 -0.1340 -0.1622
  697POPS   C4B10654   1.649   7.176   8.060 -0.1903  0.2228  0.0206
  698POPS   CNO10655  14.401   7.801   6.482  0.0202 -0.1527  0.0337
  698POPS   PO410656  14.128   7.560   6.555 -0.2018 -0.4692  0.0098
  698POPS   GL110657  14.142   7.521   6.844  0.1680  0.0579  0.0030
  698POPS   GL210658  14.329   7.646   7.059 -0.2736  0.0870  0.0418
  698POPS   C1A10659  13.918   7.440   7.232 -0.1996  0.0287 -0.0027
  698POPS   D2A10660  13.875   7.534   7.714  0.0253  0.0309 -0.2197
  698POPS   C3A10661  14.306   7.431   7.910 -0.1084  0.1678 -0.2112
  698POPS   C4A10662  14.596   7.308   8.056 -0.1727  0.0613  0.0312
  698POPS   C1B10663  14.412   7.469   7.432 -0.0061 -0.1048 -0.1177
  698POPS   C2B10664  14.667   7.599   7.691  0.0626  0.0585  0.1282
  698POPS   C3B10665  14.624   7.919   8.031 -0.3908  0.1105  0.1320
  698POPS   C4B10666  14.444   8.163   8.251  0.2614  0.0917  0.0229
  699POPS   CNO10667   9.806  17.401   6.158  0.1499  0.0070  0.2955
  699POPS   PO410668   9.669  17.765   6.318 -0.1923  0.1258 -0.2138
  699POPS   GL110669   9.439  17.837   6.705  0.0527  0.2247  0.1612
  699POPS   GL210670   9.604  18.034   6.873 -0.1518  0.0094 -0.0267
  699POPS   C1A10671   9.073  17.930   6.972 -0.0807 -0.1628 -0.0170
  699POPS   D2A10672   9.060  17.998   7.458  0.0039  0.1899 -0.0757
  699POPS   C3A10673   8.724  18.189   7.662 -0.1059 -0.0113 -0.1429
  699POPS   C4A10674   8.412  18.314   7.746  0.0269 -0.2748 -0.0679
  699POPS   C1B10675   9.397  18.213   7.185  0.3164 -0.0861  0.2013
  699POPS   C2B10676   9.395  18.292   7.679  0.1282 -0.0060 -0.1256
  699POPS   C3B10677   9.081  18.406   8.002  0.1169 -0.1409  0.2090
  699POPS   C4B10678   8.798  18.161   8.203 -0.1926  0.0436 -0.1224
  700POPS   CNO10679   6.830  12.914   5.238  0.1607 -0.2673  0.2278
  700POPS   PO410680   6.618  13.181   5.619  0.3788  0.1596  0.0534
  700POPS   GL110681   6.807  13.060   5.998  0.1947 -0.1802  0.0963
  700POPS   GL210682   6.771  13.372   6.155 -0.1054  0.3560 -0.1823
  700POPS   C1A10683   6.815  12.753   6.327  0.0457 -0.2109  0.3539
  700POPS   D2A10684   6.557  12.835   6.655  0.2476  0.1127  0.0699
  700POPS   C3A10685   6.548  12.455   7.004  0.1045  0.1107 -0.5968
  700POPS   C4A10686   6.516  12.211   7.272  0.1240 -0.2164  0.3504
  700POPS   C1B10687   6.851  13.575   6.605 -0.0128 -0.1156  0.2221
  700POPS   C2B10688   6.943  13.582   7.036 -0.1286 -0.1447  0.0627
  700POPS   C3B10689   7.033  13.249   7.312 -0.0451  0.1728 -0.3291
  700POPS   C4B10690   7.393  13.230   7.572  0.1414  0.1757  0.1221
  701POPS   CNO10691  15.351   7.799   6.298  0.0887  0.1021  0.1591
  701POPS   PO410692  14.980   7.906   6.332 -0.2256 -0.0626 -0.1190
  701POPS   GL110693  15.177   7.946   6.721 -0.5162  0.0861 -0.0726
  701POPS   GL210694  15.154   8.045   7.091 -0.2097  0.2131 -0.1419
  701POPS   C1A10695  15.030   8.471   6.728  0.1110 -0.0155  0.1204
  701POPS   D2A10696  15.178   8.811   6.919  0.0954 -0.1314 -0.0005
  701POPS   C3A10697  15.190   8.598   7.310 -0.3956  0.1702 -0.1132
  701POPS   C4A10698  15.273   8.664   7.709 -0.0984 -0.1892 -0.0999
  701POPS   C1B10699  15.391   8.195   7.478 -0.1919  0.1981 -0.2166
  701POPS   C2B10700  15.455   8.276   7.953 -0.2894 -0.2005 -0.0972
  701POPS   C3B10701  15.104   8.128   8.298  0.3029 -0.1483 -0.1718
  701POPS   C4B10702  15.269   7.861   8.699  0.4575 -0.1092  0.1021
  702POPS   CNO10703  13.700   1.450   6.505  0.0113  0.0611 -0.0063
  702POPS   PO410704  13.739   1.931   6.538  0.2776  0.1773  0.2948
  702POPS   GL110705  13.824   1.799   6.880  0.2589 -0.2837 -0.3343
  702POPS   GL210706  14.008   2.003   6.977 -0.4161 -0.0832  0.2051
  702POPS   C1A10707  13.798   2.002   7.416 -0.0010  0.2117 -0.0116
  702POPS   D2A10708  13.690   1.950   7.820  0.0454  0.1104 -0.1395
  702POPS   C3A10709  13.800   2.242   8.101  0.0923  0.2121  0.0018
  702POPS   C4A10710  13.859   2.656   8.326 -0.0167 -0.2063  0.0173
  702POPS   C1B10711  14.283   2.161   7.296  0.4317  0.3754  0.3864
  702POPS   C2B10712  14.181   2.073   7.724 -0.0667  0.1783 -0.1670
  702POPS   C3B10713  14.111   1.810   8.009  0.1267  0.4058 -0.0388
  702POPS   C4B10714  14.256   1.757   8.504  0.3012  0.1986  0.0913
  703POPS   CNO10715  11.967   0.404   5.785 -0.0840  0.2356  0.0272
  703POPS   PO410716  12.018   0.477   6.252  0.4987 -0.2443 -0.1566
  703POPS   GL110717  11.910   0.522   6.763 -0.1375 -0.2139  0.0713
  703POPS   GL210718  12.091   0.733   6.973  0.0014  0.0844 -0.1994
  703POPS   C1A10719  11.765   0.508   7.202  0.0884  0.1602  0.0259
  703POPS   D2A10720  11.803   0.242   7.503 -0.2006  0.2844 -0.1750
  703POPS   C3A10721  12.055   0.124   7.839  0.2269 -0.5296  0.5599
  703POPS   C4A10722  11.979  -0.116   8.205  0.1554  0.0029 -0.1988
  703POPS   C1B10723  11.810   0.963   7.300  0.3044  0.2613 -0.0595
  703POPS   C2B10724  11.655   1.151   7.691 -0.0452  0.0147  0.2816
  703POPS   C3B10725  11.597   0.945   8.044  0.4397 -0.1892 -0.0739
  703POPS   C4B10726  11.420   0.773   8.511 -0.3748  0.2583  0.0537
  704POPS   CNO10727  13.218   9.362   5.765 -0.1568  0.2416 -0.2615
  704POPS   PO410728  13.629   9.261   5.778 -0.1384  0.2070  0.1220
  704POPS   GL110729  13.599   9.200   6.193 -0.1558  0.3357  0.1877
  704POPS   GL210730  13.663   8.875   6.334  0.1552 -0.0480  0.1823
  704POPS   C1A10731  13.622   9.439   6.577 -0.2311  0.0453 -0.0101
  704POPS   D2A10732  13.683   9.437   7.046  0.0964 -0.1742  0.0669
  704POPS   C3A10733  13.637   9.513   7.498  0.3428 -0.0433 -0.0325
  704POPS   C4A10734  13.380   9.686   7.907 -0.0184  0.1048 -0.0758
  704POPS   C1B10735  13.307   9.021   6.608  0.0983  0.0505  0.0956
  704POPS   C2B10736  13.346   9.095   6.976  0.1592  0.1725  0.0018
  704POPS   C3B10737  13.429   9.100   7.297  0.2261  0.4457 -0.2806
  704POPS   C4B10738  13.241   9.144   7.632  0.1323 -0.2023  0.1319
  705POPS   CNO10739   3.442  17.489   6.031  0.0890 -0.2348  0.0309
  705POPS   PO410740   3.720  17.784   6.101 -0.1020 -0.2478 -0.4622
  705POPS   GL110741   3.821  17.462   6.422  0.0727  0.1646  0.1989
  705POPS   GL210742   3.544  17.477   6.511 -0.1281 -0.0862 -0.0313
  705POPS   C1A10743   4.094  17.509   6.838  0.1352 -0.2834  0.1855
  705POPS   D2A10744   4.258  17.315   7.304  0.0547  0.1765 -0.0694
  705POPS   C3A10745   4.309  17.620   7.553  0.0264 -0.1920 -0.1916
  705POPS   C4A10746   4.266  17.533   8.002 -0.0949 -0.2577 -0.1790
  705POPS   C1B10747   3.619  17.422   6.976  0.0018 -0.3003 -0.1045
  705POPS   C2B10748   3.833  17.460   7.272  0.1618  0.0138  0.0272
  705POPS   C3B10749   3.899  17.268   7.672 -0.3473  0.2924 -0.2689
  705POPS   C4B10750   4.416  17.073   7.754 -0.1635 -0.1800 -0.2471
  706POPS   CNO10751  10.842   2.989   5.895  0.3196  0.1677 -0.1083
  706POPS   PO410752  10.666   3.275   6.092  0.0512 -0.0940  0.0228
  706POPS   GL110753  10.755   3.117   6.450 -0.0841  0.0563 -0.0414
  706POPS   GL210754  10.545   2.898   6.554  0.1010  0.0860  0.0817
  706POPS   C1A10755  10.879   3.154   6.862 -0.1531 -0.3590  0.1246
  706POPS   D2A10756  10.973   3.299   7.378 -0.2284  0.0536 -0.1589
  706POPS   C3A10757  11.148   3.010   7.698 -0.0844  0.2232 -0.2689
  706POPS   C4A10758  11.392   2.605   7.702  0.1287 -0.0641  0.2459
  706POPS   C1B10759  10.394   2.842   6.931  0.1087 -0.1223 -0.1696
  706POPS   C2B10760  10.164   2.882   7.291 -0.0983  0.1030  0.2687
  706POPS   C3B10761   9.803   3.008   7.563 -0.0772  0.0986  0.0975
  706POPS   C4B10762   9.468   3.286   7.643 -0.0507 -0.1489 -0.1730
  707POPS   CNO10763   5.283  11.625   5.739  0.1089  0.1114 -0.0133
  707POPS   PO410764   5.072  11.991   5.851 -0.0851 -0.4682 -0.2010
  707POPS   GL110765   5.204  11.835   6.207  0.1987  0.0760  0.0695
  707POPS   GL210766   5.484  11.922   6.235  0.1284 -0.0254  0.2745
  707POPS   C1A10767   5.023  11.933   6.584 -0.2582 -0.3197  0.1289
  707POPS   D2A10768   4.730  11.705   6.838  0.5462 -0.3466  0.1064
  707POPS   C3A10769   4.547  11.390   7.098 -0.2619  0.2010  0.0184
  707POPS   C4A10770   4.766  11.278   7.512  0.3374  0.1625 -0.0484
  707POPS   C1B10771   5.856  11.911   6.439  0.0693 -0.2005  0.2129
  707POPS   C2B10772   6.154  12.325   6.671  0.1513  0.1909 -0.2126
  707POPS   C3B10773   6.078  12.432   7.037 -0.0500  0.1822  0.0547
  707POPS   C4B10774   6.141  12.439   7.446  0.1084 -0.0996 -0.1951
  708POPS   CNO10775  11.542  12.520   5.736  0.1020  0.1166 -0.1540
  708POPS   PO410776  11.901  12.679   5.879  0.0399  0.1782 -0.1087
  708POPS   GL110777  11.711  12.602   6.243 -0.6388 -0.1704  0.1779
  708POPS   GL210778  11.653  12.930   6.335  0.0810 -0.1326 -0.3100
  708POPS   C1A10779  11.686  12.456   6.663  0.0791  0.2588 -0.2749
  708POPS   D2A10780  11.714  11.982   6.849 -0.1977  0.1751 -0.2129
  708POPS   C3A10781  11.468  12.053   7.303  0.0931 -0.1145 -0.1911
  708POPS   C4A10782  11.485  12.189   7.777  0.1418  0.1772 -0.0662
  708POPS   C1B10783  11.933  12.899   6.646 -0.0002  0.0247 -0.3782
  708POPS   C2B10784  12.207  12.971   7.044 -0.0381  0.1952  0.3359
  708POPS   C3B10785  12.378  13.195   7.338 -0.0938 -0.1727  0.2567
  708POPS   C4B10786  12.390  13.153   7.719 -0.0112 -0.3262  0.0675
  709POPS   CNO10787  15.516   6.706   6.328 -0.1005 -0.0538  0.0319
  709POPS   PO410788  15.953   6.578   6.340  0.1054  0.4845  0.1353
  709POPS   GL110789  15.717   6.338   6.592 -0.1524  0.1842 -0.1325
  709POPS   GL210790  15.897   6.244   6.874 -0.0313  0.0643  0.0681
  709POPS   C1A10791  15.423   6.218   7.036 -0.2178 -0.0340 -0.1860
  709POPS   D2A10792  15.323   6.128   7.516 -0.0653 -0.1799  0.1191
  709POPS   C3A10793  15.454   6.260   7.930  0.0402  0.1925  0.0707
  709POPS   C4A10794  15.811   6.271   8.178  0.0894  0.0512 -0.2878
  709POPS   C1B10795  16.089   6.528   7.126 -0.0110  0.2105  0.0728
  709POPS   C2B10796  16.254   6.847   7.388  0.0161 -0.0032  0.3346
  709POPS   C3B10797  16.189   7.101   7.918  0.0629 -0.1344  0.2038
  709POPS   C4B10798  16.232   7.329   8.303 -0.1499 -0.2270 -0.0936
  710POPS   CNO10799  14.500  17.786   6.449 -0.2266 -0.0029 -0.2599
  710POPS   PO410800  14.940  18.000   6.390 -0.0738  0.2469 -0.0737
  710POPS   GL110801  14.637  18.221   6.642  0.1830 -0.2183 -0.1195
  710POPS   GL210802  14.402  18.057   6.823 -0.1403 -0.2842  0.0250
  710POPS   C1A10803  14.377  18.546   6.877  0.1834 -0.0383 -0.1771
  710POPS   D2A10804  14.133  18.800   6.844  0.0079  0.0287  0.0612
  710POPS   C3A10805  13.870  18.908   7.304 -0.0402  0.2127 -0.1928
  710POPS   C4A10806  13.718  19.078   7.644  0.3304  0.5289 -0.1238
  710POPS   C1B10807  14.493  18.190   7.225  0.0198 -0.0547 -0.1044
  710POPS   C2B10808  14.830  18.338   7.670  0.0010 -0.2101  0.0023
  710POPS   C3B10809  15.104  18.349   7.892 -0.2925 -0.0453 -0.1869
  710POPS   C4B10810  15.641  18.342   7.823  0.2205 -0.1398  0.2072
  711POPS   CNO10811  16.543   9.172   6.183 -0.2173 -0.2147  0.0120
  711POPS   PO410812  16.665   8.846   6.272  0.1647 -0.2526  0.1892
  711POPS   GL110813  16.861   9.013   6.545 -0.0082 -0.0989 -0.1919
  711POPS   GL210814  17.032   8.734   6.758 -0.2842 -0.2532 -0.1324
  711POPS   C1A10815  16.726   9.165   6.908 -0.0015  0.0646  0.0510
  711POPS   D2A10816  16.563   9.044   7.304  0.0026 -0.1655  0.0641
  711POPS   C3A10817  16.141   8.779   7.446 -0.2658  0.0415 -0.0674
  711POPS   C4A10818  16.172   8.373   7.653 -0.1069  0.3145  0.0256
  711POPS   C1B10819  16.978   8.747   7.258  0.2509 -0.1094 -0.1787
  711POPS   C2B10820  17.082   8.963   7.646 -0.0169 -0.2483 -0.2530
  711POPS   C3B10821  17.038   8.636   7.987  0.1074  0.0656  0.1272
  711POPS   C4B10822  16.891   8.485   8.326  0.1549 -0.0203 -0.2257
  712POPS   CNO10823   6.197  14.902   6.397  0.2275 -0.3282 -0.0205
  712POPS   PO410824   5.834  15.056   6.354 -0.1025  0.2128 -0.0750
  712POPS   GL110825   5.678  14.760   6.640 -0.2042 -0.1247 -0.0030
  712POPS   GL210826   5.875  14.523   6.584  0.1367 -0.1016  0.0978
  712POPS   C1A10827   5.380  14.791   6.955 -0.0419 -0.0865 -0.1682
  712POPS   D2A10828   5.070  14.705   7.139  0.1108  0.1079  0.2843
  712POPS   C3A10829   5.210  14.638   7.539  0.1059  0.2147  0.2123
  712POPS   C4A10830   5.338  14.474   8.011 -0.1515 -0.2479  0.0080
  712POPS   C1B10831   5.455  14.333   6.763  0.1351 -0.1322  0.3211
  712POPS   C2B10832   5.257  14.196   7.236 -0.0361 -0.0128  0.0651
  712POPS   C3B10833   5.416  14.155   7.656  0.1945 -0.3239 -0.1337
  712POPS   C4B10834   5.435  13.781   7.929  0.1449  0.2938 -0.2275
  713POPS   CNO10835  11.981   7.032   6.249 -0.1193  0.0168  0.2476
  713POPS   PO410836  11.846   6.614   6.186 -0.0640  0.1650  0.0728
  713POPS   GL110837  11.949   6.634   6.584  0.3263 -0.1431 -0.0222
  713POPS   GL210838  12.179   6.571   6.712  0.1961  0.0027  0.1475
  713POPS   C1A10839  11.687   6.800   6.920 -0.0088 -0.0238  0.0074
  713POPS   D2A10840  11.442   6.702   7.318  0.0184  0.0601  0.3088
  713POPS   C3A10841  11.471   6.882   7.716 -0.0775  0.2803 -0.2304
  713POPS   C4A10842  11.155   7.059   7.903  0.0581 -0.0998 -0.2278
  713POPS   C1B10843  12.185   6.210   7.080 -0.0868 -0.1386  0.0882
  713POPS   C2B10844  11.918   5.818   7.340  0.2231 -0.3255  0.0309
  713POPS   C3B10845  12.079   5.565   7.765  0.2006 -0.2050 -0.2219
  713POPS   C4B10846  12.075   5.165   7.977  0.1539  0.1435  0.0771
  714POPS   CNO10847  17.910   9.969   5.551  0.1810  0.4796 -0.2501
  714POPS   PO410848  17.852   9.707   5.973 -0.0320  0.0030  0.4124
  714POPS   GL110849  18.252   9.912   6.356 -0.0973  0.2751  0.1016
  714POPS   GL210850  18.431  10.235   6.243 -0.1119 -0.2353 -0.0915
  714POPS   C1A10851  18.278  10.225   6.721 -0.0013 -0.0434 -0.2572
  714POPS   D2A10852  18.359  10.560   7.159 -0.3022 -0.0611  0.0827
  714POPS   C3A10853  18.405  10.576   7.587 -0.2061 -0.1329 -0.0817
  714POPS   C4A10854  18.563  10.349   7.980 -0.1052  0.2465  0.0602
  714POPS   C1B10855  18.690  10.133   6.467 -0.1877 -0.2094 -0.0368
  714POPS   C2B10856  18.969   9.727   6.668  0.0147  0.1590 -0.0647
  714POPS   C3B10857  19.180   9.461   6.939 -0.3588  0.0019  0.1981
  714POPS   C4B10858  19.440   9.613   7.309 -0.2138 -0.2064 -0.2964
  715POPS   CNO10859  11.890   2.235   6.622 -0.0484  0.1849 -0.1098
  715POPS   PO410860  12.179   2.327   6.326  0.3353  0.2561  0.0216
  715POPS   GL110861  12.490   2.419   6.639  0.1347 -0.0538 -0.0561
  715POPS   GL210862  12.732   2.275   6.796 -0.1964 -0.0037 -0.3005
  715POPS   C1A10863  12.643   2.746   7.072 -0.0573 -0.1199  0.0725
  715POPS   D2A10864  12.867   2.641   7.421 -0.0402 -0.0913 -0.0395
  715POPS   C3A10865  12.935   2.557   7.841 -0.1655 -0.0477 -0.0710
  715POPS   C4A10866  12.969   2.499   8.267 -0.3704 -0.0119 -0.0075
  715POPS   C1B10867  12.511   2.332   7.263  0.2154 -0.0221  0.2431
  715POPS   C2B10868  12.250   2.805   7.381  0.0683  0.1275  0.4862
  715POPS   C3B10869  12.194   3.081   7.112 -0.1684  0.0848  0.0161
  715POPS   C4B10870  11.953   3.272   6.836  0.1855 -0.2943  0.1466
  716POPS   CNO10871  15.167  10.278   6.337 -0.0677 -0.0862 -0.2851
  716POPS   PO410872  15.540  10.438   6.129 -0.0849 -0.0116 -0.2255
  716POPS   GL110873  15.429  10.719   6.477 -0.0293 -0.0121 -0.1727
  716POPS   GL210874  15.258  11.046   6.494 -0.2265 -0.1461 -0.0226
  716POPS   C1A10875  15.638  10.810   6.862  0.1047 -0.1754  0.3123
  716POPS   D2A10876  15.523  10.633   7.305 -0.2292 -0.4854  0.1798
  716POPS   C3A10877  15.747  10.456   7.618  0.0167  0.0411 -0.3259
  716POPS   C4A10878  15.672  10.299   8.079  0.0760  0.0819 -0.1644
  716POPS   C1B10879  15.357  11.204   6.947 -0.0697  0.1373  0.4783
  716POPS   C2B10880  15.185  11.138   7.295 -0.0658 -0.1077  0.0352
  716POPS   C3B10881  15.302  11.147   7.725 -0.0338  0.3107 -0.4498
  716POPS   C4B10882  15.427  10.763   7.926  0.2230  0.1985  0.4594
  717POPS   CNO10883  16.410  10.837   5.846  0.1001 -0.1347  0.0941
  717POPS   PO410884  16.042  10.688   6.151  0.3133  0.1376  0.2269
  717POPS   GL110885  15.888  10.480   6.502 -0.0896 -0.2736 -0.1149
  717POPS   GL210886  15.630  10.253   6.612 -0.0564 -0.2662  0.0338
  717POPS   C1A10887  15.891  10.390   6.985 -0.1858  0.0972 -0.0555
  717POPS   D2A10888  15.608  10.124   7.220  0.2618 -0.3664 -0.5704
  717POPS   C3A10889  15.666   9.957   7.716 -0.2627  0.0589  0.0589
  717POPS   C4A10890  15.346   9.815   7.909  0.2232 -0.1400 -0.0536
  717POPS   C1B10891  15.322  10.331   6.875 -0.3098 -0.2464  0.0340
  717POPS   C2B10892  15.023  10.066   7.090 -0.1525 -0.0938 -0.1880
  717POPS   C3B10893  14.957   9.868   7.450  0.2338  0.1329  0.1807
  717POPS   C4B10894  14.952   9.532   7.745 -0.2379  0.0609  0.1362
  718POPS   CNO10895  14.546  16.437   6.513 -0.0609 -0.1141  0.3503
  718POPS   PO410896  14.784  16.141   6.273 -0.2196  0.2767  0.0862
  718POPS   GL110897  14.986  16.226   6.676 -0.1160 -0.0120  0.0786
  718POPS   GL210898  14.899  16.536   6.801  0.1998 -0.3979 -0.0401
  718POPS   C1A10899  15.235  16.223   7.111  0.2154 -0.0366  0.0155
  718POPS   D2A10900  15.162  16.203   7.533  0.2448 -0.1251 -0.2932
  718POPS   C3A10901  15.469  16.178   7.818 -0.1033  0.1105 -0.2481
  718POPS   C4A10902  15.746  16.532   8.137  0.0704 -0.4391 -0.1575
  718POPS   C1B10903  14.745  16.259   7.127  0.2039 -0.0066 -0.0782
  718POPS   C2B10904  14.711  16.013   7.499 -0.0982  0.0382  0.1763
  718POPS   C3B10905  14.591  15.974   7.955 -0.2848 -0.0397 -0.1193
  718POPS   C4B10906  14.464  15.950   8.399 -0.1510  0.3396  0.0938
  719POPS   CNO10907   1.587   9.013   6.197  0.0934 -0.0587 -0.1171
  719POPS   PO410908   1.340   8.926   6.466  0.0544  0.1539  0.1440
  719POPS   GL110909   1.349   8.932   6.845  0.0775  0.1115 -0.2194
  719POPS   GL210910   1.232   8.700   6.959  0.2195  0.2292  0.1099
  719POPS   C1A10911   1.511   9.061   7.261  0.1564 -0.0641 -0.0767
  719POPS   D2A10912   1.500   9.274   7.708  0.0772  0.1584 -0.1589
  719POPS   C3A10913   1.356   9.057   7.998  0.2184 -0.0547  0.2370
  719POPS   C4A10914   1.025   9.013   8.228 -0.4978 -0.3249 -0.0991
  719POPS   C1B10915   1.004   8.970   7.251 -0.0404  0.2321  0.0079
  719POPS   C2B10916   0.940   9.140   7.684 -0.2021  0.0619  0.2320
  719POPS   C3B10917   0.842   9.405   7.922 -0.2634 -0.2050 -0.0790
  719POPS   C4B10918   0.722   9.362   8.320 -0.0970 -0.0250  0.1672
  720POPS   CNO10919   4.009  12.373   5.728 -0.1780 -0.2769 -0.0660
  720POPS   PO410920   3.673  12.647   5.593  0.3130  0.0881 -0.1087
  720POPS   GL110921   3.649  12.707   6.043  0.0105 -0.0213 -0.0582
  720POPS   GL210922   3.870  12.578   6.210 -0.0780  0.4678  0.1424
  720POPS   C1A10923   3.382  12.924   6.454 -0.1715  0.1780  0.1331
  720POPS   D2A10924   3.481  13.140   6.852 -0.0734  0.0562 -0.0115
  720POPS   C3A10925   3.756  13.412   6.873  0.0819 -0.2811  0.0129
  720POPS   C4A10926   4.097  13.446   7.074  0.4264  0.1484  0.0455
  720POPS   C1B10927   3.930  12.284   6.585 -0.0227 -0.3256 -0.1262
  720POPS   C2B10928   3.919  11.981   6.941 -0.0747 -0.1044  0.1082
  720POPS   C3B10929   4.208  11.735   7.227  0.1911 -0.1513 -0.1722
  720POPS   C4B10930   4.167  11.573   7.568 -0.0580  0.2160  0.2273
  721POPS   CNO10931   6.426   2.779   6.304 -0.2135 -0.0412  0.0717
  721POPS   PO410932   6.218   3.007   6.014 -0.1049  0.0043  0.2276
  721POPS   GL110933   5.897   2.738   6.273 -0.3302  0.2307 -0.0891
  721POPS   GL210934   5.989   2.581   6.524  0.4679  0.0316 -0.0383
  721POPS   C1A10935   5.580   2.750   6.729 -0.0133  0.1050 -0.0230
  721POPS   D2A10936   5.397   2.611   7.134 -0.1848 -0.0001  0.0985
  721POPS   C3A10937   5.264   2.796   7.436  0.2094 -0.1571  0.0958
  721POPS   C4A10938   5.093   3.225   7.548  0.0724  0.3998 -0.2870
  721POPS   C1B10939   5.880   2.391   6.908  0.1459 -0.2972  0.0786
  721POPS   C2B10940   5.937   2.498   7.330 -0.1459 -0.1406 -0.0505
  721POPS   C3B10941   5.851   2.629   7.856 -0.4078 -0.2356 -0.0697
  721POPS   C4B10942   5.617   2.730   8.270  0.0112  0.0156 -0.1224
  722POPS   CNO10943   4.693  13.844   5.601  0.0526  0.0479 -0.0751
  722POPS   PO410944   4.985  13.475   5.657  0.0009  0.2420 -0.1631
  722POPS   GL110945   4.942  13.259   6.104  0.3111  0.0301  0.1219
  722POPS   GL210946   4.720  12.990   6.073 -0.0608  0.1217 -0.2697
  722POPS   C1A10947   5.065  13.613   6.356  0.0772  0.1520  0.0463
  722POPS   D2A10948   5.396  13.683   6.708  0.1116  0.0793  0.1652
  722POPS   C3A10949   5.319  13.712   7.138  0.2953 -0.0511 -0.0045
  722POPS   C4A10950   5.554  13.597   7.468  0.1744 -0.0569 -0.1397
  722POPS   C1B10951   4.823  12.954   6.473 -0.1322  0.1851  0.0672
  722POPS   C2B10952   5.054  12.729   6.733 -0.1622 -0.0441 -0.0663
  722POPS   C3B10953   5.306  12.738   7.079  0.0114  0.1819  0.2437
  722POPS   C4B10954   5.470  12.976   7.337  0.2958  0.1887  0.0392
  723POPS   CNO10955   0.815  14.007   6.496  0.2727  0.0440 -0.0487
  723POPS   PO410956   0.505  13.695   6.296 -0.3837 -0.2603 -0.0881
  723POPS   GL110957   0.560  13.557   6.742  0.2993  0.4520  0.3296
  723POPS   GL210958   0.784  13.747   6.929  0.0377  0.2851 -0.0465
  723POPS   C1A10959   0.312  13.677   7.096  0.1227  0.2834 -0.0245
  723POPS   D2A10960   0.156  13.799   7.497 -0.0392  0.0077 -0.0083
  723POPS   C3A10961  -0.107  14.121   7.607  0.2156 -0.0161  0.2067
  723POPS   C4A10962  -0.147  14.345   7.958  0.2204  0.1448  0.1991
  723POPS   C1B10963   0.692  13.621   7.411  0.0555  0.0649  0.1584
  723POPS   C2B10964   0.512  13.647   7.822 -0.0257  0.4010  0.1061
  723POPS   C3B10965   0.418  13.609   8.349 -0.2843  0.1369  0.1132
  723POPS   C4B10966   0.023  13.631   8.636  0.0242  0.2194 -0.0995
  724POPS   CNO10967  15.222   1.319   6.004  0.0521  0.2028 -0.0312
  724POPS   PO410968  14.935   1.747   6.098 -0.0100  0.1581  0.1972
  724POPS   GL110969  15.053   1.614   6.502 -0.2016 -0.1994 -0.2532
  724POPS   GL210970  14.782   1.479   6.666 -0.0033 -0.1700 -0.2129
  724POPS   C1A10971  15.287   1.420   6.849  0.1019 -0.6621 -0.0777
  724POPS   D2A10972  15.199   1.131   7.220 -0.0387 -0.0023 -0.0428
  724POPS   C3A10973  15.410   1.048   7.637 -0.2864  0.2058  0.1760
  724POPS   C4A10974  15.533   1.211   8.074  0.0902  0.1180  0.0177
  724POPS   C1B10975  14.544   1.346   6.995 -0.1917  0.0236  0.1419
  724POPS   C2B10976  14.204   1.192   7.382  0.0839 -0.4569 -0.0588
  724POPS   C3B10977  14.202   1.367   7.781 -0.0159 -0.0560 -0.3261
  724POPS   C4B10978  14.230   1.247   8.269  0.0201  0.1021  0.0762
  725POPS   CNO10979  13.693  14.314   6.335 -0.1113 -0.1912  0.0184
  725POPS   PO410980  13.966  13.977   6.191  0.2950 -0.3777  0.0001
  725POPS   GL110981  14.184  14.072   6.560 -0.1798 -0.1104  0.0426
  725POPS   GL210982  14.519  13.977   6.596  0.2403 -0.0414 -0.0747
  725POPS   C1A10983  14.260  14.157   7.067 -0.1403  0.1420  0.2857
  725POPS   D2A10984  14.481  14.138   7.429 -0.0033  0.0811 -0.1524
  725POPS   C3A10985  14.188  13.977   7.634 -0.3150 -0.0359  0.0745
  725POPS   C4A10986  14.052  13.574   7.783 -0.0048  0.0539 -0.0209
  725POPS   C1B10987  14.612  13.691   6.934 -0.1622 -0.0657 -0.1371
  725POPS   C2B10988  14.426  13.231   7.116 -0.0483 -0.0048  0.0277
  725POPS   C3B10989  14.051  13.170   7.382 -0.1729 -0.0830  0.2985
  725POPS   C4B10990  13.624  12.957   7.308  0.0362 -0.1759 -0.0973
  726POPS   CNO10991   0.957   6.229   6.081 -0.1434 -0.0545 -0.1284
  726POPS   PO410992   1.234   6.374   5.945 -0.2957 -0.0046  0.2670
  726POPS   GL110993   1.406   6.271   6.356  0.0485 -0.0679 -0.0895
  726POPS   GL210994   1.326   6.014   6.459  0.0434 -0.0852  0.1744
  726POPS   C1A10995   1.600   6.413   6.731  0.2918 -0.0333  0.1925
  726POPS   D2A10996   1.928   6.649   6.910 -0.1614  0.1231  0.1088
  726POPS   C3A10997   2.308   6.381   6.915 -0.0210  0.1742  0.1969
  726POPS   C4A10998   2.676   6.475   6.672  0.1640 -0.1157 -0.0229
  726POPS   C1B10999   1.540   5.891   6.844  0.0178  0.1410  0.1776
  726POPS   C2B11000   1.380   5.850   7.247 -0.3376  0.0350 -0.3682
  726POPS   C3B11001   1.103   5.658   7.564 -0.2470  0.0970  0.0496
  726POPS   C4B11002   0.822   5.572   7.870  0.1455 -0.2414 -0.1299
  727POPS   CNO11003  14.645   6.393   6.448 -0.0277  0.0070 -0.2703
  727POPS   PO411004  14.649   6.670   6.551  0.1638  0.0468 -0.3054
  727POPS   GL111005  14.538   6.525   6.993 -0.0418 -0.2769 -0.1919
  727POPS   GL211006  14.456   6.291   6.921  0.0366 -0.0268  0.1314
  727POPS   C1A11007  14.341   6.511   7.422  0.1768  0.3829 -0.0983
  727POPS   D2A11008  14.012   6.287   7.506 -0.1508 -0.0063  0.1763
  727POPS   C3A11009  13.982   6.153   7.998 -0.0689 -0.0051 -0.0672
  727POPS   C4A11010  13.980   6.111   8.442 -0.1983  0.1357 -0.1240
  727POPS   C1B11011  14.521   5.883   6.940  0.1429 -0.2132  0.0507
  727POPS   C2B11012  14.709   5.620   7.308  0.2541 -0.0666 -0.2498
  727POPS   C3B11013  14.903   5.924   7.647 -0.0658  0.1494 -0.1563
  727POPS   C4B11014  15.035   5.974   8.113  0.0664 -0.2342  0.0769
  728POPS   CNO11015   1.894   7.550   5.868 -0.0195  0.1241  0.0411
  728POPS   PO411016   1.921   7.552   6.209  0.0870  0.1595  0.2410
  728POPS   GL111017   1.767   7.718   6.551  0.1845  0.0740 -0.3145
  728POPS   GL211018   1.984   7.971   6.606 -0.1562  0.0624 -0.2712
  728POPS   C1A11019   1.757   7.761   7.022  0.0718 -0.2589 -0.3376
  728POPS   D2A11020   1.980   8.012   7.321 -0.3127  0.2945 -0.1143
  728POPS   C3A11021   1.949   7.710   7.608 -0.1510 -0.0476 -0.3330
  728POPS   C4A11022   1.590   7.659   7.851  0.0583 -0.0301  0.0664
  728POPS   C1B11023   2.002   8.384   6.875  0.0098  0.1331 -0.0675
  728POPS   C2B11024   2.081   8.503   7.456 -0.1752  0.1737  0.1995
  728POPS   C3B11025   1.979   8.239   7.899 -0.0241  0.3322  0.1950
  728POPS   C4B11026   2.314   7.861   7.934  0.0175  0.0570 -0.0330
  729POPS   CNO11027   2.649  12.105   6.450  0.0422 -0.1886  0.0027
  729POPS   PO411028   2.268  12.268   6.392 -0.1140 -0.0613 -0.0461
  729POPS   GL111029   2.359  12.253   6.872 -0.1381 -0.0171 -0.1878
  729POPS   GL211030   2.077  12.367   7.045  0.0216 -0.3655  0.0971
  729POPS   C1A11031   2.373  12.183   7.370  0.1911  0.0205 -0.1064
  729POPS   D2A11032   2.471  12.519   7.655  0.0908 -0.1636 -0.1187
  729POPS   C3A11033   2.559  12.945   7.965 -0.1540  0.0420 -0.0992
  729POPS   C4A11034   2.675  13.493   8.021  0.1824  0.3400  0.3173
  729POPS   C1B11035   1.895  12.498   7.454 -0.1040  0.0367 -0.5344
  729POPS   C2B11036   2.004  12.586   7.842  0.0589 -0.3499 -0.1003
  729POPS   C3B11037   1.760  12.670   8.267  0.2480  0.2500  0.1285
  729POPS   C4B11038   1.602  12.696   8.604 -0.0524  0.0864  0.0665
  730POPS   CNO11039   9.776   1.978   5.816  0.0676 -0.0125 -0.3525
  730POPS   PO411040   9.596   2.044   6.120 -0.1608  0.1053  0.0131
  730POPS   GL111041   9.707   2.065   6.464 -0.2273 -0.1647  0.1362
  730POPS   GL211042   9.419   2.168   6.639 -0.1572  0.1832 -0.2367
  730POPS   C1A11043   9.920   2.020   6.821  0.2981  0.0874  0.2408
  730POPS   D2A11044   9.771   2.084   7.298 -0.1519  0.0088 -0.2616
  730POPS   C3A11045  10.078   1.920   7.640 -0.0254 -0.2225  0.1702
  730POPS   C4A11046  10.022   2.155   8.078 -0.3070 -0.0795 -0.2309
  730POPS   C1B11047   9.375   2.263   7.069  0.1242  0.2093  0.2697
  730POPS   C2B11048   9.176   2.211   7.500 -0.0150  0.2719 -0.1790
  730POPS   C3B11049   9.122   2.507   7.846  0.2149  0.1095 -0.1577
  730POPS   C4B11050   8.633   2.454   7.962  0.0218 -0.3485 -0.1830
  731POPS   CNO11051   6.366  14.869   5.690 -0.0978 -0.0770 -0.0454
  731POPS   PO411052   6.197  14.573   5.503  0.1487 -0.1515 -0.0202
  731POPS   GL111053   6.336  14.359   5.880  0.1765 -0.1623  0.1406
  731POPS   GL211054   6.551  14.005   5.902 -0.1445  0.0643 -0.1348
  731POPS   C1A11055   6.325  14.397   6.352  0.1094 -0.1017  0.1357
  731POPS   D2A11056   6.309  14.477   6.820 -0.0623  0.0124  0.1485
  731POPS   C3A11057   6.144  14.193   7.138  0.0984  0.0263  0.0617
  731POPS   C4A11058   6.060  14.248   7.598 -0.0918  0.1061 -0.0087
  731POPS   C1B11059   6.463  13.882   6.349  0.1535 -0.0278  0.0321
  731POPS   C2B11060   6.483  13.944   6.710 -0.2148 -0.1371 -0.1351
  731POPS   C3B11061   6.543  13.830   7.175  0.4170 -0.1475  0.1568
  731POPS   C4B11062   6.500  13.458   7.466 -0.0735 -0.0042 -0.0087
  732POPS   CNO11063   7.365  10.910   5.863 -0.0890 -0.3024  0.0773
  732POPS   PO411064   7.122  10.476   5.938 -0.0014  0.2031 -0.1772
  732POPS   GL111065   7.188  10.662   6.342  0.0840  0.1566 -0.1572
  732POPS   GL211066   7.082  10.611   6.635 -0.0317  0.1044  0.1588
  732POPS   C1A11067   7.517  10.932   6.499  0.0985 -0.1140 -0.0664
  732POPS   D2A11068   7.417  11.317   6.742  0.0601  0.2638  0.1016
  732POPS   C3A11069   7.188  11.412   7.111 -0.1400 -0.0109  0.2340
  732POPS   C4A11070   6.781  11.386   7.162  0.1460  0.0415 -0.4542
  732POPS   C1B11071   6.767  10.438   6.982 -0.2459  0.0437  0.3173
  732POPS   C2B11072   6.818  10.183   7.416 -0.2404 -0.1225  0.3162
  732POPS   C3B11073   6.671  10.168   7.790  0.1513  0.0635  0.3354
  732POPS   C4B11074   6.432  10.081   8.078 -0.2118 -0.1161  0.0811
  733POPS   CNO11075  11.891   4.481   6.062  0.2499  0.1518  0.0127
  733POPS   PO411076  11.855   4.898   6.170 -0.2068 -0.2788  0.2622
  733POPS   GL111077  11.800   5.025   6.630  0.5353  0.1804 -0.0084
  733POPS   GL211078  11.658   5.338   6.656  0.2322 -0.0176  0.0801
  733POPS   C1A11079  11.786   4.963   7.046  0.3507 -0.1087  0.0710
  733POPS   D2A11080  11.917   5.051   7.448  0.2534  0.0346  0.3111
  733POPS   C3A11081  12.098   5.395   7.268 -0.2368 -0.2111 -0.3605
  733POPS   C4A11082  12.167   5.659   6.940 -0.0102  0.1038 -0.0142
  733POPS   C1B11083  11.616   5.403   7.124  0.0487  0.1784  0.0859
  733POPS   C2B11084  11.501   5.487   7.484  0.2717  0.0084  0.2409
  733POPS   C3B11085  11.539   5.450   7.835  0.3274  0.1819 -0.2848
  733POPS   C4B11086  11.750   5.512   8.159  0.1711  0.1525 -0.2248
  734POPS   CNO11087   9.710  15.593   5.687 -0.2042 -0.3524 -0.3261
  734POPS   PO411088   9.414  15.813   5.820  0.0345  0.2280 -0.3318
  734POPS   GL111089   9.247  15.575   6.187 -0.0564  0.0739  0.0970
  734POPS   GL211090   8.931  15.669   6.272 -0.0219  0.0291 -0.1586
  734POPS   C1A11091   9.372  15.299   6.632  0.2188  0.1695  0.2087
  734POPS   D2A11092   9.359  15.108   7.048 -0.0032 -0.1709 -0.2194
  734POPS   C3A11093   9.456  15.056   7.465 -0.2257  0.2888 -0.2724
  734POPS   C4A11094   9.730  15.210   7.800 -0.2283 -0.0828 -0.1819
  734POPS   C1B11095   8.622  15.574   6.497  0.1473 -0.2636 -0.0189
  734POPS   C2B11096   8.427  15.587   6.824 -0.3793  0.1856  0.1716
  734POPS   C3B11097   8.402  15.415   7.205 -0.0900  0.1431  0.0515
  734POPS   C4B11098   8.284  15.447   7.574  0.1108  0.0370 -0.0495
  735POPS   CNO11099   4.370  10.989   6.068 -0.2286 -0.0077  0.0557
  735POPS   PO411100   4.062  10.656   5.992  0.1296 -0.1607 -0.1479
  735POPS   GL111101   3.918  10.659   6.414  0.0206 -0.0015 -0.1401
  735POPS   GL211102   3.729  10.917   6.392 -0.3932 -0.1265  0.1903
  735POPS   C1A11103   3.829  10.638   6.858  0.0601  0.3719  0.0017
  735POPS   D2A11104   3.916  10.664   7.334  0.1768 -0.2956 -0.3347
  735POPS   C3A11105   3.726  11.048   7.583 -0.2781 -0.0116 -0.4273
  735POPS   C4A11106   3.873  11.156   8.057  0.0216 -0.4382  0.0432
  735POPS   C1B11107   3.753  11.144   6.752  0.1722  0.1584 -0.2408
  735POPS   C2B11108   4.043  11.244   7.179 -0.3482 -0.1318  0.0009
  735POPS   C3B11109   4.268  11.091   7.608 -0.2443  0.0401  0.0644
  735POPS   C4B11110   4.355  11.412   7.949  0.2532  0.2581  0.3975
  736POPS   CNO11111  16.783  16.664   6.605  0.1503 -0.1095 -0.1629
  736POPS   PO411112  16.358  16.778   6.481  0.0085 -0.0539  0.1737
  736POPS   GL111113  16.363  16.744   6.912  0.1872  0.0149 -0.0227
  736POPS   GL211114  16.691  16.898   7.104  0.3279 -0.0410  0.5456
  736POPS   C1A11115  16.209  16.927   7.354  0.0546 -0.2272  0.3432
  736POPS   D2A11116  15.923  17.294   7.605  0.0719 -0.1264  0.4158
  736POPS   C3A11117  15.874  17.039   7.893  0.1684  0.3924 -0.1474
  736POPS   C4A11118  15.514  17.025   8.261 -0.2342 -0.1451  0.0053
  736POPS   C1B11119  16.660  16.886   7.564 -0.0579 -0.1737 -0.1324
  736POPS   C2B11120  16.382  16.951   7.889  0.0511  0.1469 -0.0211
  736POPS   C3B11121  16.139  16.877   8.300 -0.0109  0.3593  0.1615
  736POPS   C4B11122  15.766  16.838   8.623 -0.2315 -0.1199 -0.0538
  737POPS   CNO11123   0.586   9.186   6.076  0.3795  0.0598 -0.2132
  737POPS   PO411124   0.197   9.347   6.062  0.2778 -0.1428 -0.0820
  737POPS   GL111125   0.110   9.391   6.455  0.3202 -0.1480 -0.1666
  737POPS   GL211126   0.447   9.525   6.578 -0.0788 -0.2393 -0.1662
  737POPS   C1A11127   0.190   9.270   6.900 -0.0029 -0.2353  0.0373
  737POPS   D2A11128   0.043   9.153   7.276 -0.2020  0.2491 -0.2144
  737POPS   C3A11129  -0.186   8.804   7.401  0.1286 -0.2777 -0.0160
  737POPS   C4A11130  -0.531   8.761   7.731  0.0713 -0.3012 -0.4542
  737POPS   C1B11131   0.566   9.738   7.024  0.2830  0.1500 -0.0582
  737POPS   C2B11132   0.476  10.002   7.441  0.1332  0.1776  0.2268
  737POPS   C3B11133   0.389   9.822   7.828  0.2933  0.0740  0.1890
  737POPS   C4B11134   0.263   9.457   7.995 -0.1709  0.2712 -0.0027
  738POPS   CNO11135   8.732   5.068   5.266 -0.0696  0.1070  0.1784
  738POPS   PO411136   9.006   5.309   5.578  0.0350 -0.1830 -0.0259
  738POPS   GL111137   9.213   5.141   5.905  0.1480  0.3188  0.3761
  738POPS   GL211138   9.556   5.093   6.066 -0.1289  0.0212  0.3331
  738POPS   C1A11139   9.211   4.816   6.320  0.0713 -0.1811  0.3041
  738POPS   D2A11140   9.446   4.647   6.705  0.2084  0.1530  0.3549
  738POPS   C3A11141   9.398   4.984   7.050  0.0887  0.2492  0.0221
  738POPS   C4A11142   9.303   5.233   7.384  0.3800  0.0606 -0.0702
  738POPS   C1B11143   9.710   5.130   6.427  0.3162 -0.1936  0.3793
  738POPS   C2B11144   9.882   5.066   6.794  0.4974  0.1153 -0.1375
  738POPS   C3B11145   9.834   5.146   7.282  0.2609 -0.0966 -0.1031
  738POPS   C4B11146   9.722   5.175   7.777 -0.1464 -0.0665  0.0645
  739POPS   CNO11147   8.963  13.656   5.764  0.2816  0.0684 -0.3552
  739POPS   PO411148   8.647  13.913   5.881  0.0229  0.0427  0.2359
  739POPS   GL111149   8.931  13.913   6.193 -0.0872  0.2096 -0.1655
  739POPS   GL211150   9.192  14.106   6.216  0.5092 -0.0602  0.1922
  739POPS   C1A11151   9.048  13.807   6.633 -0.2863  0.1293  0.0872
  739POPS   D2A11152   9.136  13.838   7.150 -0.2815  0.0188 -0.2332
  739POPS   C3A11153   9.269  13.594   7.455 -0.0391  0.2026 -0.0145
  739POPS   C4A11154   9.113  13.692   7.933  0.0149 -0.1437 -0.1569
  739POPS   C1B11155   8.896  14.347   6.550 -0.2092 -0.0509  0.2444
  739POPS   C2B11156   8.893  14.286   6.957  0.2502 -0.2263 -0.3215
  739POPS   C3B11157   8.795  14.194   7.389 -0.0287  0.1506  0.2749
  739POPS   C4B11158   8.768  14.097   7.883  0.3491 -0.1652  0.2656
  740POPS   CNO11159  11.149  17.428   5.906  0.0787  0.0341 -0.1562
  740POPS   PO411160  11.277  17.701   6.092 -0.1639  0.3205  0.1087
  740POPS   GL111161  11.477  17.724   6.462  0.0873  0.0767 -0.3374
  740POPS   GL211162  11.312  17.883   6.702 -0.4305  0.2641  0.3026
  740POPS   C1A11163  11.772  17.594   6.796 -0.1131  0.2139 -0.0434
  740POPS   D2A11164  12.117  17.582   7.142 -0.1748 -0.0432  0.1036
  740POPS   C3A11165  12.298  17.865   7.508  0.4324 -0.1339 -0.3778
  740POPS   C4A11166  12.550  18.013   7.635  0.5597  0.0936 -0.0369
  740POPS   C1B11167  10.949  17.921   6.824  0.2693  0.2658  0.1243
  740POPS   C2B11168  10.760  18.075   7.077 -0.3041 -0.0661 -0.1809
  740POPS   C3B11169  10.722  18.426   7.486 -0.0810  0.1936  0.3754
  740POPS   C4B11170  10.721  18.504   7.944 -0.0492  0.1586  0.0141
  741POPS   CNO11171  17.063   3.736   6.679  0.1313 -0.3282  0.2164
  741POPS   PO411172  17.190   3.237   6.707  0.5984 -0.0031  0.0668
  741POPS   GL111173  17.335   3.383   7.073 -0.0798  0.0963  0.2423
  741POPS   GL211174  17.660   3.436   7.055 -0.0047  0.0248 -0.1379
  741POPS   C1A11175  17.428   3.602   7.515 -0.0612 -0.0619  0.0383
  741POPS   D2A11176  17.573   3.642   7.949 -0.3114 -0.1136 -0.3285
  741POPS   C3A11177  17.894   3.616   8.209  0.2392 -0.0258 -0.0925
  741POPS   C4A11178  17.931   3.237   8.336 -0.0599 -0.0817 -0.0461
  741POPS   C1B11179  17.431   3.907   7.053 -0.1754  0.1295  0.3177
  741POPS   C2B11180  17.637   4.246   7.153  0.0207 -0.2675  0.1199
  741POPS   C3B11181  17.980   4.307   7.323  0.0890 -0.0557  0.1425
  741POPS   C4B11182  18.232   4.108   7.565  0.1104 -0.1383 -0.2804
  742POPS   CNO11183  13.511  15.472   5.773  0.1882  0.1390 -0.2403
  742POPS   PO411184  13.908  15.635   5.914 -0.0261 -0.0845  0.1615
  742POPS   GL111185  13.927  15.528   6.328  0.0933 -0.0146  0.2042
  742POPS   GL211186  14.001  15.747   6.495  0.0964  0.2979  0.0979
  742POPS   C1A11187  13.726  15.366   6.788 -0.1703  0.1500 -0.1779
  742POPS   D2A11188  13.586  15.105   7.061  0.2286  0.0067 -0.2856
  742POPS   C3A11189  13.303  15.167   7.328  0.2052  0.3036  0.2316
  742POPS   C4A11190  13.199  15.237   7.711 -0.1944  0.0514  0.0001
  742POPS   C1B11191  13.845  15.791   6.950 -0.1668 -0.0669  0.2140
  742POPS   C2B11192  13.726  15.499   7.323 -0.4476 -0.3080  0.0725
  742POPS   C3B11193  13.746  15.554   7.698 -0.3056 -0.0631  0.2276
  742POPS   C4B11194  13.430  15.490   8.039 -0.0821 -0.0772 -0.0523
  743POPS   CNO11195  10.372  14.360   5.835  0.0625  0.0111 -0.4613
  743POPS   PO411196  10.226  14.589   6.007  0.4376 -0.0267  0.1412
  743POPS   GL111197  10.087  14.334   6.345  0.4153 -0.0448 -0.1017
  743POPS   GL211198  10.353  14.181   6.297  0.3495  0.1591 -0.2504
  743POPS   C1A11199  10.055  14.407   6.771  0.0020 -0.1553 -0.1569
  743POPS   D2A11200  10.021  14.506   7.258  0.5408 -0.1689 -0.0831
  743POPS   C3A11201   9.952  14.209   7.580  0.1539 -0.0814 -0.2669
  743POPS   C4A11202   9.671  13.781   7.831  0.2041 -0.1341  0.2291
  743POPS   C1B11203  10.272  13.939   6.650  0.0693  0.0451 -0.0124
  743POPS   C2B11204  10.474  13.642   7.008 -0.1433 -0.4172  0.0981
  743POPS   C3B11205  10.787  13.423   7.329  0.1394 -0.3244 -0.2428
  743POPS   C4B11206  10.973  13.164   7.579  0.1967 -0.2385  0.3639
  744POPS   CNO11207  11.053   4.332   6.098  0.2614  0.4243  0.0738
  744POPS   PO411208  10.584   4.292   5.937 -0.1063  0.0807  0.0364
  744POPS   GL111209  10.408   4.173   6.300  0.2342 -0.0721  0.4379
  744POPS   GL211210  10.642   4.162   6.534  0.0507 -0.0572 -0.2723
  744POPS   C1A11211  10.174   4.176   6.670  0.3795 -0.1485  0.1566
  744POPS   D2A11212  10.159   4.194   7.133  0.0740 -0.1050  0.0087
  744POPS   C3A11213   9.828   4.149   7.271  0.3346 -0.0830 -0.0670
  744POPS   C4A11214   9.566   4.189   7.497  0.2154  0.3041 -0.4000
  744POPS   C1B11215  10.722   4.216   6.994 -0.1220  0.0961 -0.0791
  744POPS   C2B11216  10.565   4.280   7.468  0.4336  0.1659  0.1394
  744POPS   C3B11217  10.429   4.097   7.873  0.4558 -0.2086 -0.1028
  744POPS   C4B11218  10.299   3.689   8.062  0.1876  0.0649  0.0746
  745POPS   CNO11219   0.180   1.885   5.902 -0.2589  0.0119  0.0630
  745POPS   PO411220   0.294   1.918   6.347 -0.0103  0.2022 -0.1110
  745POPS   GL111221   0.584   1.795   6.617  0.0606 -0.0531  0.1825
  745POPS   GL211222   0.466   1.966   6.927  0.0644 -0.2375 -0.3001
  745POPS   C1A11223   0.872   1.622   6.843 -0.1458  0.1001 -0.0559
  745POPS   D2A11224   0.851   1.644   7.238 -0.1855  0.0883 -0.3599
  745POPS   C3A11225   1.132   1.801   7.421  0.0696  0.1518  0.1145
  745POPS   C4A11226   1.370   1.850   7.863 -0.0732 -0.1598 -0.0971
  745POPS   C1B11227   0.242   2.011   7.337 -0.0029 -0.1607  0.1398
  745POPS   C2B11228   0.121   2.037   7.747 -0.0747 -0.4280 -0.2846
  745POPS   C3B11229   0.172   2.284   8.077  0.3186 -0.1483 -0.0081
  745POPS   C4B11230   0.306   2.367   8.467  0.1797 -0.0347 -0.2944
  746POPS   CNO11231   8.055   2.554   5.667 -0.1583 -0.1001 -0.3518
  746POPS   PO411232   7.883   2.614   6.137  0.1009 -0.0454  0.0543
  746POPS   GL111233   7.938   2.767   6.522 -0.0950 -0.1278 -0.1140
  746POPS   GL211234   8.033   3.120   6.508 -0.0286  0.0718 -0.0384
  746POPS   C1A11235   7.734   3.070   6.922 -0.0119  0.4134  0.3279
  746POPS   D2A11236   7.894   3.184   7.322 -0.0373  0.0781 -0.1446
  746POPS   C3A11237   8.301   3.032   7.483 -0.0571  0.1136  0.2033
  746POPS   C4A11238   8.623   3.359   7.397  0.0816 -0.3508  0.0391
  746POPS   C1B11239   7.999   3.446   6.921 -0.1467 -0.2173 -0.0026
  746POPS   C2B11240   8.166   3.618   7.257 -0.0834  0.2111 -0.2303
  746POPS   C3B11241   8.368   3.858   7.594 -0.0332  0.2016 -0.1892
  746POPS   C4B11242   8.324   4.081   7.841 -0.5609 -0.1948 -0.0476
  747POPS   CNO11243   1.626   0.517   5.941 -0.4617 -0.0187 -0.2165
  747POPS   PO411244   1.740   0.168   6.106  0.4900 -0.1963  0.0124
  747POPS   GL111245   2.094   0.217   6.533 -0.0486 -0.0643  0.0944
  747POPS   GL211246   2.120  -0.102   6.563 -0.0303  0.0255 -0.0044
  747POPS   C1A11247   2.479   0.154   6.916 -0.3035 -0.1526  0.4281
  747POPS   D2A11248   2.448  -0.003   7.280  0.1176 -0.0073 -0.1015
  747POPS   C3A11249   2.505  -0.462   7.148  0.0865  0.4305 -0.0405
  747POPS   C4A11250   2.739  -0.792   7.013  0.5262 -0.1371  0.3556
  747POPS   C1B11251   2.015   0.029   6.966  0.3066  0.1110  0.4241
  747POPS   C2B11252   1.951   0.324   7.247 -0.3989  0.1660 -0.0407
  747POPS   C3B11253   2.141   0.244   7.592 -0.1075 -0.1264  0.0147
  747POPS   C4B11254   2.045   0.360   8.057 -0.2133 -0.3258 -0.0031
  748POPS   CNO11255  17.595  13.827   6.080  0.2427  0.2865  0.3806
  748POPS   PO411256  17.720  13.470   6.198 -0.1717 -0.1974 -0.1129
  748POPS   GL111257  17.635  13.406   6.511  0.0473  0.0824  0.0255
  748POPS   GL211258  17.347  13.582   6.685 -0.1989  0.0248  0.2326
  748POPS   C1A11259  17.887  13.422   6.898 -0.4659 -0.0865 -0.0095
  748POPS   D2A11260  17.542  13.328   7.161 -0.1098  0.0794 -0.0470
  748POPS   C3A11261  17.307  13.558   7.363  0.0185  0.3020 -0.1678
  748POPS   C4A11262  17.144  13.479   7.695 -0.1556  0.0483  0.1497
  748POPS   C1B11263  17.382  13.840   7.025 -0.2160 -0.2320  0.3059
  748POPS   C2B11264  17.459  14.057   7.364  0.0707  0.4008  0.1235
  748POPS   C3B11265  17.413  14.359   7.650 -0.0569 -0.1479  0.0259
  748POPS   C4B11266  17.520  14.738   7.863  0.2741 -0.0715  0.2209
  749POPS   CNO11267   0.798  16.997   6.211 -0.1294  0.1763 -0.0995
  749POPS   PO411268   1.039  16.603   6.126  0.2051 -0.0872  0.3807
  749POPS   GL111269   1.155  16.682   6.536  0.0582  0.0923 -0.0015
  749POPS   GL211270   1.425  16.785   6.572  0.2823  0.2731  0.0114
  749POPS   C1A11271   1.181  16.628   6.979 -0.0683 -0.5232 -0.0297
  749POPS   D2A11272   1.420  16.792   7.371  0.0468 -0.0595  0.2970
  749POPS   C3A11273   1.309  16.717   7.721 -0.1958 -0.0709  0.3222
  749POPS   C4A11274   1.057  16.740   8.126  0.1013 -0.1345 -0.1631
  749POPS   C1B11275   1.677  16.866   6.884 -0.1071 -0.0513  0.1097
  749POPS   C2B11276   1.840  17.041   7.221 -0.1941 -0.0877 -0.0046
  749POPS   C3B11277   1.906  17.151   7.619 -0.0839  0.1425 -0.1195
  749POPS   C4B11278   2.147  17.335   8.011 -0.1696  0.2271 -0.1361
  750POPS   CNO11279   4.918   8.521   5.679 -0.2590 -0.0323 -0.0986
  750POPS   PO411280   4.883   8.179   5.921  0.1377  0.1544 -0.0062
  750POPS   GL111281   4.958   8.342   6.276  0.0239 -0.2260 -0.3197
  750POPS   GL211282   5.155   8.114   6.371 -0.0568 -0.0943  0.0253
  750POPS   C1A11283   5.221   8.670   6.399  0.0900 -0.0141  0.1349
  750POPS   D2A11284   5.190   8.946   6.638  0.0292  0.3772 -0.0700
  750POPS   C3A11285   5.205   9.080   7.094 -0.1779 -0.3138  0.3623
  750POPS   C4A11286   5.378   9.449   7.322 -0.3339  0.3112 -0.0219
  750POPS   C1B11287   5.475   8.357   6.638 -0.1283  0.3377 -0.4122
  750POPS   C2B11288   5.496   8.666   6.958 -0.3066 -0.1264  0.0924
  750POPS   C3B11289   5.616   8.808   7.411 -0.3682  0.3178  0.0491
  750POPS   C4B11290   5.784   9.189   7.359 -0.2192  0.4061 -0.1456
  751POPS   CNO11291   2.441  13.440   5.661  0.0620  0.6005 -0.1427
  751POPS   PO411292   2.863  13.387   5.862  0.0465  0.0802 -0.0200
  751POPS   GL111293   2.997  13.398   6.318 -0.0027 -0.0360 -0.3276
  751POPS   GL211294   2.864  13.719   6.540  0.0968 -0.0110 -0.2597
  751POPS   C1A11295   3.000  13.210   6.624 -0.0682  0.0281 -0.0422
  751POPS   D2A11296   2.765  12.930   6.862  0.1393  0.1004 -0.0420
  751POPS   C3A11297   2.799  12.770   7.234  0.0715  0.1265  0.0500
  751POPS   C4A11298   3.021  12.627   7.568  0.0373  0.1255 -0.1975
  751POPS   C1B11299   3.133  13.763   6.826  0.0537 -0.5260  0.2785
  751POPS   C2B11300   3.538  13.866   7.003  0.1288 -0.2650 -0.1939
  751POPS   C3B11301   3.857  13.657   7.397  0.1287 -0.0194 -0.0409
  751POPS   C4B11302   4.092  13.345   7.751  0.0712  0.0144  0.2051
  752YOPS   CNO11303   4.108   4.673   6.080 -0.2347 -0.0922 -0.0167
  752YOPS   PO411304   4.501   4.811   6.127  0.0332  0.1333 -0.0056
  752YOPS   GL111305   4.843   4.799   6.314  0.4348 -0.0704 -0.0711
  752YOPS   GL211306   4.999   5.063   6.335 -0.1533 -0.2222  0.0339
  752YOPS   C1A11307   4.887   4.596   6.678  0.1487  0.1652 -0.0237
  752YOPS   D2A11308   4.990   4.547   7.155  0.3880 -0.4301 -0.0618
  752YOPS   C3A11309   5.042   4.662   7.530 -0.0964  0.1296 -0.0054
  752YOPS   C4A11310   4.905   4.862   8.010  0.0659  0.0548 -0.0427
  752YOPS   C1B11311   4.801   5.114   6.702  0.0655 -0.1402 -0.1786
  752YOPS   C2B11312   4.786   4.978   7.181  0.2349 -0.1882 -0.0487
  752YOPS   D3B11313   4.918   5.113   7.612  0.1387  0.1067  0.0778
  752YOPS   C4B11314   5.027   5.450   7.821 -0.0742  0.1079 -0.1195
  753YOPS   CNO11315   8.004   0.854   6.073  0.0187  0.1291 -0.4270
  753YOPS   PO411316   8.020   1.373   6.112  0.0901 -0.0004  0.1030
  753YOPS   GL111317   7.907   1.610   6.448  0.1676  0.0777 -0.1452
  753YOPS   GL211318   8.056   1.856   6.749  0.0230  0.4107  0.1465
  753YOPS   C1A11319   7.715   1.544   6.794 -0.0246  0.3705  0.1649
  753YOPS   D2A11320   7.585   1.548   7.237  0.3302 -0.2840  0.0106
  753YOPS   C3A11321   7.250   1.475   7.566 -0.1316 -0.4284 -0.0146
  753YOPS   C4A11322   7.467   1.389   8.046  0.2077 -0.0199 -0.0983
  753YOPS   C1B11323   7.966   1.915   7.172  0.1135 -0.1731  0.1613
  753YOPS   C2B11324   8.030   2.173   7.470 -0.1008 -0.1653  0.0566
  753YOPS   D3B11325   8.215   2.182   7.879  0.0376  0.1191 -0.3629
  753YOPS   C4B11326   8.584   1.919   7.972  0.0043  0.0943  0.2769
  754YOPS   CNO11327  16.795  10.554   5.635 -0.0657 -0.2569 -0.0386
  754YOPS   PO411328  17.250  10.589   5.930  0.2066  0.1942  0.1197
  754YOPS   GL111329  17.194  10.583   6.426 -0.2362  0.0893 -0.0554
  754YOPS   GL211330  17.470  10.679   6.564  0.0622  0.2787  0.1848
  754YOPS   C1A11331  16.943  10.366   6.764  0.1632 -0.2848 -0.0682
  754YOPS   D2A11332  16.817  10.299   7.166  0.1934 -0.2654 -0.1335
  754YOPS   C3A11333  16.654  10.462   7.578  0.0584 -0.1298  0.0887
  754YOPS   C4A11334  16.354  10.629   7.671 -0.1482 -0.0848  0.0030
  754YOPS   C1B11335  17.419  10.357   6.891 -0.3947  0.5525  0.0587
  754YOPS   C2B11336  17.266  10.539   7.188  0.0389  0.2126  0.0683
  754YOPS   D3B11337  17.154  10.396   7.561  0.2303  0.1144  0.1528
  754YOPS   C4B11338  17.151  10.890   7.706  0.1797 -0.0762  0.1381
  755YOPS   CNO11339   6.679   6.671   5.326 -0.1494  0.2242 -0.0771
  755YOPS   PO411340   6.804   6.469   5.752  0.0843 -0.1211  0.0493
  755YOPS   GL111341   6.748   6.545   6.241 -0.1582  0.1388 -0.0169
  755YOPS   GL211342   6.491   6.439   6.506 -0.2068 -0.2250  0.3002
  755YOPS   C1A11343   6.937   6.726   6.542 -0.0447 -0.1132 -0.2022
  755YOPS   D2A11344   7.103   6.544   6.882 -0.1235 -0.1801  0.0433
  755YOPS   C3A11345   7.081   6.510   7.222 -0.1541 -0.1048 -0.1275
  755YOPS   C4A11346   7.507   6.298   7.226 -0.4888  0.2378  0.1749
  755YOPS   C1B11347   6.354   6.673   6.815  0.4559 -0.0502  0.0755
  755YOPS   C2B11348   6.308   6.803   7.206 -0.1201 -0.2033  0.0937
  755YOPS   D3B11349   6.175   6.672   7.691  0.0742 -0.2115  0.2899
  755YOPS   C4B11350   6.495   6.726   8.040 -0.1642 -0.1150  0.2855
  756YOPS   CNO11351   7.873   4.564   5.562 -0.2206  0.0438  0.2267
  756YOPS   PO411352   7.562   4.694   5.723  0.4974  0.3671 -0.0271
  756YOPS   GL111353   7.696   4.470   6.113 -0.0823 -0.1037 -0.0007
  756YOPS   GL211354   7.820   4.181   6.266 -0.0397 -0.0338  0.0060
  756YOPS   C1A11355   7.853   4.622   6.510 -0.1679 -0.3332  0.0417
  756YOPS   D2A11356   7.843   4.906   6.849 -0.0660 -0.0049 -0.4543
  756YOPS   C3A11357   7.578   5.271   7.070  0.1253 -0.1369  0.0621
  756YOPS   C4A11358   7.514   5.770   7.042  0.1688 -0.1630 -0.0647
  756YOPS   C1B11359   8.270   4.345   6.385 -0.3239  0.0263 -0.3083
  756YOPS   C2B11360   8.733   4.447   6.566 -0.0073  0.1545 -0.0167
  756YOPS   D3B11361   8.962   4.734   6.817 -0.2223 -0.0612  0.1801
  756YOPS   C4B11362   8.973   4.745   7.232  0.0368 -0.0442 -0.4413
  757YOPS   CNO11363   7.261  15.949   6.195  0.0515  0.1114  0.3533
  757YOPS   PO411364   7.471  15.588   6.196 -0.4072  0.2315  0.1009
  757YOPS   GL111365   7.647  15.588   6.629  0.0400 -0.1680  0.1012
  757YOPS   GL211366   7.988  15.404   6.751  0.2728 -0.3528 -0.2323
  757YOPS   C1A11367   7.936  15.847   6.877 -0.0124  0.0351  0.2039
  757YOPS   D2A11368   8.110  16.236   7.013 -0.3252 -0.2658 -0.1355
  757YOPS   C3A11369   8.140  16.712   6.991 -0.2428 -0.0978 -0.2923
  757YOPS   C4A11370   8.115  17.095   7.163 -0.2156 -0.1628  0.1213
  757YOPS   C1B11371   8.071  15.057   7.112  0.3034 -0.1181 -0.0830
  757YOPS   C2B11372   7.741  14.914   7.426 -0.5706 -0.0720  0.0452
  757YOPS   D3B11373   7.431  14.944   7.662  0.1750 -0.1078 -0.3599
  757YOPS   C4B11374   7.282  15.263   7.920 -0.0495  0.0565  0.1126
  758YOPS   CNO11375  14.312  13.152   6.169  0.1314  0.1706 -0.0414
  758YOPS   PO411376  14.340  12.741   6.202  0.0820 -0.0572 -0.0078
  758YOPS   GL111377  14.254  12.608   6.595 -0.0729  0.2161  0.1993
  758YOPS   GL211378  14.247  12.907   6.723  0.4408  0.0609 -0.1799
  758YOPS   C1A11379  14.486  12.530   6.959  0.1065  0.0297  0.2460
  758YOPS   D2A11380  14.553  12.811   7.348  0.2932  0.2535 -0.0294
  758YOPS   C3A11381  14.451  12.752   7.732 -0.1336 -0.1552 -0.0696
  758YOPS   C4A11382  14.090  13.038   7.958  0.1024 -0.4947  0.0374
  758YOPS   C1B11383  14.054  12.777   7.074  0.0286  0.2251 -0.3128
  758YOPS   C2B11384  14.057  12.665   7.489 -0.0065  0.1163  0.1343
  758YOPS   D3B11385  13.809  12.596   7.794  0.0440  0.0596 -0.0519
  758YOPS   C4B11386  13.991  12.576   8.191  0.1333  0.1316 -0.2748
  759YOPS   CNO11387   9.214  10.731   4.980  0.0414  0.2469 -0.2065
  759YOPS   PO411388   9.319  11.059   5.372 -0.1006 -0.0978 -0.1419
  759YOPS   GL111389   9.464  10.897   5.802  0.2837 -0.0610  0.2248
  759YOPS   GL211390   9.523  10.535   5.827  0.1114 -0.1354  0.3057
  759YOPS   C1A11391   9.739  10.962   6.147  0.1332 -0.0363 -0.0942
  759YOPS   D2A11392  10.004  10.990   6.494 -0.0797  0.2828  0.1778
  759YOPS   C3A11393  10.361  11.130   6.626 -0.1309 -0.0354 -0.1152
  759YOPS   C4A11394  10.316  10.974   6.992  0.0971 -0.0267  0.1138
  759YOPS   C1B11395   9.472  10.559   6.283 -0.1417  0.1753 -0.1937
  759YOPS   C2B11396   9.469  10.754   6.614  0.0212 -0.1487 -0.0112
  759YOPS   D3B11397   9.617  11.058   7.001 -0.2330  0.0209 -0.0167
  759YOPS   C4B11398   9.960  11.347   6.882 -0.2553 -0.0920  0.0095
  760YOPS   CNO11399   9.999   7.713   5.393 -0.2311 -0.0173 -0.0158
  760YOPS   PO411400   9.907   8.139   5.348  0.1437  0.2548  0.0191
  760YOPS   GL111401   9.972   8.352   5.807 -0.2443  0.0337  0.1451
  760YOPS   GL211402   9.843   8.591   5.864  0.3842 -0.0254 -0.0598
  760YOPS   C1A11403   9.929   8.185   6.305  0.1539  0.1020 -0.1643
  760YOPS   D2A11404   9.744   8.470   6.624 -0.0094  0.2440  0.2629
  760YOPS   C3A11405   9.893   8.559   7.019 -0.0841 -0.2060  0.0953
  760YOPS   C4A11406   9.832   8.377   7.411 -0.0649  0.0290 -0.0033
  760YOPS   C1B11407   9.871   8.759   6.261 -0.0370  0.3265 -0.0278
  760YOPS   C2B11408  10.129   8.800   6.612 -0.0585  0.2504 -0.3292
  760YOPS   D3B11409  10.193   8.965   6.943 -0.2070 -0.3027 -0.0626
  760YOPS   C4B11410  10.012   9.005   7.223  0.0155  0.0925  0.4383
  761YOPS   CNO11411  12.309  11.753   6.191 -0.2883 -0.1436  0.3744
  761YOPS   PO411412  12.627  12.028   6.022 -0.2123  0.3386  0.0403
  761YOPS   GL111413  12.640  12.103   6.447 -0.1815  0.0616  0.0299
  761YOPS   GL211414  12.684  11.719   6.463 -0.0725  0.0976  0.3836
  761YOPS   C1A11415  12.680  12.128   6.950  0.2564 -0.2209  0.2037
  761YOPS   D2A11416  12.778  12.226   7.317  0.1099 -0.0806 -0.1193
  761YOPS   C3A11417  12.396  12.211   7.606  0.1199  0.3416  0.0303
  761YOPS   C4A11418  12.477  12.206   8.005  0.1515 -0.1202  0.0006
  761YOPS   C1B11419  12.530  11.491   6.832 -0.2021  0.0724  0.2407
  761YOPS   C2B11420  12.132  11.352   6.842  0.2622  0.0294 -0.1372
  761YOPS   D3B11421  11.750  11.312   6.701 -0.0827  0.0967  0.1329
  761YOPS   C4B11422  11.726  11.630   6.494  0.0270  0.0255  0.1472
  762YOPS   CNO11423  17.510   3.609   6.576 -0.0822  0.1248 -0.0888
  762YOPS   PO411424  17.885   3.524   6.628  0.2651  0.1591 -0.1283
  762YOPS   GL111425  17.939   3.870   6.897 -0.1542  0.0874 -0.3998
  762YOPS   GL211426  18.209   4.073   6.823  0.0941 -0.2578 -0.2006
  762YOPS   C1A11427  17.867   3.822   7.403  0.3760  0.2882  0.1364
  762YOPS   D2A11428  18.127   3.596   7.787 -0.1520 -0.1982 -0.0309
  762YOPS   C3A11429  18.435   3.447   8.196  0.3543  0.1946  0.2995
  762YOPS   C4A11430  18.344   3.615   8.586 -0.1850 -0.0561  0.0681
  762YOPS   C1B11431  18.419   3.973   7.134 -0.1400  0.2034 -0.0504
  762YOPS   C2B11432  18.352   3.592   7.291  0.4111 -0.0402 -0.4251
  762YOPS   D3B11433  18.612   3.378   7.618 -0.0986 -0.1507 -0.0950
  762YOPS   C4B11434  18.556   2.999   7.614  0.0561  0.0167  0.0810
  763YOPS   CNO11435   7.261  17.496   6.135  0.2205  0.1522  0.1377
  763YOPS   PO411436   7.129  17.905   5.999  0.1544 -0.1115 -0.0681
  763YOPS   GL111437   7.057  17.892   6.454 -0.2004  0.1527  0.3968
  763YOPS   GL211438   6.842  18.185   6.581 -0.1193  0.1842  0.3395
  763YOPS   C1A11439   7.266  17.795   6.855  0.0770 -0.2991 -0.1429
  763YOPS   D2A11440   7.217  17.458   7.180  0.0245 -0.2186  0.0597
  763YOPS   C3A11441   7.196  17.253   7.497  0.1506  0.0620  0.0738
  763YOPS   C4A11442   6.925  17.255   7.841  0.3535 -0.0412  0.1100
  763YOPS   C1B11443   7.070  18.332   6.949 -0.1270  0.2972  0.2311
  763YOPS   C2B11444   7.304  18.110   7.307  0.2850 -0.1949  0.1753
  763YOPS   D3B11445   7.498  18.269   7.707  0.1605  0.2833 -0.1762
  763YOPS   C4B11446   7.370  18.112   8.053  0.0159  0.1990 -0.0821
  764YOPS   CNO11447   2.720  10.502   5.330 -0.4026  0.0780 -0.0803
  764YOPS   PO411448   2.510  10.251   5.659  0.0775  0.2125  0.2069
  764YOPS   GL111449   2.367  10.284   6.098  0.0388  0.0913  0.0277
  764YOPS   GL211450   2.160  10.426   6.278  0.0581  0.3965 -0.2476
  764YOPS   C1A11451   2.459  10.007   6.486 -0.0904  0.2002  0.0639
  764YOPS   D2A11452   2.749  10.068   6.853  0.0132  0.0276 -0.1284
  764YOPS   C3A11453   2.789   9.732   7.130 -0.4533  0.1212  0.2323
  764YOPS   C4A11454   2.931   9.337   7.020  0.0115  0.1187 -0.2112
  764YOPS   C1B11455   2.262  10.386   6.738  0.1242 -0.1628 -0.1563
  764YOPS   C2B11456   2.247  10.221   7.155 -0.0953  0.0645  0.4152
  764YOPS   D3B11457   2.013  10.008   7.552  0.0183 -0.3845  0.1394
  764YOPS   C4B11458   1.589   9.983   7.695  0.0820  0.0146 -0.0908
  765YOPS   CNO11459   8.897  16.663   6.108  0.1215 -0.1956  0.0813
  765YOPS   PO411460   9.275  16.764   5.787 -0.0470 -0.0453 -0.2235
  765YOPS   GL111461   9.350  16.471   6.159 -0.2183  0.0848 -0.0132
  765YOPS   GL211462   9.371  16.131   6.284 -0.0888  0.2266  0.2247
  765YOPS   C1A11463   9.126  16.476   6.561  0.0281  0.0278  0.0209
  765YOPS   D2A11464   8.908  16.414   6.841 -0.2378  0.1897  0.4293
  765YOPS   C3A11465   8.576  16.486   7.079 -0.0856 -0.1137 -0.0729
  765YOPS   C4A11466   8.549  16.337   7.478  0.1586 -0.2164  0.1768
  765YOPS   C1B11467   9.693  16.116   6.609  0.3548 -0.1927  0.2823
  765YOPS   C2B11468   9.764  16.007   7.019 -0.2363 -0.0533  0.0502
  765YOPS   D3B11469   9.528  16.055   7.513 -0.0607 -0.4658  0.0026
  765YOPS   C4B11470   9.428  15.806   7.810  0.0673  0.0971  0.3128
  766YOPS   CNO11471  17.067   1.396   5.946  0.0232  0.3314 -0.0208
  766YOPS   PO411472  16.785   1.516   6.280  0.1944 -0.1785  0.0207
  766YOPS   GL111473  16.776   1.706   6.635 -0.2770  0.2391  0.0121
  766YOPS   GL211474  17.073   1.735   6.744 -0.0880 -0.3888 -0.1738
  766YOPS   C1A11475  16.632   1.713   7.051 -0.0094 -0.0378 -0.1651
  766YOPS   D2A11476  16.355   1.514   7.452  0.0773  0.2954  0.1176
  766YOPS   C3A11477  16.255   1.636   7.847 -0.0040  0.0217 -0.4454
  766YOPS   C4A11478  16.451   1.471   8.165  0.0802 -0.2570  0.0778
  766YOPS   C1B11479  17.189   1.505   7.106  0.1676  0.1553 -0.4222
  766YOPS   C2B11480  17.337   1.249   7.375 -0.0840  0.1876 -0.1845
  766YOPS   D3B11481  17.253   1.083   7.798  0.0167  0.0254 -0.1970
  766YOPS   C4B11482  17.556   0.801   7.995  0.1488 -0.1815  0.0355
  767YOPS   CNO11483   5.861   4.403   5.761  0.1456 -0.0786  0.0671
  767YOPS   PO411484   6.126   4.416   6.109  0.1814  0.1418 -0.0206
  767YOPS   GL111485   6.054   4.634   6.450 -0.0365  0.1182  0.1676
  767YOPS   GL211486   5.913   4.469   6.619 -0.2095  0.1968 -0.0161
  767YOPS   C1A11487   6.359   4.594   6.869 -0.0865 -0.0724  0.0018
  767YOPS   D2A11488   6.228   4.609   7.272 -0.1288  0.2435 -0.2470
  767YOPS   C3A11489   6.092   4.555   7.638 -0.1121  0.2437 -0.1669
  767YOPS   C4A11490   5.918   4.908   7.952 -0.1103 -0.2391 -0.1073
  767YOPS   C1B11491   6.182   4.080   6.698  0.0245  0.3024  0.1469
  767YOPS   C2B11492   6.035   3.750   6.925 -0.0079  0.0958  0.0960
  767YOPS   D3B11493   6.247   3.363   7.031 -0.4659 -0.3063 -0.2976
  767YOPS   C4B11494   6.497   3.308   7.333 -0.2749  0.1453  0.2650
  768YOPS   CNO11495  10.120  12.250   5.323 -0.2906 -0.1538 -0.1243
  768YOPS   PO411496  10.101  12.479   5.744  0.0488 -0.2030  0.1156
  768YOPS   GL111497  10.078  12.760   6.136  0.1964 -0.0728  0.0344
  768YOPS   GL211498  10.048  12.989   6.350 -0.2381 -0.2543  0.1201
  768YOPS   C1A11499  10.461  12.738   6.514 -0.1690  0.1239  0.2062
  768YOPS   D2A11500  10.801  12.761   6.755 -0.0679 -0.0052  0.2636
  768YOPS   C3A11501  10.993  13.063   6.960  0.2049 -0.0433 -0.3145
  768YOPS   C4A11502  10.959  13.531   6.842 -0.1687  0.0661 -0.0106
  768YOPS   C1B11503   9.793  12.861   6.770 -0.0682 -0.2386  0.1143
  768YOPS   C2B11504   9.622  12.749   7.184  0.1032 -0.1245  0.2463
  768YOPS   D3B11505   9.390  12.925   7.560 -0.0179 -0.0411  0.0087
  768YOPS   C4B11506   9.649  13.322   7.592 -0.1609  0.4946  0.5122
  769YOPS   CNO11507   0.061   0.045   6.555 -0.2189 -0.6350 -0.0105
  769YOPS   PO411508  -0.272   0.320   6.339 -0.3959 -0.0916 -0.2609
  769YOPS   GL111509  -0.358   0.343   6.801 -0.1623 -0.0126 -0.0728
  769YOPS   GL211510  -0.610   0.520   6.920  0.0478  0.2659 -0.1418
  769YOPS   C1A11511  -0.427   0.309   7.295  0.0674  0.2673 -0.2990
  769YOPS   D2A11512  -0.498  -0.078   7.508 -0.1657  0.2422 -0.2362
  769YOPS   C3A11513  -0.412  -0.182   7.927 -0.1024  0.0105 -0.0303
  769YOPS   C4A11514  -0.117  -0.401   8.246  0.0182  0.3197  0.1802
  769YOPS   C1B11515  -0.881   0.205   7.155 -0.1881  0.1769 -0.1622
  769YOPS   C2B11516  -0.960  -0.156   7.406 -0.1329  0.0565 -0.4038
  769YOPS   D3B11517  -1.097  -0.571   7.481 -0.3076  0.2054  0.0099
  769YOPS   C4B11518  -1.064  -0.785   7.890 -0.1086  0.1151 -0.0942
  770YOPS   CNO11519  11.101  10.508   5.530  0.0601  0.0358  0.0590
  770YOPS   PO411520  10.790  10.633   5.661 -0.0644 -0.0222  0.1110
  770YOPS   GL111521  10.798  10.864   5.981 -0.2595  0.0833  0.3061
  770YOPS   GL211522  10.978  10.563   6.211  0.4462 -0.0514 -0.0978
  770YOPS   C1A11523  10.789  10.903   6.537  0.1184 -0.0201  0.0611
  770YOPS   D2A11524  10.855  11.001   6.923 -0.1532  0.2107 -0.0944
  770YOPS   C3A11525  10.691  11.186   7.359 -0.1770  0.2306 -0.1356
  770YOPS   C4A11526  10.382  10.879   7.535 -0.2265  0.1172 -0.0501
  770YOPS   C1B11527  11.332  10.301   6.359  0.1023  0.0878 -0.0522
  770YOPS   C2B11528  11.704  10.465   6.481  0.3024 -0.0369 -0.2659
  770YOPS   D3B11529  11.961  10.853   6.700  0.1046  0.1692  0.2336
  770YOPS   C4B11530  11.813  11.000   7.064  0.0906  0.1776 -0.0597
  771YOPS   CNO11531   4.391   8.177   5.947 -0.2476  0.0965 -0.0309
  771YOPS   PO411532   4.085   8.553   5.881 -0.0218 -0.0949 -0.1550
  771YOPS   GL111533   4.107   8.674   6.330 -0.1460 -0.0338  0.2072
  771YOPS   GL211534   4.014   8.917   6.539 -0.1364  0.1508 -0.1380
  771YOPS   C1A11535   4.302   8.334   6.662  0.0250 -0.2359  0.1370
  771YOPS   D2A11536   4.434   8.307   7.071 -0.1174 -0.4599 -0.1451
  771YOPS   C3A11537   4.628   8.500   7.378  0.0762  0.0343  0.3737
  771YOPS   C4A11538   4.431   8.477   7.632  0.3616  0.2008  0.0268
  771YOPS   C1B11539   4.074   9.200   6.811 -0.2024 -0.2695 -0.0938
  771YOPS   C2B11540   4.200   9.194   7.215 -0.0490 -0.0858  0.0098
  771YOPS   D3B11541   4.414   8.986   7.629  0.1953  0.0576 -0.0466
  771YOPS   C4B11542   4.281   8.795   8.024  0.2589 -0.0110 -0.2376
  772YOPS   CNO11543   4.794   0.618   5.612  0.0505 -0.0777 -0.1492
  772YOPS   PO411544   5.116   0.870   5.778 -0.0306 -0.0652 -0.1590
  772YOPS   GL111545   5.185   0.722   6.228  0.0691 -0.1802 -0.1987
  772YOPS   GL211546   5.189   0.353   6.412 -0.0684  0.0041  0.0539
  772YOPS   C1A11547   5.313   0.999   6.634  0.0916  0.1462 -0.2496
  772YOPS   D2A11548   5.376   1.270   7.039 -0.0265 -0.3262  0.0096
  772YOPS   C3A11549   5.070   1.562   7.252 -0.1510  0.0513  0.0854
  772YOPS   C4A11550   4.786   1.873   7.238 -0.0126  0.1157  0.4032
  772YOPS   C1B11551   5.133   0.535   6.864 -0.2065 -0.2760 -0.3346
  772YOPS   C2B11552   4.936   0.567   7.257  0.2448  0.2530 -0.1948
  772YOPS   D3B11553   4.595   0.498   7.583 -0.1523 -0.4305  0.1300
  772YOPS   C4B11554   4.682   0.664   8.004  0.1195 -0.3377 -0.2484
  773YOPS   CNO11555  12.057  12.347   5.553  0.3055  0.0117 -0.0520
  773YOPS   PO411556  12.025  12.131   5.939  0.2678  0.1413  0.4062
  773YOPS   GL111557  11.843  12.051   6.239 -0.1952 -0.1639  0.2414
  773YOPS   GL211558  12.081  12.289   6.389 -0.0156  0.1150  0.1859
  773YOPS   C1A11559  11.392  12.123   6.495 -0.4395  0.0353 -0.0383
  773YOPS   D2A11560  11.162  12.245   6.776 -0.2040 -0.0987 -0.1604
  773YOPS   C3A11561  10.962  12.467   7.091  0.1320  0.0867  0.0398
  773YOPS   C4A11562  10.923  12.314   7.486 -0.2944 -0.1317 -0.3086
  773YOPS   C1B11563  12.176  11.898   6.673 -0.2943 -0.1908  0.0117
  773YOPS   C2B11564  12.271  11.828   7.102  0.1444  0.0455 -0.3155
  773YOPS   D3B11565  12.144  11.749   7.578 -0.0696  0.1722 -0.0649
  773YOPS   C4B11566  11.697  11.729   7.637  0.2027 -0.0803 -0.4519
  774YOPS   CNO11567  12.374   2.761   6.191  0.2426 -0.0941 -0.1422
  774YOPS   PO411568  12.050   2.983   6.117  0.0180 -0.0491  0.0445
  774YOPS   GL111569  11.947   2.807   6.477  0.2984 -0.0727 -0.1258
  774YOPS   GL211570  12.184   2.798   6.663  0.0076 -0.0212 -0.1390
  774YOPS   C1A11571  11.710   2.736   6.843  0.0413 -0.4477  0.0612
  774YOPS   D2A11572  11.729   2.791   7.333  0.1788 -0.1997 -0.2080
  774YOPS   C3A11573  11.856   2.951   7.704  0.0186  0.2741 -0.0507
  774YOPS   C4A11574  12.170   3.266   7.585  0.2200  0.2024  0.2770
  774YOPS   C1B11575  12.141   2.482   6.991  0.1089 -0.1313 -0.1509
  774YOPS   C2B11576  11.935   2.415   7.547  0.0889 -0.1963 -0.0800
  774YOPS   D3B11577  11.874   2.531   8.051 -0.1266  0.2064  0.0843
  774YOPS   C4B11578  11.697   2.276   8.411 -0.1801 -0.0049  0.1895
  775YOPS   CNO11579   1.213  10.321   5.802  0.1955  0.1550 -0.0192
  775YOPS   PO411580   1.010  10.663   5.811 -0.0795  0.0655 -0.0869
  775YOPS   GL111581   0.945  10.577   6.241  0.0181  0.0842 -0.1157
  775YOPS   GL211582   1.191  10.494   6.315 -0.0569  0.3260  0.0965
  775YOPS   C1A11583   0.532  10.689   6.402  0.0471 -0.0756 -0.0411
  775YOPS   D2A11584   0.286  11.019   6.555  0.1231 -0.0410 -0.0503
  775YOPS   C3A11585   0.340  10.970   6.966  0.2254 -0.0800  0.2174
  775YOPS   C4A11586   0.279  11.337   7.290  0.2045  0.0439 -0.2607
  775YOPS   C1B11587   1.119  10.174   6.684 -0.1711  0.0341  0.2147
  775YOPS   C2B11588   1.062   9.983   7.070 -0.1152 -0.1338 -0.1400
  775YOPS   D3B11589   0.934   9.728   7.433  0.1840 -0.1151 -0.1532
  775YOPS   C4B11590   0.844  10.034   7.793 -0.0396 -0.0263  0.4712
  776YOPS   CNO11591   8.360   6.507   5.611  0.3383 -0.0840 -0.2153
  776YOPS   PO411592   8.342   6.593   6.025  0.2237  0.2396  0.1689
  776YOPS   GL111593   8.134   6.800   6.295  0.0340  0.3214  0.0460
  776YOPS   GL211594   8.324   7.047   6.362 -0.2640 -0.0185  0.1182
  776YOPS   C1A11595   8.234   6.680   6.746  0.1347  0.4314 -0.1431
  776YOPS   D2A11596   8.246   6.780   7.173 -0.0677 -0.1264  0.0276
  776YOPS   C3A11597   8.059   7.021   7.614  0.0748 -0.0217  0.0951
  776YOPS   C4A11598   8.077   7.080   8.057  0.0236 -0.0272 -0.1936
  776YOPS   C1B11599   8.492   7.188   6.722 -0.2279  0.2434  0.1308
  776YOPS   C2B11600   8.503   7.262   7.195 -0.1376 -0.0680 -0.1049
  776YOPS   D3B11601   8.594   7.191   7.583 -0.0815 -0.1230  0.3054
  776YOPS   C4B11602   8.520   7.244   8.003 -0.0498 -0.1368 -0.0389
  777YOPS   CNO11603   3.782   1.155   6.163 -0.0221  0.1648 -0.1804
  777YOPS   PO411604   3.686   1.652   6.104  0.1299  0.0684 -0.2196
  777YOPS   GL111605   3.883   1.547   6.504  0.0148 -0.0033  0.2699
  777YOPS   GL211606   3.902   1.303   6.618 -0.2387  0.3141  0.0231
  777YOPS   C1A11607   4.105   1.840   6.814 -0.1616  0.1119 -0.0737
  777YOPS   D2A11608   4.277   1.812   7.202 -0.0321 -0.5783 -0.0039
  777YOPS   C3A11609   4.514   2.183   7.489  0.1833 -0.0585  0.5336
  777YOPS   C4A11610   4.899   2.286   7.701 -0.2877 -0.1127 -0.1941
  777YOPS   C1B11611   3.957   1.367   6.995  0.1358  0.0911  0.2343
  777YOPS   C2B11612   4.110   1.372   7.386 -0.0527  0.0452  0.0273
  777YOPS   D3B11613   4.195   1.254   7.842  0.2490 -0.1003  0.0268
  777YOPS   C4B11614   3.964   0.981   8.117 -0.0246  0.3260  0.1697
  778YOPS   CNO11615   0.298  16.106   5.811 -0.0627  0.2622 -0.0914
  778YOPS   PO411616   0.408  16.127   6.245  0.0400  0.1880  0.1738
  778YOPS   GL111617   0.507  16.134   6.618 -0.0015  0.2722 -0.1565
  778YOPS   GL211618   0.824  16.268   6.809  0.0083 -0.2126  0.0682
  778YOPS   C1A11619   0.472  15.862   6.995 -0.0343 -0.5753 -0.2141
  778YOPS   D2A11620   0.300  15.692   7.419  0.3231 -0.1321 -0.0328
  778YOPS   C3A11621   0.087  15.667   7.818  0.1333 -0.0596 -0.1763
  778YOPS   C4A11622   0.406  15.903   7.939  0.3064 -0.2856 -0.0288
  778YOPS   C1B11623   0.640  16.298   7.176  0.1138  0.3664 -0.1288
  778YOPS   C2B11624   0.320  16.208   7.488  0.1699 -0.1645 -0.2926
  778YOPS   D3B11625  -0.139  16.090   7.648 -0.2213 -0.2182 -0.2310
  778YOPS   C4B11626  -0.519  16.478   7.621 -0.0737  0.2946 -0.1635
  779YOPS   CNO11627  10.026   9.115   5.371 -0.0813  0.0317  0.1555
  779YOPS   PO411628  10.111   9.587   5.518 -0.0588 -0.0429 -0.1672
  779YOPS   GL111629   9.995   9.440   5.850 -0.1082 -0.2054  0.0318
  779YOPS   GL211630  10.063   9.567   6.059 -0.0350 -0.2118  0.0164
  779YOPS   C1A11631   9.719   9.222   6.014  0.2230  0.0075 -0.1318
  779YOPS   D2A11632   9.529   9.096   6.379  0.0621  0.2253 -0.0703
  779YOPS   C3A11633   9.724   9.028   6.794  0.2307 -0.4411 -0.1174
  779YOPS   C4A11634   9.544   9.198   7.187 -0.0882  0.0987 -0.0555
  779YOPS   C1B11635  10.048   9.291   6.471  0.0990 -0.0113  0.0992
  779YOPS   C2B11636  10.024   9.486   6.904 -0.0633  0.1798 -0.1711
  779YOPS   D3B11637   9.980   9.508   7.347  0.0438  0.2718  0.1183
  779YOPS   C4B11638   9.730   9.319   7.632 -0.0246  0.2151 -0.1903
  780YOPS   CNO11639  14.739  12.410   6.437 -0.0141  0.1817 -0.1109
  780YOPS   PO411640  15.119  12.554   6.481 -0.3708 -0.1120  0.0602
  780YOPS   GL111641  15.191  12.645   6.896 -0.2200 -0.0040 -0.1042
  780YOPS   GL211642  15.490  12.736   6.914  0.1223 -0.1433  0.1489
  780YOPS   C1A11643  14.953  12.483   7.228  0.0403 -0.0095 -0.3961
  780YOPS   D2A11644  14.899  12.586   7.681  0.0138  0.0627  0.2592
  780YOPS   C3A11645  14.906  12.558   8.029 -0.3261 -0.0869  0.3613
  780YOPS   C4A11646  15.012  12.920   8.356  0.1532  0.1207  0.2478
  780YOPS   C1B11647  15.370  12.733   7.393  0.5778  0.1640  0.4320
  780YOPS   C2B11648  15.336  12.790   7.770 -0.2677  0.1927 -0.4823
  780YOPS   D3B11649  15.534  12.939   8.212  0.2248  0.0540 -0.3977
  780YOPS   C4B11650  15.871  13.271   8.199 -0.0301  0.1255 -0.2283
  781YOPS   CNO11651   3.276  16.935   6.245 -0.1236 -0.2663 -0.2531
  781YOPS   PO411652   2.857  16.999   6.328 -0.1810 -0.0979  0.0940
  781YOPS   GL111653   2.689  16.794   6.680  0.0936 -0.1228 -0.1876
  781YOPS   GL211654   2.463  16.617   6.709 -0.0319 -0.1689  0.0020
  781YOPS   C1A11655   2.648  16.817   7.176  0.0923  0.0132 -0.3769
  781YOPS   D2A11656   2.803  16.780   7.530 -0.2115 -0.1760 -0.2423
  781YOPS   C3A11657   3.007  16.766   7.942  0.2708  0.0530  0.2879
  781YOPS   C4A11658   2.859  16.437   8.291 -0.2938  0.0118  0.2985
  781YOPS   C1B11659   2.146  16.672   7.018  0.0727  0.1925  0.0291
  781YOPS   C2B11660   1.925  16.563   7.367 -0.0428  0.0155  0.1593
  781YOPS   D3B11661   2.097  16.414   7.835  0.0123  0.0233 -0.1444
  781YOPS   C4B11662   2.252  16.572   8.217  0.1530 -0.0090  0.1304
  782POPE   NH311663  15.590   6.254   6.090 -0.2555  0.1717 -0.1506
  782POPE   PO411664  15.243   6.241   6.370  0.1789 -0.1162  0.0771
  782POPE   GL111665  15.205   6.572   6.697  0.1488  0.5162 -0.3065
  782POPE   GL211666  15.462   6.653   6.869 -0.0281 -0.2148 -0.0836
  782POPE   C1A11667  15.013   6.550   7.128  0.2562  0.1324 -0.3342
  782POPE   D2A11668  14.860   6.455   7.567  0.1458 -0.0453  0.0611
  782POPE   C3A11669  15.066   6.541   7.951  0.2392 -0.2541 -0.1973
  782POPE   C4A11670  15.054   6.428   8.351  0.1456  0.0484  0.0199
  782POPE   C1B11671  15.561   6.678   7.309  0.4045 -0.2399 -0.0371
  782POPE   C2B11672  15.873   6.441   7.613  0.1622  0.0238 -0.3523
  782POPE   C3B11673  16.139   6.547   7.896 -0.4866 -0.2116  0.0313
  782POPE   C4B11674  16.596   6.625   8.013  0.1042  0.0930  0.0203
  783POPE   NH311675  15.620  14.183   6.251  0.1155  0.2748 -0.2577
  783POPE   PO411676  15.188  14.269   6.214 -0.2764 -0.1487 -0.0331
  783POPE   GL111677  14.857  14.364   6.524 -0.0507 -0.0059 -0.0191
  783POPE   GL211678  14.676  14.585   6.541 -0.1363  0.0774  0.0614
  783POPE   C1A11679  14.823  14.285   6.923 -0.0914 -0.0168  0.1697
  783POPE   D2A11680  14.719  14.641   7.178  0.1941 -0.0649  0.2105
  783POPE   C3A11681  14.959  14.488   7.575  0.0174  0.2739 -0.2373
  783POPE   C4A11682  15.156  14.808   7.913  0.1394 -0.1403  0.1488
  783POPE   C1B11683  14.341  14.692   6.711  0.1192 -0.0830 -0.1235
  783POPE   C2B11684  14.074  14.593   7.187 -0.0424 -0.2429  0.1478
  783POPE   C3B11685  14.042  14.591   7.632 -0.2576  0.0904 -0.4008
  783POPE   C4B11686  14.155  14.271   8.007  0.2838 -0.0744 -0.3320
  784POPE   NH311687   4.186  14.001   5.730 -0.0067 -0.0642 -0.0452
  784POPE   PO411688   3.934  14.157   5.695 -0.1356 -0.3137 -0.0566
  784POPE   GL111689   3.892  13.961   6.142  0.2754  0.3922  0.0229
  784POPE   GL211690   4.189  13.935   6.205 -0.0332  0.2150  0.2105
  784POPE   C1A11691   3.895  13.821   6.576  0.1013  0.0476 -0.1583
  784POPE   D2A11692   3.991  14.025   7.002 -0.0805 -0.1589 -0.0432
  784POPE   C3A11693   3.755  14.199   7.480  0.1081 -0.1511 -0.0432
  784POPE   C4A11694   3.803  14.295   7.906  0.1733 -0.2534 -0.1613
  784POPE   C1B11695   4.404  13.858   6.582 -0.2018 -0.0390  0.0588
  784POPE   C2B11696   4.401  13.845   7.022 -0.1267  0.1792  0.3186
  784POPE   C3B11697   4.299  14.237   7.349 -0.2728  0.2370 -0.0067
  784POPE   C4B11698   4.309  14.421   7.818  0.1530  0.1257 -0.2837
  785POPE   NH311699  12.075   3.983   6.176  0.0592  0.2354 -0.0539
  785POPE   PO411700  12.292   3.775   6.540 -0.0919 -0.2983 -0.0047
  785POPE   GL111701  12.444   3.882   6.932  0.2163  0.1848 -0.2548
  785POPE   GL211702  12.570   4.271   6.853  0.2113 -0.2471  0.2459
  785POPE   C1A11703  12.270   3.871   7.366  0.1586 -0.1104  0.0337
  785POPE   D2A11704  12.465   3.722   7.728  0.0007 -0.0344 -0.0157
  785POPE   C3A11705  12.258   3.805   8.120  0.0360  0.1292  0.1964
  785POPE   C4A11706  12.248   3.832   8.506  0.1779 -0.1281  0.2262
  785POPE   C1B11707  12.833   4.182   7.125  0.0612  0.3347  0.0654
  785POPE   C2B11708  12.806   4.074   7.598 -0.0073  0.0293 -0.0466
  785POPE   C3B11709  12.830   3.862   8.086  0.0631  0.3363 -0.0578
  785POPE   C4B11710  12.771   3.625   8.348  0.0336  0.3412 -0.1003
  786POPE   NH311711  10.272  11.532   5.726  0.1228  0.1067  0.1689
  786POPE   PO411712  10.009  11.681   5.483 -0.2506 -0.0440  0.0584
  786POPE   GL111713   9.918  11.861   5.905 -0.1058  0.4446  0.1875
  786POPE   GL211714   9.639  12.158   5.887 -0.0153  0.3397 -0.1665
  786POPE   C1A11715   9.858  12.147   6.335  0.1863  0.0703 -0.0332
  786POPE   D2A11716  10.020  12.238   6.745  0.2727  0.0013 -0.2311
  786POPE   C3A11717   9.986  12.382   7.202 -0.1212 -0.0116  0.1791
  786POPE   C4A11718   9.701  12.561   7.621  0.2621  0.0829 -0.1013
  786POPE   C1B11719   9.388  12.027   6.180  0.0816  0.0752 -0.0574
  786POPE   C2B11720   9.170  12.014   6.582  0.2962  0.3591 -0.1027
  786POPE   C3B11721   8.862  11.854   6.848 -0.2558  0.1055  0.2059
  786POPE   C4B11722   8.813  11.507   7.009 -0.2186 -0.0800  0.1022
  787POPE   NH311723   6.113  15.479   6.375  0.2802  0.0054 -0.0001
  787POPE   PO411724   5.683  15.584   6.263  0.0403 -0.1126  0.0404
  787POPE   GL111725   5.698  15.661   6.651  0.1728  0.0598 -0.2706
  787POPE   GL211726   5.866  15.336   6.796  0.1811  0.0171 -0.0838
  787POPE   C1A11727   5.723  15.796   7.035  0.2176 -0.1340  0.0993
  787POPE   D2A11728   5.857  15.563   7.405 -0.1153  0.1233 -0.0852
  787POPE   C3A11729   5.951  15.295   7.707  0.1876 -0.0800 -0.1184
  787POPE   C4A11730   5.998  15.045   8.104 -0.0184 -0.2812  0.1707
  787POPE   C1B11731   5.991  14.880   7.005  0.1814 -0.0423 -0.2123
  787POPE   C2B11732   6.165  14.746   7.302 -0.3156  0.2694  0.0988
  787POPE   C3B11733   6.076  14.802   7.683 -0.1207  0.1890  0.1249
  787POPE   C4B11734   5.823  14.513   7.905  0.1115 -0.2211 -0.0956
  788POPE   NH311735   2.065   1.155   6.124 -0.4535  0.1852  0.0785
  788POPE   PO411736   2.088   0.742   5.955  0.0445  0.1017 -0.0884
  788POPE   GL111737   1.965   0.691   6.440 -0.2136 -0.1311  0.0746
  788POPE   GL211738   2.183   0.941   6.564  0.0349 -0.5365 -0.1949
  788POPE   C1A11739   1.841   0.616   6.851 -0.0008  0.1365 -0.2778
  788POPE   D2A11740   1.841   0.794   7.210 -0.0873 -0.0455 -0.2175
  788POPE   C3A11741   1.817   0.673   7.664 -0.1347  0.1521 -0.1448
  788POPE   C4A11742   1.856   0.860   8.093  0.0956  0.0622 -0.1375
  788POPE   C1B11743   2.329   0.650   6.926  0.2581 -0.0467 -0.5582
  788POPE   C2B11744   2.514   0.504   7.342  0.1793  0.5716 -0.0168
  788POPE   C3B11745   2.849   0.537   7.641  0.0320  0.1745 -0.0369
  788POPE   C4B11746   3.085   0.610   7.935 -0.2887  0.1293 -0.0295
  789POPE   NH311747   0.140  15.660   6.196  0.0771 -0.1262 -0.1701
  789POPE   PO411748  -0.238  15.492   6.492 -0.0340  0.1062 -0.1178
  789POPE   GL111749  -0.460  15.679   6.828  0.1298  0.1703  0.1527
  789POPE   GL211750  -0.718  15.889   6.796 -0.0038 -0.0410 -0.4057
  789POPE   C1A11751  -0.690  15.559   7.197 -0.1110  0.2745  0.0809
  789POPE   D2A11752  -0.992  15.381   7.362 -0.4637  0.1363  0.0984
  789POPE   C3A11753  -0.857  15.417   7.733  0.0382 -0.1419  0.0294
  789POPE   C4A11754  -0.798  15.160   8.167 -0.0858 -0.1504 -0.1505
  789POPE   C1B11755  -0.769  16.123   7.269  0.1274  0.1355  0.0586
  789POPE   C2B11756  -0.631  15.897   7.698  0.0333 -0.3119 -0.2733
  789POPE   C3B11757  -0.395  15.633   8.126  0.1292 -0.1373  0.4166
  789POPE   C4B11758  -0.474  15.752   8.508  0.1031 -0.1301  0.0062
  790POPE   NH311759  16.124   7.937   6.354 -0.0059  0.0737  0.0348
  790POPE   PO411760  16.148   8.301   6.226  0.1656  0.1644 -0.0365
  790POPE   GL111761  16.102   8.344   6.658 -0.0330  0.2811  0.0542
  790POPE   GL211762  16.296   8.076   6.812  0.0471 -0.1826  0.3415
  790POPE   C1A11763  15.966   8.673   6.944 -0.2637  0.4362  0.3737
  790POPE   D2A11764  15.612   8.883   7.100 -0.0286  0.2632  0.0577
  790POPE   C3A11765  15.571   9.328   7.071  0.2001 -0.0689 -0.0245
  790POPE   C4A11766  15.375   9.613   7.398 -0.2314 -0.0798  0.0360
  790POPE   C1B11767  16.055   7.675   7.111  0.1513  0.0716  0.1636
  790POPE   C2B11768  16.044   7.554   7.565 -0.3874  0.2824 -0.0109
  790POPE   C3B11769  15.990   7.607   7.947  0.1768 -0.0531 -0.0030
  790POPE   C4B11770  15.825   7.639   8.411 -0.1994 -0.1276  0.2038
  791POPE   NH311771  15.570  10.926   6.036 -0.0227  0.0784  0.0920
  791POPE   PO411772  15.977  11.226   6.045 -0.0227  0.1645  0.0682
  791POPE   GL111773  15.872  11.080   6.515 -0.3522  0.0161  0.1572
  791POPE   GL211774  15.872  11.275   6.817 -0.2656 -0.3834 -0.1453
  791POPE   C1A11775  16.111  10.818   6.861  0.1949  0.2376 -0.2074
  791POPE   D2A11776  16.097  10.813   7.277 -0.3139 -0.2203 -0.1690
  791POPE   C3A11777  16.297  11.130   7.542 -0.5401  0.0644  0.2792
  791POPE   C4A11778  16.687  11.031   7.718  0.1792  0.2299 -0.2269
  791POPE   C1B11779  15.769  11.199   7.246 -0.3296  0.0481  0.0680
  791POPE   C2B11780  15.808  10.985   7.646  0.0408  0.0246  0.2688
  791POPE   C3B11781  15.897  10.772   8.041 -0.1224  0.1286 -0.3117
  791POPE   C4B11782  15.886  10.677   8.455 -0.4120  0.2209  0.2336
  792POPE   NH311783   3.605  10.472   5.904  0.2756  0.0112 -0.0430
  792POPE   PO411784   3.423   9.973   5.862 -0.1284  0.1237 -0.1747
  792POPE   GL111785   3.553  10.107   6.303  0.0268  0.1687 -0.0669
  792POPE   GL211786   3.284  10.266   6.415  0.0051  0.0499  0.1525
  792POPE   C1A11787   3.861  10.180   6.634  0.2281  0.1812  0.1102
  792POPE   D2A11788   4.203  10.263   6.720  0.4797 -0.1966 -0.2698
  792POPE   C3A11789   4.087  10.228   7.186  0.1506 -0.0102  0.2511
  792POPE   C4A11790   4.046  10.167   7.570 -0.0184  0.2156  0.0471
  792POPE   C1B11791   3.195  10.327   6.828  0.0362  0.0324  0.0265
  792POPE   C2B11792   3.099  10.078   7.197  0.0387  0.0133 -0.0897
  792POPE   C3B11793   2.905  10.156   7.477 -0.2732 -0.2109 -0.1730
  792POPE   C4B11794   2.583  10.241   7.792 -0.3334 -0.2660  0.1796
  793POPE   NH311795  15.919   4.972   6.449 -0.0566  0.0944 -0.2106
  793POPE   PO411796  16.418   5.133   6.492  0.3268  0.2931  0.3019
  793POPE   GL111797  16.488   4.904   6.854 -0.0347  0.0726  0.1018
  793POPE   GL211798  16.786   5.034   6.938  0.0009 -0.0898 -0.0907
  793POPE   C1A11799  16.361   4.674   7.094 -0.3152 -0.2084 -0.4891
  793POPE   D2A11800  16.405   4.567   7.494 -0.1812  0.3141 -0.0231
  793POPE   C3A11801  16.690   4.203   7.572  0.0071 -0.0773 -0.5004
  793POPE   C4A11802  16.903   4.144   7.926  0.1210  0.1417  0.2328
  793POPE   C1B11803  16.740   4.899   7.294  0.2002 -0.2001  0.2590
  793POPE   C2B11804  16.741   4.893   7.664  0.0036  0.2499  0.0645
  793POPE   C3B11805  16.776   5.039   8.116 -0.0117  0.1370 -0.0820
  793POPE   C4B11806  16.579   5.136   8.499  0.2214 -0.1612  0.1237
  794POPE   NH311807  10.643  16.371   6.207  0.1868  0.1429  0.1493
  794POPE   PO411808  10.223  16.582   6.077 -0.0840  0.3291  0.0335
  794POPE   GL111809  10.035  16.863   6.351 -0.0739 -0.2423  0.2968
  794POPE   GL211810   9.766  16.652   6.456 -0.1231 -0.5514  0.3002
  794POPE   C1A11811  10.094  16.882   6.829 -0.3716 -0.3935 -0.0637
  794POPE   D2A11812  10.181  17.078   7.269 -0.2515 -0.2020  0.0779
  794POPE   C3A11813   9.935  16.852   7.481  0.3897 -0.0019 -0.1139
  794POPE   C4A11814   9.996  16.593   7.802 -0.2281 -0.2230 -0.3001
  794POPE   C1B11815   9.553  16.562   6.847 -0.0085 -0.0949  0.2308
  794POPE   C2B11816   9.512  16.584   7.322 -0.0485  0.1852  0.4326
  794POPE   C3B11817   9.475  16.637   7.717 -0.0510  0.0418  0.0604
  794POPE   C4B11818   9.658  16.812   8.085 -0.1524 -0.2072 -0.0330
  795POPE   NH311819  15.211   2.297   6.360 -0.1336  0.2022  0.1060
  795POPE   PO411820  15.608   2.337   6.137  0.1908  0.0503 -0.5352
  795POPE   GL111821  15.625   2.438   6.626 -0.0319 -0.1694  0.0724
  795POPE   GL211822  15.987   2.389   6.754 -0.2909 -0.0823  0.0585
  795POPE   C1A11823  15.456   2.394   7.092  0.1926 -0.3569 -0.0308
  795POPE   D2A11824  15.491   2.114   7.513 -0.0200 -0.2128  0.2321
  795POPE   C3A11825  15.292   2.257   7.931 -0.0711 -0.0868 -0.0811
  795POPE   C4A11826  15.192   2.386   8.349  0.1106  0.1799  0.1197
  795POPE   C1B11827  15.905   2.548   7.129  0.2863  0.1450 -0.0402
  795POPE   C2B11828  15.842   2.484   7.579  0.0938 -0.1218  0.1729
  795POPE   C3B11829  15.882   2.203   7.930  0.3599  0.1101 -0.3947
  795POPE   C4B11830  15.654   2.186   8.273  0.0628  0.3262  0.3578
  796POPE   NH311831   9.133   2.323   6.193 -0.0443  0.2266  0.0150
  796POPE   PO411832   8.815   2.103   6.356 -0.0576 -0.1709 -0.1981
  796POPE   GL111833   8.701   1.857   6.696 -0.1103  0.0693  0.2251
  796POPE   GL211834   9.001   1.812   6.926 -0.0519 -0.0907 -0.3614
  796POPE   C1A11835   8.454   1.909   7.085 -0.0516 -0.0150  0.0263
  796POPE   D2A11836   8.319   1.727   7.514 -0.1007  0.2351  0.1202
  796POPE   C3A11837   8.601   1.440   7.772 -0.0316  0.1916 -0.2393
  796POPE   C4A11838   8.743   1.167   8.173  0.1639  0.1016  0.0026
  796POPE   C1B11839   8.886   2.233   6.989  0.2797  0.0618  0.1755
  796POPE   C2B11840   8.868   2.563   7.261  0.2682 -0.4376 -0.0458
  796POPE   C3B11841   8.522   2.613   7.233  0.1779  0.0470 -0.0049
  796POPE   C4B11842   8.211   2.411   6.988 -0.3445  0.1140  0.2195
  797POPE   NH311843   4.345  15.577   5.493  0.1834  0.1617 -0.1799
  797POPE   PO411844   4.560  15.459   5.837 -0.3036  0.3107 -0.0085
  797POPE   GL111845   4.285  15.301   6.215  0.1606  0.0609 -0.1282
  797POPE   GL211846   4.135  15.602   6.532  0.2888  0.4242  0.0529
  797POPE   C1A11847   3.930  14.999   6.278 -0.3418  0.1098 -0.3844
  797POPE   D2A11848   3.828  14.799   6.668  0.0996 -0.1065  0.1453
  797POPE   C3A11849   3.409  14.859   6.900  0.0924  0.1568 -0.2207
  797POPE   C4A11850   3.157  14.834   7.168  0.0202  0.2100  0.3867
  797POPE   C1B11851   4.138  15.568   6.999 -0.2910  0.3287 -0.0130
  797POPE   C2B11852   3.841  15.604   7.330 -0.0675 -0.1231 -0.1677
  797POPE   C3B11853   4.027  15.830   7.787 -0.1330  0.0073 -0.0861
  797POPE   C4B11854   4.218  15.918   8.096  0.1419 -0.0857  0.1752
  798POPE   NH311855   1.041   0.321   6.169  0.0289  0.4367 -0.3129
  798POPE   PO411856   1.270  -0.061   6.295  0.0360  0.2021  0.2528
  798POPE   GL111857   1.399  -0.048   6.689 -0.0849  0.0557 -0.1291
  798POPE   GL211858   1.599   0.123   6.731 -0.2830  0.0537  0.4099
  798POPE   C1A11859   1.537  -0.143   7.128 -0.2767  0.0275  0.3022
  798POPE   D2A11860   1.617  -0.154   7.545  0.0916  0.1107 -0.5896
  798POPE   C3A11861   1.620  -0.485   7.864  0.2953  0.2489  0.1272
  798POPE   C4A11862   1.409  -0.523   8.222 -0.1505  0.0188 -0.1923
  798POPE   C1B11863   1.466   0.396   7.092 -0.2388 -0.1812  0.1448
  798POPE   C2B11864   1.477   0.338   7.545 -0.1476 -0.1333  0.2654
  798POPE   C3B11865   1.586   0.186   7.908 -0.0735 -0.1115  0.0032
  798POPE   C4B11866   1.882  -0.126   8.079 -0.2198  0.0881 -0.1557
  799POPE   NH311867   5.717   8.759   5.773 -0.2781 -0.0925  0.0044
  799POPE   PO411868   5.728   9.281   5.785  0.0090 -0.2388 -0.3456
  799POPE   GL111869   5.692   9.389   6.233  0.0446 -0.1102 -0.0903
  799POPE   GL211870   6.032   9.174   6.242 -0.2719 -0.0636  0.2835
  799POPE   C1A11871   5.710   9.700   6.566  0.2624  0.1536  0.0945
  799POPE   D2A11872   5.837   9.587   6.938 -0.0124 -0.1814  0.1333
  799POPE   C3A11873   5.915   9.916   7.241  0.2749  0.3376  0.0617
  799POPE   C4A11874   6.155  10.165   7.570  0.0559 -0.3126  0.0513
  799POPE   C1B11875   6.082   9.292   6.645  0.0661 -0.0047  0.0398
  799POPE   C2B11876   6.122   9.133   6.958  0.3572  0.5420  0.0240
  799POPE   C3B11877   6.235   8.793   7.164  0.0155  0.0165  0.1060
  799POPE   C4B11878   6.338   8.899   7.527  0.2428 -0.0629 -0.0250
  800POPE   NH311879   6.549   1.039   5.923 -0.2074 -0.2273  0.0276
  800POPE   PO411880   7.051   0.946   5.810 -0.2441  0.1499 -0.3241
  800POPE   GL111881   7.045   1.055   6.261 -0.0049 -0.2852  0.1362
  800POPE   GL211882   6.841   1.256   6.313  0.2282  0.1368  0.0784
  800POPE   C1A11883   7.228   1.055   6.607 -0.1866 -0.3096 -0.0364
  800POPE   D2A11884   7.492   1.153   6.925  0.0369 -0.0191  0.2254
  800POPE   C3A11885   7.262   1.082   7.262 -0.1940  0.1503 -0.1124
  800POPE   C4A11886   7.067   1.003   7.659  0.1608  0.2179 -0.4753
  800POPE   C1B11887   6.709   1.167   6.686  0.2443  0.0694 -0.0292
  800POPE   C2B11888   6.511   1.121   7.056 -0.2010  0.2308 -0.2463
  800POPE   C3B11889   6.303   0.767   7.280 -0.2425 -0.5970  0.2013
  800POPE   C4B11890   5.863   0.746   7.492  0.0009  0.0207  0.1943
  801POPE   NH311891   0.801   2.789   6.567  0.0677 -0.1349 -0.0050
  801POPE   PO411892   0.476   2.701   6.717  0.3515  0.1015 -0.1051
  801POPE   GL111893   0.461   2.764   7.138  0.0953  0.3171 -0.0477
  801POPE   GL211894   0.409   2.425   7.122 -0.0110 -0.0583  0.0665
  801POPE   C1A11895   0.716   2.612   7.474  0.0184  0.0079  0.1381
  801POPE   D2A11896   0.865   2.778   7.878  0.0004  0.3373 -0.0301
  801POPE   C3A11897   0.713   3.127   8.034  0.4510 -0.0292 -0.1192
  801POPE   C4A11898   0.927   3.185   8.402  0.0354  0.1572  0.1229
  801POPE   C1B11899   0.763   2.133   7.364  0.3133  0.0874  0.0608
  801POPE   C2B11900   1.097   2.280   7.622  0.2008 -0.0256  0.2241
  801POPE   C3B11901   1.543   2.340   7.532 -0.1817  0.1392 -0.1897
  801POPE   C4B11902   1.815   2.629   7.600 -0.3902 -0.0614 -0.0488
  802POPE   NH311903   4.990   4.632   5.880 -0.0346  0.3779 -0.0476
  802POPE   PO411904   5.404   4.461   5.907  0.2301 -0.0135  0.1023
  802POPE   GL111905   5.305   4.637   6.279 -0.0448 -0.0001 -0.1604
  802POPE   GL211906   5.332   4.349   6.488  0.1100 -0.3871 -0.0468
  802POPE   C1A11907   5.309   4.855   6.658  0.2313 -0.0027  0.2513
  802POPE   D2A11908   5.301   5.280   6.746  0.0611  0.0329  0.1075
  802POPE   C3A11909   5.635   5.377   7.042 -0.1969 -0.1143 -0.2116
  802POPE   C4A11910   5.553   5.412   7.532 -0.1997  0.1078 -0.4397
  802POPE   C1B11911   5.066   4.122   6.782 -0.1497  0.2365 -0.1339
  802POPE   C2B11912   4.908   3.736   6.784  0.1355  0.1681  0.0490
  802POPE   C3B11913   4.907   3.303   6.900  0.2157 -0.1092 -0.1295
  802POPE   C4B11914   5.196   3.028   6.963  0.0517 -0.0330 -0.1586
  803POPE   NH311915   9.509   0.218   6.394 -0.2768 -0.1521  0.0787
  803POPE   PO411916   9.210  -0.060   6.249  0.1240 -0.1379  0.1965
  803POPE   GL111917   8.940   0.169   6.587 -0.4077 -0.3099  0.1122
  803POPE   GL211918   8.729   0.333   6.419  0.0811  0.0904  0.0499
  803POPE   C1A11919   9.041   0.402   6.984  0.2938  0.1047 -0.2298
  803POPE   D2A11920   8.977   0.459   7.435 -0.0938 -0.1768  0.0134
  803POPE   C3A11921   8.627   0.538   7.426 -0.2435 -0.1001  0.0582
  803POPE   C4A11922   8.293   0.353   7.283 -0.0193  0.3959 -0.2541
  803POPE   C1B11923   8.556   0.207   6.898  0.1750 -0.3159  0.0428
  803POPE   C2B11924   8.582  -0.120   7.214 -0.1102  0.3515 -0.1713
  803POPE   C3B11925   8.674  -0.349   7.617  0.0068  0.1443 -0.0903
  803POPE   C4B11926   9.127  -0.298   7.910 -0.0527 -0.0810  0.0103
  804POPE   NH311927   6.372   4.853   6.101 -0.1287  0.0967 -0.1412
  804POPE   PO411928   6.266   5.200   5.967  0.0600 -0.0333 -0.0168
  804POPE   GL111929   6.135   5.177   6.464 -0.1600  0.1773  0.0098
  804POPE   GL211930   5.778   5.096   6.661  0.2604 -0.1060 -0.0002
  804POPE   C1A11931   6.115   5.406   6.886 -0.3519  0.0406  0.3615
  804POPE   D2A11932   5.952   5.635   7.309 -0.1758 -0.1021  0.1444
  804POPE   C3A11933   6.154   5.481   7.721 -0.3095  0.0664  0.0152
  804POPE   C4A11934   6.425   5.385   7.964 -0.1070  0.0855  0.2627
  804POPE   C1B11935   5.955   4.860   6.966  0.0056 -0.1388  0.1495
  804POPE   C2B11936   5.701   4.617   7.373 -0.1322  0.0427  0.1271
  804POPE   C3B11937   5.518   4.794   7.682  0.0040 -0.3347 -0.0237
  804POPE   C4B11938   5.445   5.027   7.919  0.3217 -0.2996 -0.1187
  805POPE   NH311939  15.959   7.076   6.282 -0.0043  0.2047  0.2311
  805POPE   PO411940  15.870   7.521   6.285 -0.1447  0.1666  0.0404
  805POPE   GL111941  15.818   7.757   6.708  0.1143  0.0235  0.2036
  805POPE   GL211942  15.689   8.165   6.512  0.1162 -0.0499  0.4159
  805POPE   C1A11943  15.569   7.684   7.113 -0.1965 -0.0354  0.0138
  805POPE   D2A11944  15.516   7.466   7.506  0.0176  0.2797  0.1386
  805POPE   C3A11945  15.489   7.621   7.810  0.0261 -0.1846 -0.1428
  805POPE   C4A11946  15.412   7.790   8.212 -0.0662 -0.1877  0.0116
  805POPE   C1B11947  15.540   8.362   7.053 -0.3032 -0.3120 -0.2368
  805POPE   C2B11948  15.741   8.486   7.476  0.1382 -0.4137  0.1805
  805POPE   C3B11949  15.698   8.917   7.713  0.3471 -0.2049 -0.2377
  805POPE   C4B11950  15.628   9.365   7.805  0.0666  0.1773 -0.0223
  806POPE   NH311951   2.845   5.734   6.218 -0.0605  0.1523  0.0036
  806POPE   PO411952   2.360   5.761   6.153  0.2053 -0.0812  0.1600
  806POPE   GL111953   2.342   5.842   6.552  0.1427  0.1206 -0.0424
  806POPE   GL211954   2.640   5.908   6.647  0.0047  0.0814 -0.1882
  806POPE   C1A11955   2.070   5.925   6.936  0.0104 -0.1011 -0.2760
  806POPE   D2A11956   1.848   6.199   7.170 -0.2118 -0.1757 -0.0054
  806POPE   C3A11957   1.495   6.371   7.265  0.3041 -0.1599 -0.3717
  806POPE   C4A11958   1.159   6.230   6.956  0.1045  0.2435  0.0353
  806POPE   C1B11959   2.767   5.778   7.170 -0.4033  0.1090 -0.2204
  806POPE   C2B11960   2.654   5.740   7.537  0.0603 -0.1033  0.4502
  806POPE   C3B11961   2.536   5.772   7.882  0.0069  0.1216 -0.0060
  806POPE   C4B11962   2.400   5.978   8.275 -0.0822  0.1117 -0.1153
  807POPE   NH311963  11.670  18.032   6.026  0.0087  0.0059 -0.0788
  807POPE   PO411964  11.512  18.446   6.155 -0.1265  0.0759  0.1510
  807POPE   GL111965  11.631  18.271   6.471 -0.2351 -0.2063  0.3267
  807POPE   GL211966  11.461  18.410   6.703 -0.1054 -0.0198 -0.2177
  807POPE   C1A11967  11.763  18.073   6.889  0.0114 -0.3589  0.3210
  807POPE   D2A11968  11.680  17.871   7.317  0.3023  0.1675  0.1793
  807POPE   C3A11969  11.850  17.739   7.656 -0.2365  0.0634 -0.1620
  807POPE   C4A11970  12.174  17.593   7.929  0.4622 -0.3027  0.0847
  807POPE   C1B11971  11.340  18.162   7.087  0.2319  0.0165 -0.1138
  807POPE   C2B11972  11.157  17.994   7.436  0.1077 -0.0131 -0.0311
  807POPE   C3B11973  10.988  18.076   7.856 -0.1538 -0.0012  0.0935
  807POPE   C4B11974  11.151  17.804   8.241 -0.0397 -0.0120 -0.2268
  808POPE   NH311975   3.554   9.616   6.233 -0.2188 -0.1384 -0.0747
  808POPE   PO411976   3.917   9.397   6.119  0.0492 -0.1121  0.0109
  808POPE   GL111977   4.173   9.458   6.377  0.3669  0.1316 -0.0112
  808POPE   GL211978   4.140   9.760   6.468 -0.0499  0.0918  0.2861
  808POPE   C1A11979   4.477   9.546   6.758 -0.0147 -0.3024 -0.0611
  808POPE   D2A11980   4.929   9.647   7.028  0.0648 -0.2667 -0.0209
  808POPE   C3A11981   4.855   9.695   7.497 -0.3310  0.2378 -0.2731
  808POPE   C4A11982   4.574   9.418   7.772  0.2239 -0.3799  0.2583
  808POPE   C1B11983   3.866   9.658   6.874  0.0079  0.0320 -0.1803
  808POPE   C2B11984   3.779   9.718   7.341  0.1997 -0.1543  0.0773
  808POPE   C3B11985   3.764   9.376   7.581  0.2855 -0.4686 -0.1693
  808POPE   C4B11986   3.529   9.047   7.451  0.2753 -0.0033 -0.1215
  809POPE   NH311987  12.385   3.224   6.413  0.0217 -0.0105  0.0673
  809POPE   PO411988  12.873   3.183   6.424  0.1047  0.1726 -0.1408
  809POPE   GL111989  12.701   3.451   6.715  0.2527 -0.0886  0.2270
  809POPE   GL211990  12.890   3.677   6.845 -0.4108  0.3869  0.0971
  809POPE   C1A11991  12.630   3.522   7.208 -0.2095 -0.2731 -0.2832
  809POPE   D2A11992  12.939   3.616   7.617  0.1829  0.2408  0.0488
  809POPE   C3A11993  13.227   3.516   7.913 -0.1309 -0.0038 -0.2483
  809POPE   C4A11994  13.342   3.602   8.369  0.1136  0.1671  0.0952
  809POPE   C1B11995  13.204   3.589   7.180 -0.3185 -0.0508 -0.0954
  809POPE   C2B11996  13.507   3.575   7.480 -0.1937 -0.0878  0.0266
  809POPE   C3B11997  13.776   3.517   7.886  0.0775  0.3773  0.0419
  809POPE   C4B11998  13.942   3.501   8.316  0.0344  0.0417  0.1822
  810POPE   NH311999  16.048   2.168   6.273 -0.0120  0.0885 -0.0927
  810POPE   PO412000  16.197   2.632   6.229 -0.0674 -0.2273 -0.0511
  810POPE   GL112001  16.416   2.620   6.590  0.0905 -0.1900 -0.2139
  810POPE   GL212002  16.146   2.842   6.739 -0.2105  0.2170 -0.5285
  810POPE   C1A12003  16.657   2.735   7.042 -0.3768 -0.4023 -0.0233
  810POPE   D2A12004  16.851   2.549   7.403  0.0512  0.4214 -0.0717
  810POPE   C3A12005  16.829   2.327   7.747  0.0223  0.0457 -0.3111
  810POPE   C4A12006  16.764   1.889   7.974  0.1925  0.1666  0.2625
  810POPE   C1B12007  16.175   2.956   7.208 -0.2076 -0.0107  0.1239
  810POPE   C2B12008  16.151   2.901   7.594  0.0325  0.0494  0.1419
  810POPE   C3B12009  15.993   2.832   7.956  0.0983 -0.1778  0.2530
  810POPE   C4B12010  15.563   2.662   8.023  0.2522  0.2720  0.0534
  811POPE   NH312011   0.102   2.424   6.627 -0.1540 -0.1976  0.0041
  811POPE   PO412012   0.076   2.916   6.517 -0.0036 -0.0685  0.1089
  811POPE   GL112013  -0.005   2.874   6.891  0.0131 -0.0719 -0.0177
  811POPE   GL212014  -0.009   3.127   7.099  0.3451 -0.3872  0.0302
  811POPE   C1A12015   0.001   2.670   7.268 -0.2513 -0.0622 -0.0357
  811POPE   D2A12016   0.160   2.624   7.648 -0.1105  0.0867  0.3170
  811POPE   C3A12017   0.585   2.345   7.846  0.1030 -0.1610  0.2978
  811POPE   C4A12018   0.973   2.368   8.143 -0.2712  0.0086  0.0435
  811POPE   C1B12019   0.018   3.175   7.583  0.0256 -0.0599 -0.0851
  811POPE   C2B12020   0.166   3.004   8.002 -0.2926  0.0592  0.2505
  811POPE   C3B12021   0.442   2.707   8.189 -0.3155 -0.0258 -0.0623
  811POPE   C4B12022   0.774   2.675   8.490 -0.1291 -0.0029  0.1690
  812YOPE   NH312023   3.113   4.657   6.262 -0.4378  0.0860  0.2461
  812YOPE   PO412024   2.790   4.697   5.889  0.0911  0.0800 -0.0382
  812YOPE   GL112025   2.603   4.814   6.350  0.2951  0.4589 -0.1992
  812YOPE   GL212026   2.840   4.927   6.606  0.1348  0.3531 -0.0486
  812YOPE   C1A12027   2.310   4.660   6.603  0.0163  0.0727 -0.2062
  812YOPE   D2A12028   2.442   4.490   7.067  0.0339  0.0942 -0.0118
  812YOPE   C3A12029   2.335   4.285   7.501  0.0980  0.1177 -0.4890
  812YOPE   C4A12030   2.311   3.889   7.785  0.2572 -0.0260  0.0578
  812YOPE   C1B12031   2.619   4.946   7.017  0.0771 -0.0886 -0.1488
  812YOPE   C2B12032   2.388   4.988   7.418 -0.1713 -0.1504  0.0301
  812YOPE   D3B12033   2.277   4.980   7.874  0.1376  0.1588 -0.2253
  812YOPE   C4B12034   2.152   4.774   8.216 -0.2911 -0.1232  0.0502
  813YOPE   NH312035  16.318  15.395   6.657 -0.0785 -0.0042  0.0126
  813YOPE   PO412036  16.629  15.066   6.737 -0.0049  0.1088  0.3145
  813YOPE   GL112037  16.843  14.664   6.943  0.5271 -0.3592 -0.3402
  813YOPE   GL212038  16.657  14.513   6.961  0.0841  0.0845 -0.1241
  813YOPE   C1A12039  17.019  14.355   7.222 -0.0105 -0.0269 -0.0737
  813YOPE   D2A12040  16.939  14.436   7.708  0.1535  0.1560 -0.0744
  813YOPE   C3A12041  16.842  14.221   8.076  0.0434  0.0609  0.0505
  813YOPE   C4A12042  16.890  13.982   8.272 -0.0916  0.4665 -0.1124
  813YOPE   C1B12043  16.507  14.587   7.385  0.0400  0.2052 -0.2296
  813YOPE   C2B12044  16.611  14.814   7.766 -0.0245 -0.2813  0.1800
  813YOPE   D3B12045  17.000  14.739   8.067  0.0057 -0.1326 -0.3213
  813YOPE   C4B12046  17.098  14.634   8.496  0.2190 -0.0068 -0.3369
  814YOPE   NH312047   0.109   6.762   6.441 -0.1281 -0.1098  0.1907
  814YOPE   PO412048  -0.137   7.102   6.442 -0.1988  0.3102 -0.0343
  814YOPE   GL112049   0.035   7.117   6.839 -0.0707  0.1133  0.2699
  814YOPE   GL212050  -0.128   6.740   6.868 -0.1781 -0.3734  0.2881
  814YOPE   C1A12051  -0.108   7.028   7.248  0.2458  0.0674  0.1079
  814YOPE   D2A12052  -0.239   6.965   7.683  0.3107  0.1809  0.2999
  814YOPE   C3A12053  -0.048   6.584   7.945  0.0503  0.1441  0.2446
  814YOPE   C4A12054  -0.039   6.163   7.866  0.0364 -0.0032  0.0685
  814YOPE   C1B12055   0.054   6.398   7.186  0.0273  0.3906 -0.0678
  814YOPE   C2B12056   0.334   6.160   7.447 -0.1390  0.1305 -0.3109
  814YOPE   D3B12057   0.712   6.041   7.770 -0.0339 -0.0226  0.1609
  814YOPE   C4B12058   1.068   5.956   8.067 -0.1058  0.1569 -0.0982
  815YOPE   NH312059  11.156   3.290   6.228 -0.1137  0.1364  0.2390
  815YOPE   PO412060  11.609   3.176   6.309 -0.1103 -0.2556 -0.3682
  815YOPE   GL112061  11.464   3.123   6.724  0.2804 -0.0977 -0.2162
  815YOPE   GL212062  11.229   3.441   6.705 -0.1115  0.1214  0.2754
  815YOPE   C1A12063  11.568   3.245   7.210  0.2026 -0.1731  0.1324
  815YOPE   D2A12064  11.751   3.470   7.543  0.2979  0.1630  0.0635
  815YOPE   C3A12065  11.548   3.304   7.959  0.1441 -0.0020 -0.2343
  815YOPE   C4A12066  11.155   3.234   8.187  0.0659  0.2186  0.0208
  815YOPE   C1B12067  11.363   3.663   7.100  0.2059 -0.1052 -0.0240
  815YOPE   C2B12068  11.298   3.608   7.565  0.0464  0.0762 -0.3539
  815YOPE   D3B12069  11.303   3.686   8.060 -0.1415 -0.3846 -0.2766
  815YOPE   C4B12070  11.387   4.022   8.394  0.0984 -0.2440 -0.1743
  816YOPE   NH312071   3.863  11.112   5.930 -0.1221 -0.1062  0.1008
  816YOPE   PO412072   4.233  11.451   6.020  0.0867  0.1445  0.1144
  816YOPE   GL112073   4.306  11.642   6.441 -0.0953  0.0027  0.4157
  816YOPE   GL212074   4.420  11.979   6.579  0.0160 -0.4412 -0.0679
  816YOPE   C1A12075   4.120  11.537   6.774 -0.1215  0.3009 -0.0261
  816YOPE   D2A12076   3.502  11.684   6.913  0.3449 -0.1497 -0.0935
  816YOPE   C3A12077   3.217  11.799   7.288  0.1433 -0.1275  0.2050
  816YOPE   C4A12078   3.067  11.650   7.628 -0.2818  0.2009 -0.1114
  816YOPE   C1B12079   4.394  12.150   6.908  0.0038 -0.1025  0.3248
  816YOPE   C2B12080   4.169  12.282   7.154 -0.1543 -0.3919  0.1638
  816YOPE   D3B12081   3.810  12.081   7.445  0.1547  0.3867  0.1284
  816YOPE   C4B12082   3.530  11.638   7.646  0.1664 -0.0378  0.2574
  817YOPE   NH312083  13.414  13.934   6.126 -0.3428  0.2131 -0.0157
  817YOPE   PO412084  13.320  13.617   6.339 -0.2939  0.0490 -0.0404
  817YOPE   GL112085  13.223  13.713   6.773 -0.0899 -0.0887 -0.1013
  817YOPE   GL212086  13.347  13.407   6.844 -0.1050  0.1968  0.1832
  817YOPE   C1A12087  13.224  13.729   7.173 -0.0956  0.2082  0.2078
  817YOPE   D2A12088  13.145  13.635   7.643  0.1358  0.2687  0.2901
  817YOPE   C3A12089  13.445  13.725   7.917 -0.1314 -0.3392 -0.1629
  817YOPE   C4A12090  13.777  13.960   8.089 -0.0609 -0.3062  0.0035
  817YOPE   C1B12091  13.695  13.550   6.991  0.0958  0.1460  0.1191
  817YOPE   C2B12092  13.622  13.520   7.388 -0.5208  0.1512  0.1059
  817YOPE   D3B12093  13.493  13.265   7.721  0.1966  0.1131  0.0651
  817YOPE   C4B12094  13.184  13.370   8.079  0.2452 -0.0208 -0.0985
  818YOPE   NH312095  15.443   1.756   6.067  0.1810 -0.1982  0.3259
  818YOPE   PO412096  15.905   1.653   6.272  0.2727  0.1912 -0.1343
  818YOPE   GL112097  16.282   1.650   6.577  0.0579  0.0020 -0.0856
  818YOPE   GL212098  16.365   1.959   6.662  0.4337  0.0408  0.1164
  818YOPE   C1A12099  16.171   1.403   6.854 -0.0638 -0.3304  0.1596
  818YOPE   D2A12100  16.131   1.198   7.175  0.1506  0.2977 -0.0510
  818YOPE   C3A12101  15.910   1.270   7.576 -0.1900  0.2085 -0.4105
  818YOPE   C4A12102  16.021   1.160   7.957  0.1475 -0.0885 -0.0403
  818YOPE   C1B12103  16.471   2.222   7.040 -0.2332  0.0172 -0.1794
  818YOPE   C2B12104  16.370   2.480   7.417  0.0196 -0.0023 -0.2120
  818YOPE   D3B12105  16.338   2.470   7.811 -0.1986 -0.1621 -0.0908
  818YOPE   C4B12106  16.308   2.043   8.037 -0.0555 -0.2430  0.3020
  819YOPE   NH312107   9.285  17.433   6.322  0.0197 -0.1427  0.0080
  819YOPE   PO412108   9.438  16.992   6.224  0.0274  0.1305  0.2428
  819YOPE   GL112109   9.675  17.143   6.631  0.0066 -0.1722  0.1776
  819YOPE   GL212110   9.445  17.338   6.788 -0.1970  0.1442 -0.2743
  819YOPE   C1A12111   9.678  17.000   7.062  0.3754  0.1924 -0.0600
  819YOPE   D2A12112   9.460  17.100   7.473 -0.1836  0.0556 -0.0699
  819YOPE   C3A12113   9.210  16.967   7.921 -0.0509 -0.3470  0.4625
  819YOPE   C4A12114   9.047  16.733   8.238 -0.3621 -0.2098  0.2377
  819YOPE   C1B12115   9.398  17.522   7.172  0.0216 -0.1153  0.0006
  819YOPE   C2B12116   9.575  17.879   7.447 -0.1120  0.0615  0.1814
  819YOPE   D3B12117   9.961  17.890   7.676 -0.1713  0.3882  0.1162
  819YOPE   C4B12118  10.312  18.197   7.671  0.1189  0.3023  0.0053
  820YOPE   NH312119  10.737  15.830   6.019 -0.0666  0.0012  0.2451
  820YOPE   PO412120  11.101  15.749   6.001 -0.2567 -0.1799  0.1571
  820YOPE   GL112121  10.933  15.854   6.428  0.2177 -0.1168  0.0663
  820YOPE   GL212122  10.889  15.608   6.504 -0.2774  0.1441 -0.0534
  820YOPE   C1A12123  11.127  16.013   6.675 -0.0380  0.0038  0.1996
  820YOPE   D2A12124  11.487  15.992   6.732  0.1684  0.0923 -0.0056
  820YOPE   C3A12125  11.657  15.794   7.061  0.2370 -0.0539  0.1566
  820YOPE   C4A12126  11.775  15.644   7.362 -0.2564  0.4610 -0.0313
  820YOPE   C1B12127  10.787  15.753   6.986 -0.5041 -0.0455  0.2699
  820YOPE   C2B12128  10.936  15.560   7.435 -0.0216  0.1858  0.0018
  820YOPE   D3B12129  10.991  15.503   7.961 -0.3138  0.1087 -0.1231
  820YOPE   C4B12130  11.156  15.703   8.296  0.0711 -0.1290 -0.0831
  821YOPE   NH312131   3.402   4.204   6.317  0.2378 -0.0020 -0.1215
  821YOPE   PO412132   3.564   4.517   6.070  0.0321  0.0309 -0.0856
  821YOPE   GL112133   3.826   4.549   6.441  0.2097  0.0719  0.0391
  821YOPE   GL212134   3.786   4.267   6.573 -0.2818 -0.0647 -0.0262
  821YOPE   C1A12135   3.896   4.780   6.745 -0.0741  0.2187  0.2249
  821YOPE   D2A12136   3.917   4.719   7.249  0.0225 -0.1993  0.3404
  821YOPE   C3A12137   3.577   4.784   7.587 -0.0497 -0.0546  0.3215
  821YOPE   C4A12138   3.394   4.558   7.884 -0.0332 -0.1091 -0.1176
  821YOPE   C1B12139   3.963   4.333   6.941 -0.1269  0.0041  0.0253
  821YOPE   C2B12140   4.128   4.152   7.332 -0.2421 -0.0029  0.0702
  821YOPE   D3B12141   4.400   4.216   7.736  0.2000 -0.0095 -0.0311
  821YOPE   C4B12142   4.732   4.334   8.050  0.1663  0.0421 -0.1097
  822YOPE   NH312143   4.317  15.873   6.139  0.2022  0.3032 -0.2559
  822YOPE   PO412144   4.412  16.327   6.004 -0.3173  0.0807 -0.2937
  822YOPE   GL112145   4.540  16.287   6.521  0.0268  0.2456  0.0205
  822YOPE   GL212146   4.247  16.078   6.616  0.2008  0.1876 -0.1270
  822YOPE   C1A12147   4.789  16.169   6.817 -0.0153 -0.0050  0.2424
  822YOPE   D2A12148   4.876  16.009   7.192  0.0764  0.0327 -0.0551
  822YOPE   C3A12149   5.125  15.995   7.732  0.2775 -0.0092 -0.1403
  822YOPE   C4A12150   5.270  15.882   8.163  0.1422  0.3462  0.0431
  822YOPE   C1B12151   4.490  15.829   6.852  0.2852  0.0777  0.2312
  822YOPE   C2B12152   4.634  15.513   6.910  0.0601  0.2579  0.0128
  822YOPE   D3B12153   4.530  15.239   7.236 -0.3923 -0.1877  0.0776
  822YOPE   C4B12154   4.247  15.284   7.507  0.2297 -0.1479  0.0159
  823YOPE   NH312155   9.780   1.065   5.995 -0.0667  0.2113  0.1833
  823YOPE   PO412156  10.228   0.937   5.983  0.1529 -0.2640  0.1754
  823YOPE   GL112157  10.241   0.866   6.465 -0.2275  0.0366 -0.2137
  823YOPE   GL212158  10.013   1.125   6.462  0.0880  0.4581 -0.0104
  823YOPE   C1A12159  10.121   0.787   6.884 -0.0597  0.1642 -0.2929
  823YOPE   D2A12160  10.008   0.886   7.319  0.1166  0.0097 -0.0093
  823YOPE   C3A12161  10.266   1.140   7.604 -0.0889 -0.2112 -0.1846
  823YOPE   C4A12162  10.086   1.399   7.935 -0.0167  0.0124 -0.0438
  823YOPE   C1B12163   9.759   1.123   6.808  0.0728  0.1254 -0.0130
  823YOPE   C2B12164   9.697   1.281   7.247  0.3163  0.1063 -0.1499
  823YOPE   D3B12165   9.694   1.307   7.604  0.0379  0.3270 -0.4461
  823YOPE   C4B12166   9.701   1.684   7.918 -0.0152 -0.0165  0.0529
  824YOPE   NH312167  10.803  17.990   5.997 -0.0318  0.0019 -0.0341
  824YOPE   PO412168  10.471  18.140   6.050  0.3368  0.0064 -0.3194
  824YOPE   GL112169  10.550  18.133   6.482 -0.0529 -0.0225  0.1533
  824YOPE   GL212170  10.555  17.796   6.500 -0.0491  0.2988 -0.0476
  824YOPE   C1A12171  10.447  18.471   6.796 -0.0678  0.1450 -0.0254
  824YOPE   D2A12172  10.342  18.417   7.203 -0.1742  0.0223  0.1266
  824YOPE   C3A12173  10.297  18.708   7.585 -0.1331 -0.3026 -0.0286
  824YOPE   C4A12174  10.376  18.905   7.976  0.1208  0.1640  0.1686
  824YOPE   C1B12175  10.537  17.619   6.981 -0.0705  0.0510  0.1502
  824YOPE   C2B12176  10.945  17.584   7.262 -0.0268 -0.1754  0.0320
  824YOPE   D3B12177  11.342  17.581   7.577  0.0523 -0.1355  0.1333
  824YOPE   C4B12178  11.486  18.010   7.834 -0.2687 -0.3116  0.4410
  825YOPE   NH312179   1.452   7.537   6.087 -0.1328  0.1538  0.1677
  825YOPE   PO412180   1.277   7.172   6.075  0.0128 -0.0165  0.0411
  825YOPE   GL112181   1.569   7.178   6.460 -0.4099  0.0534 -0.1829
  825YOPE   GL212182   1.421   6.882   6.733  0.0640 -0.0210 -0.2360
  825YOPE   C1A12183   1.843   7.137   6.756 -0.0640 -0.1863 -0.2939
  825YOPE   D2A12184   2.141   7.061   6.990 -0.2848 -0.0094  0.1992
  825YOPE   C3A12185   2.057   6.864   7.385  0.3653 -0.5877 -0.1674
  825YOPE   C4A12186   1.929   6.548   7.682  0.2047  0.0586  0.0760
  825YOPE   C1B12187   1.506   6.819   7.178  0.0492  0.1402 -0.0404
  825YOPE   C2B12188   1.418   6.748   7.686 -0.0643  0.3645  0.2870
  825YOPE   D3B12189   1.339   6.806   8.130 -0.0552  0.1598 -0.2088
  825YOPE   C4B12190   0.897   6.815   8.288  0.1393  0.1735 -0.0624
  826YOPE   NH312191  16.818  14.018   6.352  0.0410  0.3002 -0.2574
  826YOPE   PO412192  17.212  14.023   6.327  0.1123 -0.0400  0.0038
  826YOPE   GL112193  17.646  14.367   6.395 -0.0568 -0.0495  0.0360
  826YOPE   GL212194  17.903  14.328   6.382  0.1842 -0.0069  0.0422
  826YOPE   C1A12195  17.665  14.706   6.463  0.1892  0.0489 -0.1344
  826YOPE   D2A12196  17.604  15.132   6.716  0.0195 -0.1550  0.0054
  826YOPE   C3A12197  17.642  15.220   7.095 -0.2227  0.2206  0.1966
  826YOPE   C4A12198  17.440  15.029   7.419  0.0774  0.2189 -0.1132
  826YOPE   C1B12199  18.046  14.581   6.719  0.1651  0.0204 -0.0802
  826YOPE   C2B12200  18.115  15.014   6.846  0.0901 -0.2804  0.1650
  826YOPE   D3B12201  18.148  15.125   7.232 -0.3454  0.2219  0.0627
  826YOPE   C4B12202  18.225  15.228   7.614  0.1019 -0.0427 -0.1431
  827YOPE   NH312203  12.348  15.590   5.839 -0.2342 -0.1894 -0.1378
  827YOPE   PO412204  12.644  15.158   5.920  0.1514  0.1192  0.2125
  827YOPE   GL112205  12.405  15.161   6.253  0.2747 -0.1691  0.0695
  827YOPE   GL212206  12.190  14.953   6.268  0.1473 -0.1909 -0.0262
  827YOPE   C1A12207  12.259  15.190   6.652 -0.0970 -0.0385  0.3148
  827YOPE   D2A12208  11.889  14.907   6.808  0.2539  0.3849 -0.2086
  827YOPE   C3A12209  11.418  15.081   6.688  0.1850  0.0252  0.1610
  827YOPE   C4A12210  10.941  15.217   6.888 -0.2340 -0.1982 -0.1037
  827YOPE   C1B12211  12.298  14.632   6.571  0.3304  0.1562 -0.0779
  827YOPE   C2B12212  12.257  14.535   7.031  0.0612 -0.1015  0.0983
  827YOPE   D3B12213  12.107  14.458   7.427  0.1186 -0.1349  0.1164
  827YOPE   C4B12214  12.252  14.278   7.667 -0.0435 -0.0613  0.1287
  828YOPE   NH312215  14.034   4.712   6.121 -0.0555 -0.1400  0.0076
  828YOPE   PO412216  13.991   4.250   6.079  0.2011  0.0236  0.1190
  828YOPE   GL112217  13.982   4.262   6.524  0.0792  0.1042  0.0083
  828YOPE   GL212218  14.197   4.425   6.692  0.0455 -0.0673 -0.1084
  828YOPE   C1A12219  13.879   4.344   7.043  0.0747  0.3613  0.0230
  828YOPE   D2A12220  13.773   4.582   7.265  0.2842 -0.1058  0.0819
  828YOPE   C3A12221  13.681   4.375   7.632 -0.1014 -0.1423 -0.0288
  828YOPE   C4A12222  13.647   4.574   8.123 -0.1782  0.0667  0.2148
  828YOPE   C1B12223  14.374   4.634   7.153 -0.0510  0.2258 -0.2341
  828YOPE   C2B12224  14.241   4.848   7.491  0.0783  0.2589  0.2103
  828YOPE   D3B12225  14.351   5.122   7.844 -0.0537 -0.0028 -0.0584
  828YOPE   C4B12226  14.512   5.227   8.212  0.0147  0.0494 -0.2139
  829YOPE   NH312227  17.259  11.597   6.245 -0.1759  0.1348 -0.1544
  829YOPE   PO412228  16.996  11.989   6.073  0.0709 -0.2044 -0.0226
  829YOPE   GL112229  16.974  12.044   6.458 -0.0160  0.4461 -0.0959
  829YOPE   GL212230  16.716  12.211   6.650 -0.2045  0.0221  0.1632
  829YOPE   C1A12231  17.195  11.957   6.792 -0.2901 -0.0927 -0.0517
  829YOPE   D2A12232  17.378  12.214   7.183 -0.0999 -0.1581 -0.4160
  829YOPE   C3A12233  17.159  12.153   7.480  0.0820 -0.0848 -0.2956
  829YOPE   C4A12234  17.103  11.973   7.913 -0.1148  0.0909 -0.2140
  829YOPE   C1B12235  16.808  12.111   7.156 -0.1984  0.3468  0.0104
  829YOPE   C2B12236  17.069  11.724   7.340 -0.0328 -0.2215 -0.1736
  829YOPE   D3B12237  17.133  11.237   7.313 -0.0896 -0.0643 -0.1997
  829YOPE   C4B12238  16.881  10.836   7.218  0.0610  0.0927  0.2339
  830YOPE   NH312239  16.852   4.718   6.542  0.2076 -0.3651  0.3128
  830YOPE   PO412240  16.708   4.242   6.509  0.1671  0.0293 -0.3432
  830YOPE   GL112241  16.650   4.292   6.824 -0.1679  0.0813 -0.1504
  830YOPE   GL212242  16.826   4.390   7.070  0.1284  0.0491  0.0770
  830YOPE   C1A12243  16.364   4.175   7.149  0.1751 -0.2064  0.1187
  830YOPE   D2A12244  16.175   4.100   7.485  0.0138  0.1838  0.1538
  830YOPE   C3A12245  16.089   3.804   7.904  0.4191  0.0861  0.0859
  830YOPE   C4A12246  16.040   3.310   8.026  0.1474 -0.0264 -0.0650
  830YOPE   C1B12247  17.090   4.446   7.409 -0.0311 -0.3335 -0.1157
  830YOPE   C2B12248  17.161   4.553   7.822  0.1846  0.1151 -0.2313
  830YOPE   D3B12249  17.223   4.885   8.129  0.1959  0.0914 -0.2640
  830YOPE   C4B12250  17.597   5.057   8.331 -0.2049 -0.0710 -0.0718
  831YOPE   NH312251   9.966  13.038   5.775  0.1439 -0.0764  0.2085
  831YOPE   PO412252   9.602  12.898   5.567 -0.0595  0.1946  0.2393
  831YOPE   GL112253   9.532  12.676   5.926  0.0710  0.4830  0.0026
  831YOPE   GL212254   9.256  12.529   5.919 -0.2715 -0.0113 -0.2136
  831YOPE   C1A12255   9.659  12.615   6.287  0.0135  0.0268  0.0196
  831YOPE   D2A12256   9.568  12.427   6.734  0.0982  0.1476  0.1235
  831YOPE   C3A12257   9.203  12.228   7.038  0.1138 -0.3023  0.0927
  831YOPE   C4A12258   8.806  12.221   7.187 -0.1456 -0.1126  0.2320
  831YOPE   C1B12259   9.105  12.441   6.314  0.0291 -0.1553  0.0235
  831YOPE   C2B12260   8.780  12.553   6.653  0.3961  0.2769  0.2878
  831YOPE   D3B12261   8.672  12.833   6.996  0.3064 -0.0624  0.0962
  831YOPE   C4B12262   8.399  12.923   7.275  0.2888  0.2944 -0.2766
  832YOPE   NH312263  14.739   2.914   6.102 -0.2076  0.2221 -0.1230
  832YOPE   PO412264  15.167   2.906   6.364 -0.0014  0.1468 -0.3982
  832YOPE   GL112265  15.234   2.994   6.817  0.3150 -0.0898  0.1846
  832YOPE   GL212266  15.494   2.920   6.976 -0.1582  0.2821 -0.2699
  832YOPE   C1A12267  15.011   2.993   7.202  0.1297 -0.1589 -0.2653
  832YOPE   D2A12268  15.091   3.104   7.648 -0.0448  0.4789 -0.1104
  832YOPE   C3A12269  15.070   2.889   8.046 -0.1808 -0.1773  0.2107
  832YOPE   C4A12270  14.813   2.612   8.109  0.0215  0.1746  0.2195
  832YOPE   C1B12271  15.687   2.995   7.411  0.2746  0.1076  0.1264
  832YOPE   C2B12272  15.496   3.179   7.847  0.3029  0.5052 -0.1457
  832YOPE   D3B12273  15.473   3.472   8.222  0.0127  0.0171 -0.1220
  832YOPE   C4B12274  15.667   3.756   8.545 -0.0615  0.3664 -0.0237
  833YOPE   NH312275  13.167   4.867   6.204  0.1254 -0.2813 -0.1375
  833YOPE   PO412276  12.773   5.009   6.134 -0.1860 -0.0045 -0.1879
  833YOPE   GL112277  12.963   5.156   6.531 -0.3021  0.0724 -0.1253
  833YOPE   GL212278  13.015   5.429   6.545 -0.1043  0.2639 -0.4206
  833YOPE   C1A12279  13.019   5.091   6.983  0.1492 -0.0171 -0.0619
  833YOPE   D2A12280  13.070   5.125   7.416  0.1627  0.1468  0.2279
  833YOPE   C3A12281  12.875   5.498   7.647  0.0610 -0.4267 -0.0929
  833YOPE   C4A12282  12.982   5.693   8.010  0.5125  0.0221 -0.1244
  833YOPE   C1B12283  12.660   5.544   6.850 -0.1529 -0.1354  0.2220
  833YOPE   C2B12284  12.581   5.822   7.154 -0.0122  0.1741  0.2135
  833YOPE   D3B12285  12.420   5.981   7.459  0.0709 -0.0778  0.0125
  833YOPE   C4B12286  12.158   6.083   7.766  0.1093 -0.1833  0.1586
  834YOPE   NH312287   2.886  11.571   5.621  0.0504  0.3388  0.0542
  834YOPE   PO412288   2.986  11.484   6.076  0.2528 -0.2336  0.0018
  834YOPE   GL112289   2.898  11.666   6.584  0.0955  0.2540 -0.0637
  834YOPE   GL212290   3.107  12.052   6.725  0.2860 -0.1134 -0.0248
  834YOPE   C1A12291   2.764  11.843   6.974 -0.0646  0.1910 -0.0205
  834YOPE   D2A12292   2.820  12.209   7.227 -0.0037 -0.2909  0.0574
  834YOPE   C3A12293   2.781  12.169   7.640 -0.0716 -0.1904 -0.2271
  834YOPE   C4A12294   2.732  12.415   8.112 -0.1356 -0.2223  0.2798
  834YOPE   C1B12295   3.308  12.224   7.063  0.1492  0.0629 -0.0770
  834YOPE   C2B12296   3.293  12.217   7.492 -0.3035  0.2904 -0.2892
  834YOPE   D3B12297   3.188  12.283   7.937 -0.3728  0.2266  0.0400
  834YOPE   C4B12298   3.170  12.545   8.349 -0.1731  0.2343  0.1942
  835YOPE   NH312299   3.204   3.401   6.267 -0.2230  0.2151  0.0259
  835YOPE   PO412300   3.071   3.789   6.092  0.2745  0.0278  0.0186
  835YOPE   GL112301   3.022   3.881   6.489 -0.0583 -0.0242 -0.1173
  835YOPE   GL212302   3.057   3.620   6.784  0.0832  0.0813 -0.1661
  835YOPE   C1A12303   3.141   4.135   6.906  0.0107  0.1500 -0.1548
  835YOPE   D2A12304   2.970   4.499   7.032  0.0408  0.0020 -0.3994
  835YOPE   C3A12305   3.115   4.868   7.261 -0.0252 -0.2921  0.1470
  835YOPE   C4A12306   3.053   4.940   7.758 -0.0584 -0.0206 -0.3887
  835YOPE   C1B12307   3.211   3.686   7.103  0.1507 -0.0642 -0.3356
  835YOPE   C2B12308   3.217   3.991   7.393 -0.0507  0.0668  0.2567
  835YOPE   D3B12309   3.168   4.341   7.517  0.0626 -0.4502 -0.2059
  835YOPE   C4B12310   2.753   4.557   7.597 -0.2115 -0.1652  0.0420
  836YOPE   NH312311  12.335   4.727   6.005  0.1635  0.2340  0.0786
  836YOPE   PO412312  12.373   4.289   5.868  0.3397 -0.3880 -0.0841
  836YOPE   GL112313  12.249   4.424   6.409  0.3252  0.0839  0.0121
  836YOPE   GL212314  12.032   4.181   6.668  0.0123  0.1293  0.1236
  836YOPE   C1A12315  12.162   4.588   6.870  0.1307  0.2474  0.0135
  836YOPE   D2A12316  12.234   4.657   7.252 -0.0410  0.1806 -0.0708
  836YOPE   C3A12317  12.373   4.350   7.443 -0.2222  0.0588  0.0668
  836YOPE   C4A12318  12.119   4.170   7.760 -0.1174  0.0372 -0.0876
  836YOPE   C1B12319  11.839   3.920   7.064  0.1502  0.6373 -0.0189
  836YOPE   C2B12320  11.740   4.019   7.471  0.0429 -0.0364  0.1220
  836YOPE   D3B12321  11.758   3.888   7.862  0.0160  0.2556 -0.0760
  836YOPE   C4B12322  11.721   3.665   8.301  0.3444  0.2505  0.1228
  837YOPE   NH312323  15.085  11.564   6.327 -0.1697 -0.2232  0.1545
  837YOPE   PO412324  15.530  11.388   6.269  0.0782 -0.0951  0.0880
  837YOPE   GL112325  15.563  11.631   6.649  0.0842  0.2503  0.3526
  837YOPE   GL212326  15.817  11.843   6.673 -0.0222  0.0697  0.0831
  837YOPE   C1A12327  15.270  11.749   6.994 -0.0101  0.0315 -0.2220
  837YOPE   D2A12328  15.129  11.967   7.227 -0.1469 -0.1957 -0.2892
  837YOPE   C3A12329  14.995  11.600   7.549 -0.1118 -0.0268  0.2974
  837YOPE   C4A12330  14.798  11.407   7.851  0.3312 -0.1077 -0.1787
  837YOPE   C1B12331  15.830  11.730   7.071 -0.0478  0.1277  0.0172
  837YOPE   C2B12332  15.565  11.612   7.433 -0.1004  0.3047  0.0696
  837YOPE   D3B12333  15.319  11.883   7.714  0.0347 -0.0214  0.1900
  837YOPE   C4B12334  15.285  12.297   7.683  0.0400  0.0583 -0.0862
  838YOPE   NH312335   3.807  11.813   5.845 -0.0034 -0.1687 -0.0935
  838YOPE   PO412336   4.158  11.959   6.098  0.0437 -0.0044 -0.2844
  838YOPE   GL112337   4.335  12.271   6.149  0.4334 -0.1139  0.0823
  838YOPE   GL212338   4.745  12.264   6.094  0.0290  0.3055 -0.1597
  838YOPE   C1A12339   4.388  12.719   6.311  0.1182 -0.2225  0.3219
  838YOPE   D2A12340   4.285  12.662   6.687  0.0848 -0.3385 -0.3312
  838YOPE   C3A12341   4.568  12.611   6.931 -0.1098 -0.0139  0.2301
  838YOPE   C4A12342   4.823  12.675   7.246 -0.1728 -0.2146 -0.1635
  838YOPE   C1B12343   4.700  12.343   6.543 -0.2477 -0.1143  0.0871
  838YOPE   C2B12344   4.867  12.203   6.975 -0.2378  0.4299  0.1763
  838YOPE   D3B12345   5.141  12.286   7.333  0.4510 -0.0089  0.2827
  838YOPE   C4B12346   5.608  12.315   7.322  0.0787 -0.1505 -0.0632
  839YOPE   NH312347   2.040  14.268   6.281 -0.0120 -0.0239  0.2823
  839YOPE   PO412348   1.659  13.999   6.271  0.0168 -0.1938  0.4497
  839YOPE   GL112349   1.423  13.798   6.693 -0.0208  0.0018  0.3285
  839YOPE   GL212350   1.209  13.942   6.774 -0.2141 -0.1347  0.0585
  839YOPE   C1A12351   1.266  13.541   7.013 -0.2114 -0.1061  0.3717
  839YOPE   D2A12352   1.194  13.406   7.352  0.2556  0.0656  0.0174
  839YOPE   C3A12353   1.572  13.451   7.662  0.1442 -0.3189  0.2589
  839YOPE   C4A12354   1.763  13.492   8.072 -0.2080  0.0395  0.0856
  839YOPE   C1B12355   1.015  14.207   7.129 -0.1337 -0.2839 -0.1541
  839YOPE   C2B12356   0.796  14.523   7.263  0.0498 -0.1062 -0.1484
  839YOPE   D3B12357   0.687  14.749   7.514 -0.2128  0.0064 -0.0563
  839YOPE   C4B12358   0.722  14.948   7.838  0.1769 -0.1285 -0.1929
  840YOPE   NH312359  12.944  14.683   5.866 -0.1902  0.0807 -0.3150
  840YOPE   PO412360  13.296  14.973   5.934 -0.1364 -0.0911 -0.0333
  840YOPE   GL112361  13.054  15.060   6.361  0.3054  0.1122 -0.0515
  840YOPE   GL212362  12.775  14.866   6.355 -0.2699 -0.0977  0.2151
  840YOPE   C1A12363  13.117  14.951   6.793  0.2398 -0.0386 -0.3427
  840YOPE   D2A12364  13.028  14.672   7.171 -0.1483  0.1823  0.1930
  840YOPE   C3A12365  12.926  14.878   7.514 -0.0922  0.3813  0.1879
  840YOPE   C4A12366  12.816  14.911   7.954  0.0085 -0.1998  0.0764
  840YOPE   C1B12367  12.627  14.946   6.805  0.1240 -0.1233  0.0655
  840YOPE   C2B12368  12.321  15.012   7.180  0.2366  0.0727  0.0332
  840YOPE   D3B12369  12.215  15.326   7.510 -0.4929  0.2034  0.0394
  840YOPE   C4B12370  12.176  15.591   7.971 -0.0932  0.0957  0.0437
  841YOPE   NH312371  17.107   8.505   6.314  0.0639  0.2185 -0.3074
  841YOPE   PO412372  17.436   8.290   6.258  0.0750 -0.0275  0.1908
  841YOPE   GL112373  17.396   8.144   6.628  0.0241 -0.1667 -0.0203
  841YOPE   GL212374  17.125   8.130   6.614 -0.1491  0.4509  0.2207
  841YOPE   C1A12375  17.623   7.966   6.996  0.2929  0.1482 -0.3079
  841YOPE   D2A12376  17.799   7.894   7.396  0.0343 -0.2422  0.1186
  841YOPE   C3A12377  17.854   8.244   7.572  0.0802  0.2173 -0.1947
  841YOPE   C4A12378  17.786   8.348   8.057  0.1341 -0.1322 -0.3219
  841YOPE   C1B12379  17.272   8.347   7.080  0.2640  0.1156 -0.0268
  841YOPE   C2B12380  17.272   8.362   7.532 -0.2224 -0.1903 -0.2263
  841YOPE   D3B12381  17.255   8.160   7.956  0.0160  0.2131  0.3597
  841YOPE   C4B12382  17.372   8.210   8.339  0.0462  0.1065 -0.2199
  842YOPE   NH312383   6.750   3.297   6.384 -0.1229  0.2463  0.1522
  842YOPE   PO412384   7.124   3.381   6.257  0.0461 -0.0169  0.3758
  842YOPE   GL112385   7.148   3.377   6.678  0.1216 -0.0958 -0.0118
  842YOPE   GL212386   7.221   3.128   6.728 -0.2436 -0.3758 -0.0391
  842YOPE   C1A12387   6.863   3.412   7.040 -0.3840 -0.0963  0.1206
  842YOPE   D2A12388   7.097   3.736   7.347  0.0353  0.2432  0.1811
  842YOPE   C3A12389   7.024   4.067   7.701 -0.1838  0.1207 -0.0167
  842YOPE   C4A12390   7.075   4.480   7.859 -0.0054  0.0624 -0.1432
  842YOPE   C1B12391   7.278   3.173   7.122 -0.0924  0.0227 -0.3201
  842YOPE   C2B12392   7.442   3.128   7.529  0.0068  0.0571  0.0259
  842YOPE   D3B12393   7.457   2.880   7.930 -0.0888 -0.0026  0.0817
  842YOPE   C4B12394   7.709   2.838   8.322 -0.0638 -0.0536 -0.0604
  843YOPE   NH312395  10.277  15.062   5.917 -0.0576  0.2216 -0.0987
  843YOPE   PO412396   9.960  15.274   5.999 -0.1669  0.0191  0.0349
  843YOPE   GL112397   9.869  15.122   6.395  0.0461  0.1364  0.3647
  843YOPE   GL212398  10.014  14.809   6.373 -0.4864  0.1003 -0.3822
  843YOPE   C1A12399   9.783  14.896   6.774 -0.1218 -0.1161 -0.1183
  843YOPE   D2A12400   9.563  14.679   7.197  0.1227 -0.1311  0.2201
  843YOPE   C3A12401   9.629  14.619   7.681 -0.2730  0.0131 -0.0604
  843YOPE   C4A12402   9.694  14.357   8.004 -0.2600 -0.1458  0.2699
  843YOPE   C1B12403  10.254  14.890   6.756 -0.1089 -0.0376 -0.3421
  843YOPE   C2B12404  10.419  14.844   7.102 -0.1058  0.0696 -0.3308
  843YOPE   D3B12405  10.535  14.602   7.276  0.1304  0.0299 -0.2152
  843YOPE   C4B12406  10.424  14.363   7.555 -0.0376 -0.1861  0.1171
  844YOPE   NH312407  10.064  13.932   5.959  0.0169  0.2473  0.0314
  844YOPE   PO412408  10.055  13.538   5.850 -0.1788  0.2788  0.3851
  844YOPE   GL112409   9.771  13.321   6.123 -0.2552  0.0944  0.1134
  844YOPE   GL212410   9.522  13.196   5.962 -0.3228 -0.4420 -0.0542
  844YOPE   C1A12411   9.632  13.274   6.502 -0.1366  0.0542  0.3068
  844YOPE   D2A12412   9.409  13.505   6.751 -0.4529 -0.2655 -0.1060
  844YOPE   C3A12413   9.164  13.263   6.743  0.1367 -0.0820 -0.3022
  844YOPE   C4A12414   8.760  13.132   6.642  0.0712 -0.0492 -0.2427
  844YOPE   C1B12415   9.260  13.011   6.316 -0.2326  0.0682 -0.2926
  844YOPE   C2B12416   9.228  12.797   6.793 -0.0537  0.0929 -0.1465
  844YOPE   D3B12417   9.113  12.701   7.189 -0.0502  0.1068 -0.0507
  844YOPE   C4B12418   9.266  12.363   7.547 -0.2382 -0.0488 -0.1938
  845YOPE   NH312419  10.152   6.783   5.776  0.2819  0.0013  0.1361
  845YOPE   PO412420  10.625   6.823   5.893  0.0285  0.1207  0.1066
  845YOPE   GL112421  10.589   6.936   6.307 -0.0502 -0.2182  0.0325
  845YOPE   GL212422  10.749   6.993   6.567  0.0189  0.1682 -0.2529
  845YOPE   C1A12423  10.372   7.318   6.611 -0.2370 -0.2337  0.2205
  845YOPE   D2A12424  10.185   7.540   6.972 -0.0774  0.2136 -0.7465
  845YOPE   C3A12425  10.082   7.312   7.357  0.2456 -0.0893 -0.0928
  845YOPE   C4A12426   9.973   6.990   7.420  0.0701  0.0872 -0.2621
  845YOPE   C1B12427  10.682   6.597   6.854 -0.1119  0.0176 -0.3240
  845YOPE   C2B12428  10.656   6.535   7.297  0.3270 -0.0951  0.2762
  845YOPE   D3B12429  10.556   6.819   7.624 -0.0346  0.1378  0.0037
  845YOPE   C4B12430  10.412   7.185   7.778 -0.0222  0.0367  0.1906
  846YOPE   NH312431  16.613  14.588   6.477 -0.0645 -0.3496  0.1162
  846YOPE   PO412432  16.427  14.167   6.129 -0.2885 -0.1773 -0.0831
  846YOPE   GL112433  16.295  14.041   6.537  0.1058  0.1244 -0.1080
  846YOPE   GL212434  16.482  14.077   6.701  0.1199 -0.0148 -0.2855
  846YOPE   C1A12435  16.083  13.919   6.945 -0.1810  0.1952  0.0869
  846YOPE   D2A12436  15.959  13.827   7.351  0.2576  0.1119  0.3221
  846YOPE   C3A12437  16.045  13.793   7.742 -0.4175 -0.2848 -0.0185
  846YOPE   C4A12438  15.969  13.800   8.112 -0.2008  0.0125  0.0604
  846YOPE   C1B12439  16.505  14.103   7.142  0.2405 -0.5404  0.1945
  846YOPE   C2B12440  16.380  14.032   7.544 -0.0494 -0.2933  0.1710
  846YOPE   D3B12441  16.355  14.311   7.840 -0.1826 -0.0257 -0.0982
  846YOPE   C4B12442  15.960  14.450   8.069  0.0985 -0.0858 -0.0114
  847YOPE   NH312443   6.973  15.535   6.237 -0.2144  0.4828  0.0274
  847YOPE   PO412444   6.674  15.737   6.467 -0.0450 -0.5546  0.2373
  847YOPE   GL112445   6.674  15.681   6.804  0.0243 -0.0765  0.0782
  847YOPE   GL212446   6.865  15.388   6.756 -0.2699 -0.1320  0.0914
  847YOPE   C1A12447   6.927  15.890   7.166 -0.0340  0.1126 -0.1739
  847YOPE   D2A12448   7.134  15.850   7.554 -0.5099 -0.0994  0.1056
  847YOPE   C3A12449   7.309  15.916   7.867  0.1038 -0.0071  0.1242
  847YOPE   C4A12450   7.473  15.621   8.198 -0.0963 -0.0731  0.0417
  847YOPE   C1B12451   7.260  15.503   7.102  0.1270 -0.5140 -0.1895
  847YOPE   C2B12452   7.443  15.437   7.502  0.0162  0.0442 -0.2353
  847YOPE   D3B12453   7.850  15.298   7.788 -0.1905 -0.1120 -0.0204
  847YOPE   C4B12454   8.229  14.981   7.853 -0.1921 -0.1441 -0.1353
  848YOPE   NH312455  15.811   4.146   6.393 -0.1958 -0.2464  0.0825
  848YOPE   PO412456  15.726   4.526   6.503  0.1459  0.0251  0.4860
  848YOPE   GL112457  15.553   4.718   6.811  0.0128 -0.0234 -0.0137
  848YOPE   GL212458  15.805   4.859   6.931 -0.2362 -0.0295 -0.1263
  848YOPE   C1A12459  15.256   4.845   6.891 -0.2360  0.3596  0.0583
  848YOPE   D2A12460  14.896   5.150   6.859 -0.0315 -0.1301 -0.0555
  848YOPE   C3A12461  14.520   5.162   7.017 -0.0105 -0.3420 -0.1066
  848YOPE   C4A12462  14.181   5.430   6.846 -0.1123 -0.2481 -0.0247
  848YOPE   C1B12463  16.146   5.093   7.197 -0.0430  0.0278 -0.1216
  848YOPE   C2B12464  16.213   5.026   7.606 -0.0914 -0.1017 -0.0860
  848YOPE   D3B12465  16.334   4.870   8.082  0.0981  0.0026  0.0339
  848YOPE   C4B12466  16.329   4.572   8.436  0.0698 -0.1750  0.0848
  849YOPE   NH312467  17.685  10.713   6.070 -0.2422  0.1758  0.0685
  849YOPE   PO412468  18.036  10.358   5.933 -0.1607 -0.1627  0.0406
  849YOPE   GL112469  17.953  10.336   6.320  0.2770  0.0540 -0.3631
  849YOPE   GL212470  18.047  10.632   6.451 -0.0969  0.1781  0.0101
  849YOPE   C1A12471  17.778  10.113   6.695 -0.2065  0.1830 -0.3735
  849YOPE   D2A12472  17.580   9.920   7.086 -0.2338 -0.1756  0.0940
  849YOPE   C3A12473  17.471   9.645   7.042  0.2647  0.0176  0.0033
  849YOPE   C4A12474  17.717   9.346   7.020  0.0930  0.2505 -0.1947
  849YOPE   C1B12475  17.888  10.658   6.830  0.0965  0.1349 -0.0382
  849YOPE   C2B12476  17.821  10.383   7.186 -0.0692 -0.1754 -0.0311
  849YOPE   D3B12477  17.648  10.143   7.506  0.0326  0.2180  0.4344
  849YOPE   C4B12478  17.526  10.033   8.017  0.1379 -0.0810 -0.1454
  850YOPE   NH312479  13.916  10.448   5.707  0.0431  0.1489  0.3641
  850YOPE   PO412480  14.119  10.046   5.965  0.4060 -0.1920  0.3521
  850YOPE   GL112481  14.065  10.413   6.181  0.1646  0.4759 -0.0483
  850YOPE   GL212482  14.280  10.229   6.393 -0.0532  0.2477 -0.0637
  850YOPE   C1A12483  13.772  10.542   6.602 -0.5097 -0.1161  0.1147
  850YOPE   D2A12484  13.774  10.814   6.847 -0.0533 -0.1329  0.1984
  850YOPE   C3A12485  14.057  10.782   7.096  0.0525 -0.1664  0.0828
  850YOPE   C4A12486  14.205  10.739   7.566  0.2717 -0.3996 -0.1095
  850YOPE   C1B12487  14.200  10.353   6.815  0.2824  0.0741 -0.4113
  850YOPE   C2B12488  14.188  10.359   7.309  0.0038  0.5409  0.0573
  850YOPE   D3B12489  13.923  10.050   7.523 -0.0679 -0.0067 -0.2335
  850YOPE   C4B12490  13.862   9.844   7.870  0.0111  0.0187  0.3638
  851YOPE   NH312491   2.923   7.327   5.861 -0.1178  0.0759 -0.0976
  851YOPE   PO412492   2.629   7.519   6.097 -0.0190 -0.2073  0.1125
  851YOPE   GL112493   2.428   7.615   6.524 -0.1779 -0.2772  0.1973
  851YOPE   GL212494   2.156   7.435   6.623 -0.2187  0.2239  0.1299
  851YOPE   C1A12495   2.653   7.491   6.887  0.2931 -0.0309  0.1706
  851YOPE   D2A12496   2.666   7.295   7.291  0.1639  0.1217  0.0179
  851YOPE   C3A12497   2.953   7.161   7.559  0.2199 -0.0012 -0.2969
  851YOPE   C4A12498   3.180   7.030   7.997  0.2264  0.2501  0.0678
  851YOPE   C1B12499   2.189   7.545   7.098  0.1664 -0.1311  0.2776
  851YOPE   C2B12500   2.227   7.308   7.548  0.1309  0.2457  0.1487
  851YOPE   D3B12501   2.529   7.367   7.850  0.1137  0.1280 -0.3095
  851YOPE   C4B12502   2.973   7.479   7.957  0.0021  0.2617 -0.1700
  852YOPE   NH312503   2.057  12.404   5.915  0.1091 -0.0050 -0.0429
  852YOPE   PO412504   1.791  12.314   6.314  0.1896  0.0223  0.2811
  852YOPE   GL112505   1.748  12.622   6.763  0.1681  0.1288 -0.1262
  852YOPE   GL212506   1.548  12.426   6.911  0.0530 -0.2561 -0.2121
  852YOPE   C1A12507   1.756  12.974   7.085 -0.0927 -0.4229 -0.2747
  852YOPE   D2A12508   1.926  12.994   7.547  0.2208 -0.0046  0.1438
  852YOPE   C3A12509   1.689  13.007   7.917 -0.0060  0.2181  0.1619
  852YOPE   C4A12510   1.351  13.188   8.116  0.4216  0.0946  0.0626
  852YOPE   C1B12511   1.424  12.309   7.232  0.1097 -0.1573 -0.1321
  852YOPE   C2B12512   1.545  12.270   7.690 -0.1531 -0.0104  0.0052
  852YOPE   D3B12513   1.437  12.262   8.138  0.4360 -0.0609 -0.1303
  852YOPE   C4B12514   1.259  12.059   8.438  0.3322 -0.0117  0.2058
  853YOPE   NH312515  15.053   6.896   6.346  0.3374 -0.3163 -0.2063
  853YOPE   PO412516  14.713   7.178   6.247 -0.2080 -0.2595 -0.1512
  853YOPE   GL112517  14.603   7.343   6.717  0.0974 -0.2640  0.1249
  853YOPE   GL212518  14.351   7.066   6.787  0.0010  0.4832 -0.3022
  853YOPE   C1A12519  14.756   7.502   7.109  0.0301 -0.1073  0.2299
  853YOPE   D2A12520  14.978   7.478   7.285 -0.2046 -0.0317  0.2188
  853YOPE   C3A12521  15.112   7.811   7.541 -0.1264  0.1806  0.1478
  853YOPE   C4A12522  15.068   7.980   7.858  0.0752  0.1853 -0.4902
  853YOPE   C1B12523  14.201   6.849   7.129 -0.1409 -0.0756  0.1869
  853YOPE   C2B12524  13.979   6.967   7.487  0.0271  0.1448  0.2113
  853YOPE   D3B12525  13.889   6.751   7.729 -0.1075  0.2393 -0.2587
  853YOPE   C4B12526  13.752   6.578   8.117 -0.0968  0.0287  0.1770
  854YOPE   NH312527   6.605   6.894   5.862 -0.0973  0.0197  0.3037
  854YOPE   PO412528   6.163   6.867   5.779  0.1374 -0.3599  0.0669
  854YOPE   GL112529   6.253   6.868   6.318  0.0146  0.4659  0.1774
  854YOPE   GL212530   6.520   6.961   6.380  0.2902 -0.0667  0.1442
  854YOPE   C1A12531   5.921   6.954   6.701  0.1389 -0.5367 -0.0376
  854YOPE   D2A12532   5.783   7.055   7.065 -0.0346 -0.0215  0.1310
  854YOPE   C3A12533   6.053   7.185   7.396  0.0109  0.1761  0.1664
  854YOPE   C4A12534   6.221   7.474   7.666 -0.0155  0.1485 -0.2224
  854YOPE   C1B12535   6.324   7.171   6.882 -0.0438 -0.4522 -0.0338
  854YOPE   C2B12536   6.388   7.541   7.210  0.0375  0.1233  0.2398
  854YOPE   D3B12537   6.596   7.754   7.544  0.2920 -0.0330 -0.0415
  854YOPE   C4B12538   6.256   7.960   7.877 -0.1659  0.0695  0.2335
  855YOPE   NH312539  10.235  10.001   5.818 -0.0209 -0.2667 -0.4034
  855YOPE   PO412540  10.599  10.057   5.619 -0.1800 -0.0664 -0.0566
  855YOPE   GL112541  10.543   9.877   6.175 -0.1214  0.0682 -0.0442
  855YOPE   GL212542  10.756  10.049   6.289 -0.0491 -0.0726  0.1802
  855YOPE   C1A12543  10.378   9.776   6.634  0.0630  0.2751  0.3705
  855YOPE   D2A12544  10.496   9.722   7.017 -0.0915 -0.0542  0.0649
  855YOPE   C3A12545  10.286  10.003   7.379  0.0789  0.4052  0.0754
  855YOPE   C4A12546  10.033   9.790   7.755  0.1109  0.1765 -0.2234
  855YOPE   C1B12547  10.806  10.017   6.698 -0.1174 -0.0255  0.0847
  855YOPE   C2B12548  10.791  10.116   7.018  0.1301  0.0029 -0.3309
  855YOPE   D3B12549  10.792   9.928   7.448  0.1289 -0.3008  0.1171
  855YOPE   C4B12550  10.633   9.654   7.681  0.2500 -0.0552 -0.2450
  856YOPE   NH312551   5.045  17.930   6.339  0.0249  0.0684 -0.1870
  856YOPE   PO412552   5.373  18.023   6.004 -0.1929  0.0621  0.1549
  856YOPE   GL112553   5.561  18.090   6.343 -0.0222 -0.0200  0.1094
  856YOPE   GL212554   5.850  17.824   6.538  0.1532  0.4831 -0.0389
  856YOPE   C1A12555   5.639  18.306   6.678  0.0647  0.1309 -0.1726
  856YOPE   D2A12556   5.580  18.342   7.123 -0.0384 -0.0862 -0.1335
  856YOPE   C3A12557   5.390  18.196   7.431  0.0323  0.0921 -0.0184
  856YOPE   C4A12558   5.418  18.190   7.948 -0.1074  0.0247 -0.0621
  856YOPE   C1B12559   6.276  17.756   6.677 -0.0850  0.0129 -0.2461
  856YOPE   C2B12560   6.619  17.846   6.819  0.0593  0.1787  0.1622
  856YOPE   D3B12561   6.865  17.847   7.157 -0.3327  0.1896 -0.0585
  856YOPE   C4B12562   6.993  17.854   7.586 -0.2690 -0.1753  0.1988
  857YOPE   NH312563  12.765   1.223   6.435  0.0990 -0.1439 -0.0743
  857YOPE   PO412564  12.830   1.665   6.374 -0.1359  0.0114  0.0015
  857YOPE   GL112565  13.163   1.554   6.711  0.0700 -0.0506 -0.0797
  857YOPE   GL212566  13.065   1.256   6.860  0.0565  0.2152 -0.0937
  857YOPE   C1A12567  13.271   1.808   7.066 -0.2051 -0.4387 -0.2835
  857YOPE   D2A12568  13.330   1.728   7.491 -0.1437  0.0633  0.2920
  857YOPE   C3A12569  13.172   1.861   7.853  0.0310 -0.3203  0.1820
  857YOPE   C4A12570  12.855   1.982   8.208 -0.2825 -0.1820  0.2059
  857YOPE   C1B12571  12.925   1.393   7.239  0.0056  0.3703 -0.0111
  857YOPE   C2B12572  12.807   1.800   7.529 -0.0422  0.0781  0.1172
  857YOPE   D3B12573  12.634   2.121   7.711  0.1509 -0.2185  0.0892
  857YOPE   C4B12574  12.375   2.455   7.766 -0.1634 -0.2205  0.2417
  858YOPE   NH312575  16.246   8.739   5.991 -0.2193 -0.1146 -0.1323
  858YOPE   PO412576  16.082   9.031   5.964 -0.0502  0.1322 -0.1062
  858YOPE   GL112577  16.063   9.047   6.426 -0.0149  0.2278  0.2057
  858YOPE   GL212578  16.323   8.815   6.611  0.1048 -0.0665 -0.0699
  858YOPE   C1A12579  15.962   9.168   6.858 -0.4782  0.1311 -0.2148
  858YOPE   D2A12580  15.946   9.213   7.358  0.0067  0.1846  0.2880
  858YOPE   C3A12581  16.284   9.208   7.665  0.0496  0.1073 -0.0457
  858YOPE   C4A12582  16.688   9.219   7.941  0.1110  0.0231  0.0794
  858YOPE   C1B12583  16.555   8.727   6.912 -0.1487  0.2433  0.3648
  858YOPE   C2B12584  16.472   8.416   7.246  0.1310  0.0019 -0.1147
  858YOPE   D3B12585  15.997   8.144   7.212  0.1077  0.3146 -0.2874
  858YOPE   C4B12586  15.825   8.020   7.599  0.2140  0.1912  0.1894
  859YOPE   NH312587   5.776   9.780   5.860  0.0057  0.2114 -0.1087
  859YOPE   PO412588   5.818  10.204   5.588  0.1699  0.1866  0.3229
  859YOPE   GL112589   5.825  10.268   6.010  0.1135 -0.0390 -0.2810
  859YOPE   GL212590   5.911  10.006   6.254  0.1385 -0.0260  0.2561
  859YOPE   C1A12591   6.233  10.409   6.336 -0.0703 -0.1784 -0.1755
  859YOPE   D2A12592   6.308  10.350   6.741 -0.5766  0.1058  0.0628
  859YOPE   C3A12593   6.316  10.120   7.114  0.1553 -0.2004  0.1991
  859YOPE   C4A12594   6.448   9.811   7.452 -0.0803  0.1633 -0.0239
  859YOPE   C1B12595   6.223   9.839   6.631 -0.0810 -0.2126 -0.0105
  859YOPE   C2B12596   6.358   9.579   7.032 -0.0848 -0.0114 -0.0708
  859YOPE   D3B12597   6.267   9.339   7.351 -0.2108 -0.1236  0.0318
  859YOPE   C4B12598   6.023   9.362   7.705  0.1447  0.0009  0.0537
  860YOPE   NH312599   2.540  11.787   6.099 -0.4038 -0.0127  0.0635
  860YOPE   PO412600   2.114  11.921   6.021 -0.0959 -0.1908  0.1652
  860YOPE   GL112601   2.157  11.754   6.528 -0.1819  0.0722 -0.2028
  860YOPE   GL212602   2.368  11.478   6.533 -0.1376 -0.1882  0.1122
  860YOPE   C1A12603   2.230  11.825   7.052  0.3166  0.1273  0.2334
  860YOPE   D2A12604   2.539  11.728   7.392 -0.2030  0.0527  0.1174
  860YOPE   C3A12605   2.511  11.678   7.754  0.1044 -0.0716 -0.0092
  860YOPE   C4A12606   2.804  11.494   8.080 -0.0885 -0.1433 -0.1113
  860YOPE   C1B12607   2.351  11.321   6.958  0.0518  0.0213  0.2490
  860YOPE   C2B12608   2.176  11.360   7.383 -0.0152  0.0132  0.2636
  860YOPE   D3B12609   1.958  11.370   7.727  0.0452 -0.0874 -0.2683
  860YOPE   C4B12610   2.143  11.629   8.085  0.0505  0.2137 -0.2360
  861YOPE   NH312611  12.607   5.488   5.720  0.1307 -0.2326  0.1394
  861YOPE   PO412612  12.248   5.221   5.970 -0.0698 -0.0080  0.0524
  861YOPE   GL112613  12.211   5.216   6.399 -0.2192  0.1203 -0.0743
  861YOPE   GL212614  12.379   4.890   6.469 -0.1316 -0.1314 -0.1110
  861YOPE   C1A12615  12.258   5.192   6.862  0.0364 -0.0920 -0.0773
  861YOPE   D2A12616  12.599   5.243   7.218 -0.0489 -0.1879 -0.3162
  861YOPE   C3A12617  12.399   5.110   7.555 -0.3169  0.3350 -0.2411
  861YOPE   C4A12618  12.275   4.694   7.786 -0.0443  0.2195  0.2371
  861YOPE   C1B12619  12.618   4.852   6.807 -0.0090  0.2454 -0.2545
  861YOPE   C2B12620  12.737   4.671   7.281  0.1805 -0.1209  0.1771
  861YOPE   D3B12621  12.918   4.651   7.685 -0.0488 -0.0392  0.2532
  861YOPE   C4B12622  13.164   4.776   8.116 -0.0266  0.3334 -0.2296
  862YOPE   NH312623  14.176   3.396   6.590 -0.3115  0.0381 -0.0719
  862YOPE   PO412624  14.720   3.191   6.567 -0.0016 -0.3429  0.1710
  862YOPE   GL112625  14.516   3.263   6.969  0.2396  0.1110  0.1511
  862YOPE   GL212626  14.232   3.428   7.111  0.0416  0.1880 -0.0115
  862YOPE   C1A12627  14.456   3.080   7.422 -0.3623  0.1899  0.0909
  862YOPE   D2A12628  14.534   2.893   7.732  0.1572 -0.3652 -0.0383
  862YOPE   C3A12629  14.953   2.649   7.607 -0.1362 -0.0413 -0.0818
  862YOPE   C4A12630  15.325   2.590   7.524  0.0044 -0.1666 -0.1231
  862YOPE   C1B12631  14.244   3.542   7.511  0.2054 -0.3197  0.0723
  862YOPE   C2B12632  14.417   3.826   7.774  0.0379  0.0964 -0.0823
  862YOPE   D3B12633  14.598   3.900   8.247 -0.1385  0.3014 -0.2861
  862YOPE   C4B12634  14.810   4.129   8.613  0.2595 -0.0423  0.2590
  863YOPE   NH312635   1.139  13.752   6.171  0.1336 -0.1180  0.0360
  863YOPE   PO412636   1.027  13.499   6.416 -0.1662 -0.0591  0.0947
  863YOPE   GL112637   1.016  13.184   6.706 -0.1382  0.4705 -0.1202
  863YOPE   GL212638   1.368  12.994   6.662 -0.0056  0.0827  0.1854
  863YOPE   C1A12639   0.827  13.241   7.126 -0.1227 -0.2055  0.0643
  863YOPE   D2A12640   0.534  13.159   7.471  0.1708 -0.1683 -0.0221
  863YOPE   C3A12641   0.328  12.875   7.667  0.0091 -0.0693  0.2746
  863YOPE   C4A12642   0.602  12.566   7.754 -0.0647 -0.0188 -0.0812
  863YOPE   C1B12643   1.189  12.859   7.031  0.1204 -0.3118 -0.1506
  863YOPE   C2B12644   1.410  12.784   7.486 -0.2121 -0.0407 -0.0994
  863YOPE   D3B12645   1.332  12.666   7.909  0.3655  0.1470 -0.0894
  863YOPE   C4B12646   1.187  12.617   8.325  0.4206 -0.1568  0.2277
  864YOPE   NH312647   5.346  15.846   5.972  0.1886  0.2089  0.0357
  864YOPE   PO412648   5.140  15.438   6.124 -0.2344  0.1375 -0.2075
  864YOPE   GL112649   5.321  15.315   6.450  0.1526 -0.0517  0.1251
  864YOPE   GL212650   5.231  15.002   6.453 -0.1555  0.1024  0.1144
  864YOPE   C1A12651   5.368  15.324   6.834 -0.0120 -0.0290  0.0466
  864YOPE   D2A12652   5.544  15.183   7.270  0.1017  0.0723  0.2456
  864YOPE   C3A12653   5.701  14.820   7.400 -0.1097 -0.0634 -0.1481
  864YOPE   C4A12654   5.689  14.417   7.266  0.1531 -0.3687 -0.0199
  864YOPE   C1B12655   4.920  15.090   6.774 -0.2042 -0.0424 -0.1216
  864YOPE   C2B12656   4.988  15.204   7.185  0.0020  0.0484 -0.0896
  864YOPE   D3B12657   5.130  15.193   7.546  0.0503  0.0603  0.1216
  864YOPE   C4B12658   5.081  15.478   7.919 -0.0547 -0.0062 -0.0681
  865YOPE   NH312659   8.976  11.782   5.431 -0.0809 -0.1149  0.2901
  865YOPE   PO412660   9.168  12.154   5.568 -0.3097 -0.0309  0.1876
  865YOPE   GL112661   8.877  12.007   5.907 -0.0891 -0.1474  0.1013
  865YOPE   GL212662   8.979  11.759   6.158 -0.1905 -0.2038  0.1109
  865YOPE   C1A12663   8.667  12.327   6.166  0.3241 -0.3266  0.1170
  865YOPE   D2A12664   8.340  12.310   6.397  0.1221 -0.0069  0.0172
  865YOPE   C3A12665   8.444  12.156   6.800  0.2613  0.1149 -0.1816
  865YOPE   C4A12666   8.426  11.934   7.116 -0.3236 -0.1997 -0.0259
  865YOPE   C1B12667   9.120  11.482   6.472  0.1291  0.0365  0.1029
  865YOPE   C2B12668   9.308  11.576   6.948  0.1364 -0.2031  0.0313
  865YOPE   D3B12669   9.143  11.736   7.294  0.0579 -0.2715 -0.0066
  865YOPE   C4B12670   8.861  11.898   7.544  0.0782 -0.2112  0.1304
  866YOPE   NH312671   8.174  10.182   5.200  0.0877 -0.2114 -0.1003
  866YOPE   PO412672   8.432  10.335   5.527 -0.0781  0.1176  0.1013
  866YOPE   GL112673   8.370  10.403   5.960  0.0203  0.2705  0.2056
  866YOPE   GL212674   8.145  10.602   6.018 -0.2693 -0.3429  0.0722
  866YOPE   C1A12675   8.350  10.282   6.388  0.0887  0.2597 -0.1220
  866YOPE   D2A12676   8.372   9.899   6.638  0.0729  0.1372 -0.2679
  866YOPE   C3A12677   8.160   9.787   7.082 -0.1571  0.0176 -0.0667
  866YOPE   C4A12678   8.021   9.496   7.380  0.3726 -0.3715  0.5888
  866YOPE   C1B12679   8.011  10.694   6.450  0.0178 -0.1209 -0.1424
  866YOPE   C2B12680   8.059  10.725   6.865  0.2375 -0.0167 -0.1669
  866YOPE   D3B12681   8.059  10.580   7.264  0.0865 -0.1030 -0.1761
  866YOPE   C4B12682   8.127  10.480   7.603 -0.0657  0.1825  0.1497
  867YOPE   NH312683  11.552   8.729   5.801  0.1774  0.0694  0.1269
  867YOPE   PO412684  11.481   9.242   5.874  0.0057 -0.3212  0.0737
  867YOPE   GL112685  11.568   9.450   6.281  0.1700 -0.1085 -0.0405
  867YOPE   GL212686  11.235   9.248   6.326  0.3556 -0.2411  0.0699
  867YOPE   C1A12687  11.555   9.568   6.686  0.1995 -0.0663 -0.2086
  867YOPE   D2A12688  11.646   9.704   7.062  0.1381 -0.1779 -0.2443
  867YOPE   C3A12689  11.671   9.954   7.427  0.2270 -0.0183  0.2798
  867YOPE   C4A12690  12.108  10.204   7.495  0.1847 -0.1177 -0.0742
  867YOPE   C1B12691  11.472   9.109   6.690 -0.0434  0.2760  0.1856
  867YOPE   C2B12692  11.568   9.070   7.154  0.0087 -0.1555 -0.1674
  867YOPE   D3B12693  11.541   9.323   7.517 -0.0960  0.1468 -0.3250
  867YOPE   C4B12694  11.617   9.300   7.910  0.0490 -0.1061  0.1225
  868YOPE   NH312695   8.440   6.076   5.985 -0.0246  0.3096 -0.3318
  868YOPE   PO412696   8.129   5.730   5.959 -0.1155  0.1906  0.0884
  868YOPE   GL112697   8.185   5.756   6.388  0.1489  0.0202  0.0276
  868YOPE   GL212698   8.324   6.116   6.471 -0.2439  0.2095  0.1029
  868YOPE   C1A12699   7.891   5.872   6.742  0.1306  0.1738 -0.0234
  868YOPE   D2A12700   8.006   5.722   7.092 -0.1605 -0.3396  0.0728
  868YOPE   C3A12701   8.144   5.599   7.472 -0.0441 -0.2162  0.2883
  868YOPE   C4A12702   8.383   5.371   7.908 -0.1447  0.1937  0.2214
  868YOPE   C1B12703   8.476   5.869   6.768  0.1846  0.1698 -0.2487
  868YOPE   C2B12704   8.558   5.569   7.117  0.0010  0.2060  0.1458
  868YOPE   D3B12705   8.821   5.365   7.451 -0.3597 -0.0718 -0.1850
  868YOPE   C4B12706   8.732   5.007   7.723  0.1230 -0.0182  0.0018
  869YOPE   NH312707   8.429   1.661   6.370  0.0861  0.1082 -0.1239
  869YOPE   PO412708   8.859   1.591   6.198  0.1875  0.0860  0.4114
  869YOPE   GL112709   8.844   1.313   6.508 -0.0060 -0.0652 -0.1090
  869YOPE   GL212710   9.174   1.350   6.752 -0.4106  0.2730 -0.1453
  869YOPE   C1A12711   8.590   1.245   6.804 -0.0222 -0.0355  0.0701
  869YOPE   D2A12712   8.566   1.416   7.233  0.0306 -0.4562  0.1142
  869YOPE   C3A12713   8.835   1.766   7.379  0.0784 -0.1137 -0.2988
  869YOPE   C4A12714   8.633   2.181   7.499  0.2069  0.2261  0.1457
  869YOPE   C1B12715   9.197   1.301   7.222 -0.2464 -0.3674  0.1817
  869YOPE   C2B12716   9.196   1.267   7.763  0.0776  0.0484  0.0741
  869YOPE   D3B12717   9.537   1.238   8.108 -0.3465  0.0700 -0.0689
  869YOPE   C4B12718   9.735   1.560   8.376  0.0209  0.0122 -0.0927
  870YOPE   NH312719   0.883  12.150   6.157 -0.1356 -0.0693 -0.2403
  870YOPE   PO412720   1.254  12.006   6.177 -0.1072  0.0615 -0.0565
  870YOPE   GL112721   1.450  12.073   6.567  0.0767  0.2547  0.0516
  870YOPE   GL212722   1.376  11.774   6.662 -0.2398 -0.0725  0.0232
  870YOPE   C1A12723   1.762  12.002   6.899  0.1836 -0.1269  0.1250
  870YOPE   D2A12724   1.806  11.901   7.316  0.0227  0.4155 -0.0312
  870YOPE   C3A12725   2.043  11.890   7.692  0.0560 -0.0701  0.2179
  870YOPE   C4A12726   2.379  12.142   7.906  0.1062  0.0004  0.0942
  870YOPE   C1B12727   1.261  11.881   7.003 -0.2600 -0.0026  0.1302
  870YOPE   C2B12728   1.294  11.878   7.522 -0.0699 -0.2731  0.3682
  870YOPE   D3B12729   1.527  11.690   7.832 -0.0992  0.1485  0.1593
  870YOPE   C4B12730   1.680  11.657   8.321  0.2228  0.0210 -0.1598
  871YOPE   NH312731  16.149  14.546   6.315  0.3389 -0.0683 -0.4691
  871YOPE   PO412732  16.259  14.977   6.430 -0.3917  0.2749  0.1112
  871YOPE   GL112733  16.109  14.819   6.794 -0.1596 -0.0837  0.0606
  871YOPE   GL212734  16.129  14.447   6.901 -0.2300  0.2397 -0.0775
  871YOPE   C1A12735  16.043  14.879   7.161 -0.2129 -0.0100  0.0716
  871YOPE   D2A12736  16.101  14.744   7.581 -0.0407  0.0297 -0.0525
  871YOPE   C3A12737  15.682  14.831   7.869  0.0544  0.0685 -0.2229
  871YOPE   C4A12738  15.461  14.939   8.286 -0.1130  0.0756 -0.0182
  871YOPE   C1B12739  16.097  14.379   7.255 -0.1621 -0.0338  0.1347
  871YOPE   C2B12740  15.884  14.243   7.578  0.0388 -0.0034 -0.0545
  871YOPE   D3B12741  15.653  14.121   7.960  0.0153  0.3629 -0.0182
  871YOPE   C4B12742  15.623  14.152   8.437 -0.1796 -0.1014 -0.1373
  872YOPE   NH312743   6.866   8.020   6.011 -0.1913 -0.1176 -0.0146
  872YOPE   PO412744   7.340   8.024   6.098 -0.3109 -0.2192  0.1009
  872YOPE   GL112745   7.100   7.969   6.450 -0.0976 -0.1018 -0.0651
  872YOPE   GL212746   7.016   7.678   6.363 -0.0017 -0.0625  0.3361
  872YOPE   C1A12747   7.298   8.036   6.766  0.0308 -0.0189  0.0094
  872YOPE   D2A12748   7.550   8.241   7.054  0.2301 -0.3255  0.1850
  872YOPE   C3A12749   7.543   8.260   7.480  0.0800 -0.3197 -0.1839
  872YOPE   C4A12750   7.524   7.971   7.901  0.0266 -0.1501  0.0529
  872YOPE   C1B12751   6.771   7.679   6.740 -0.1309 -0.1078 -0.0817
  872YOPE   C2B12752   6.838   7.425   7.145  0.0822  0.3980  0.0624
  872YOPE   D3B12753   7.024   7.491   7.572  0.3509  0.0561  0.4729
  872YOPE   C4B12754   7.184   7.603   7.967 -0.0338 -0.1762 -0.1065
  873YOPE   NH312755  11.172   3.871   6.348  0.0117  0.1306  0.0213
  873YOPE   PO412756  10.818   3.834   6.205 -0.3531  0.2002  0.0949
  873YOPE   GL112757  10.742   3.637   6.494  0.3000  0.0052 -0.2831
  873YOPE   GL212758  10.432   3.710   6.592  0.0769 -0.0563 -0.0054
  873YOPE   C1A12759  10.822   3.647   6.953 -0.0679  0.0050  0.1838
  873YOPE   D2A12760  10.789   3.808   7.353 -0.2480  0.1846  0.1534
  873YOPE   C3A12761  10.800   3.453   7.787  0.2272  0.1079  0.0030
  873YOPE   C4A12762  10.738   3.038   7.967 -0.0645  0.2085 -0.0289
  873YOPE   C1B12763  10.409   3.325   6.784  0.1959  0.0991 -0.4341
  873YOPE   C2B12764  10.452   3.262   7.265  0.1549  0.1388 -0.1610
  873YOPE   D3B12765  10.249   3.204   7.691 -0.0282  0.1970 -0.1474
  873YOPE   C4B12766   9.914   3.402   7.868  0.0072  0.0587  0.0929
  874YOPE   NH312767   2.722   3.509   6.425  0.1217  0.1802  0.0805
  874YOPE   PO412768   2.551   3.950   6.274  0.0577 -0.1080  0.2043
  874YOPE   GL112769   2.431   3.950   6.690 -0.2784 -0.0274 -0.1789
  874YOPE   GL212770   2.676   3.931   6.990  0.0596  0.1078  0.2899
  874YOPE   C1A12771   2.189   4.047   7.016  0.1729  0.0515  0.0843
  874YOPE   D2A12772   1.969   4.371   6.969  0.1073 -0.0424  0.0664
  874YOPE   C3A12773   1.901   4.608   7.259 -0.0001  0.0036  0.1158
  874YOPE   C4A12774   1.856   4.601   7.708 -0.3667  0.1101 -0.0804
  874YOPE   C1B12775   2.716   3.982   7.387 -0.3320  0.0680  0.0651
  874YOPE   C2B12776   2.921   3.970   7.851 -0.2428 -0.0355  0.2700
  874YOPE   D3B12777   3.364   4.014   7.904  0.2398  0.1073  0.3520
  874YOPE   C4B12778   3.659   4.354   8.238  0.0897  0.1498  0.1446
  875YOPE   NH312779   0.463  11.198   6.033  0.1931 -0.1013  0.0636
  875YOPE   PO412780   0.056  11.025   6.093  0.0199 -0.4464  0.6013
  875YOPE   GL112781  -0.233  11.102   6.481 -0.1870  0.0037 -0.1233
  875YOPE   GL212782  -0.510  11.220   6.565 -0.1405 -0.3140  0.1496
  875YOPE   C1A12783  -0.119  11.197   6.918 -0.1213 -0.3100  0.0291
  875YOPE   D2A12784   0.014  10.902   7.315  0.1473  0.0859  0.1402
  875YOPE   C3A12785   0.116  11.052   7.684 -0.1621 -0.1413 -0.1825
  875YOPE   C4A12786   0.194  11.266   8.124  0.0867 -0.1049  0.0981
  875YOPE   C1B12787  -0.622  11.063   6.949  0.0298 -0.1624  0.0400
  875YOPE   C2B12788  -0.458  10.944   7.318 -0.2522 -0.2693 -0.0095
  875YOPE   D3B12789  -0.463  10.663   7.608 -0.0517 -0.3153 -0.2751
  875YOPE   C4B12790  -0.323  10.584   7.931  0.2021  0.2797  0.1972
  876YOPE   NH312791  13.304   3.255   6.197  0.1988  0.4192  0.3725
  876YOPE   PO412792  13.789   3.368   6.205  0.1981 -0.0302  0.0457
  876YOPE   GL112793  13.621   3.123   6.583 -0.1618 -0.0316  0.2119
  876YOPE   GL212794  13.295   3.206   6.719 -0.0083  0.0288  0.0057
  876YOPE   C1A12795  13.566   2.875   6.874  0.1867  0.3630  0.0088
  876YOPE   D2A12796  13.244   2.633   7.088 -0.1324 -0.2212  0.1856
  876YOPE   C3A12797  13.302   2.703   7.544  0.1838 -0.0305  0.2008
  876YOPE   C4A12798  13.461   2.610   7.963  0.0800  0.2485  0.2420
  876YOPE   C1B12799  12.976   3.079   7.071  0.1751  0.1001 -0.1865
  876YOPE   C2B12800  12.626   3.105   7.432 -0.0649  0.1447  0.4437
  876YOPE   D3B12801  12.470   2.996   7.842 -0.0202 -0.2371  0.2811
  876YOPE   C4B12802  12.563   3.305   8.070 -0.3000  0.0371 -0.0747
  877YOPE   NH312803  17.680   3.103   6.610 -0.0250  0.1934  0.0669
  877YOPE   PO412804  17.667   2.619   6.458 -0.0887 -0.0955 -0.1363
  877YOPE   GL112805  17.652   2.470   6.951  0.1403  0.0645  0.0069
  877YOPE   GL212806  17.880   2.235   7.021 -0.3230  0.1292 -0.2883
  877YOPE   C1A12807  17.387   2.463   7.312  0.0309  0.2287 -0.0267
  877YOPE   D2A12808  17.291   2.502   7.640 -0.1761 -0.0185 -0.2797
  877YOPE   C3A12809  17.324   2.530   8.040 -0.0143  0.0119  0.3745
  877YOPE   C4A12810  16.944   2.387   8.288 -0.1265 -0.3258  0.1650
  877YOPE   C1B12811  17.795   2.305   7.482 -0.3188 -0.0098 -0.0715
  877YOPE   C2B12812  17.744   2.367   7.876 -0.1315 -0.1894 -0.0293
  877YOPE   D3B12813  17.818   2.532   8.245  0.0081  0.2127  0.0734
  877YOPE   C4B12814  18.032   2.715   8.373 -0.0412 -0.0376 -0.0110
  878YOPE   NH312815  14.225   7.203   6.216  0.0306 -0.1147  0.2223
  878YOPE   PO412816  13.820   7.397   6.167  0.0326 -0.0413 -0.2325
  878YOPE   GL112817  13.466   7.429   6.541  0.0851 -0.0767 -0.2579
  878YOPE   GL212818  13.324   7.082   6.686  0.1067  0.1199 -0.2181
  878YOPE   C1A12819  13.497   7.531   6.987 -0.0771  0.0950  0.1618
  878YOPE   D2A12820  13.460   7.713   7.423  0.0210  0.1262 -0.1139
  878YOPE   C3A12821  13.359   7.547   7.869 -0.3067  0.0759 -0.1427
  878YOPE   C4A12822  13.240   7.452   8.193 -0.0848  0.1625  0.0373
  878YOPE   C1B12823  13.252   7.083   7.132 -0.4936  0.1002 -0.0638
  878YOPE   C2B12824  13.503   7.232   7.440 -0.0945 -0.0658  0.1205
  878YOPE   D3B12825  13.569   7.104   7.877 -0.3403 -0.0882 -0.2255
  878YOPE   C4B12826  13.884   7.294   8.204 -0.1300 -0.0055  0.1739
  879YOPE   NH312827   1.271  12.519   6.348 -0.0172  0.0688  0.0990
  879YOPE   PO412828   1.550  12.623   5.961  0.1597  0.0988  0.0708
  879YOPE   GL112829   1.816  12.804   6.284  0.2116  0.0385 -0.0548
  879YOPE   GL212830   2.158  12.836   6.295 -0.0032 -0.0861 -0.1456
  879YOPE   C1A12831   1.869  13.086   6.551  0.3066 -0.3792  0.1117
  879YOPE   D2A12832   1.762  13.491   6.848  0.0072  0.0754 -0.1273
  879YOPE   C3A12833   1.885  13.624   7.280 -0.1744 -0.1075  0.0498
  879YOPE   C4A12834   1.967  13.865   7.637  0.0565 -0.0727  0.2168
  879YOPE   C1B12835   2.218  12.783   6.786 -0.2765 -0.1089  0.0315
  879YOPE   C2B12836   2.295  12.823   7.223 -0.0138  0.3035  0.2631
  879YOPE   D3B12837   2.420  13.018   7.511  0.0444 -0.0363  0.0018
  879YOPE   C4B12838   2.174  13.390   7.799  0.0182  0.0124  0.0261
  880YOPE   NH312839   9.504   3.888   5.815 -0.2502 -0.1372  0.0132
  880YOPE   PO412840   9.606   4.272   5.663  0.0629  0.3596 -0.0799
  880YOPE   GL112841   9.401   4.378   6.089  0.0353  0.2075 -0.1762
  880YOPE   GL212842   9.755   4.454   6.149  0.0756 -0.1336 -0.1887
  880YOPE   C1A12843   9.147   4.329   6.444 -0.2940  0.2270 -0.0815
  880YOPE   D2A12844   9.034   3.976   6.740 -0.0292  0.2064  0.0341
  880YOPE   C3A12845   8.949   3.544   6.486  0.0052  0.0455  0.1076
  880YOPE   C4A12846   8.708   3.124   6.499  0.3354 -0.2507  0.0627
  880YOPE   C1B12847   9.927   4.636   6.597 -0.0508 -0.1605  0.1530
  880YOPE   C2B12848   9.791   4.646   7.052  0.3318  0.1205 -0.1023
  880YOPE   D3B12849   9.574   4.696   7.411 -0.2066 -0.0751  0.1460
  880YOPE   C4B12850   9.595   4.605   7.839  0.2514  0.0049 -0.0287
  881YOPE   NH312851   9.593   6.096   6.086  0.0886 -0.2043 -0.1358
  881YOPE   PO412852   9.115   6.156   5.981 -0.1433  0.0056 -0.0526
  881YOPE   GL112853   8.842   6.170   6.300  0.0172  0.1313  0.0653
  881YOPE   GL212854   8.967   5.903   6.459 -0.2052  0.0434 -0.0380
  881YOPE   C1A12855   8.762   6.278   6.780 -0.0494 -0.2598 -0.1436
  881YOPE   D2A12856   8.378   6.265   7.024  0.2183 -0.0050  0.0210
  881YOPE   C3A12857   8.426   6.049   7.345  0.0408  0.1099  0.0968
  881YOPE   C4A12858   8.589   5.762   7.609 -0.1955 -0.2324 -0.1469
  881YOPE   C1B12859   8.896   5.595   6.728 -0.3952  0.1899 -0.2147
  881YOPE   C2B12860   8.911   5.244   6.978  0.0841 -0.1438 -0.1206
  881YOPE   D3B12861   8.618   5.060   7.117  0.1428 -0.0174 -0.0885
  881YOPE   C4B12862   8.159   5.142   7.153  0.3876  0.2011 -0.0761
  882POPC   NC312863  14.227  11.784   6.006  0.3255 -0.0269  0.0871
  882POPC   PO412864  13.890  11.949   5.898 -0.1056  0.0448 -0.1530
  882POPC   GL112865  13.595  11.768   6.190  0.0493  0.4080  0.1822
  882POPC   GL212866  13.222  11.718   6.149 -0.1787  0.1258  0.0139
  882POPC   C1A12867  13.535  11.552   6.631  0.0212  0.0931 -0.1240
  882POPC   D2A12868  13.403  11.259   6.848 -0.1335 -0.0517 -0.0032
  882POPC   C3A12869  13.404  11.144   7.288 -0.0203 -0.0086  0.1218
  882POPC   C4A12870  13.459  10.887   7.653 -0.0983 -0.0373 -0.2883
  882POPC   C1B12871  13.120  11.909   6.452  0.3152 -0.0054  0.2282
  882POPC   C2B12872  13.030  11.788   6.876  0.2209  0.2206  0.0296
  882POPC   C3B12873  13.071  11.843   7.295 -0.0854  0.2277  0.0243
  882POPC   C4B12874  12.857  12.004   7.731  0.1104  0.0419 -0.1410
  883POPC   NC312875  14.291   3.501   6.028 -0.1263  0.2144 -0.0800
  883POPC   PO412876  14.643   3.587   6.293 -0.0329  0.0189 -0.2811
  883POPC   GL112877  14.517   3.724   6.733 -0.2014  0.1503  0.1754
  883POPC   GL212878  14.351   3.961   6.764 -0.1312  0.2471 -0.0166
  883POPC   C1A12879  14.658   3.741   7.112  0.1115  0.0749  0.1208
  883POPC   D2A12880  14.747   3.515   7.543  0.0423  0.1514  0.1630
  883POPC   C3A12881  14.528   3.372   7.989  0.0137 -0.0210 -0.1366
  883POPC   C4A12882  14.553   3.058   8.235 -0.0071  0.1641  0.0897
  883POPC   C1B12883  14.293   4.123   7.195 -0.1173  0.0622 -0.3204
  883POPC   C2B12884  14.158   4.361   7.529  0.0627 -0.1907  0.2342
  883POPC   C3B12885  14.183   4.557   7.926  0.3998 -0.3755 -0.3010
  883POPC   C4B12886  14.101   4.836   8.297  0.1850  0.3199  0.0706
  884POPC   NC312887   4.982   6.034   5.699  0.1090  0.1231 -0.3801
  884POPC   PO412888   4.621   5.713   5.918  0.1098  0.1794  0.1349
  884POPC   GL112889   4.842   5.595   6.260  0.0975  0.0118  0.2903
  884POPC   GL212890   4.518   5.509   6.483 -0.2812  0.2230  0.1307
  884POPC   C1A12891   5.166   5.590   6.424  0.0059 -0.0242  0.0938
  884POPC   D2A12892   5.160   5.693   6.876  0.3424  0.1780 -0.3885
  884POPC   C3A12893   5.204   5.331   7.214  0.1832 -0.0948 -0.0838
  884POPC   C4A12894   5.392   4.968   7.222 -0.1780  0.2118  0.0380
  884POPC   C1B12895   4.521   5.512   6.948 -0.1347 -0.2283 -0.1251
  884POPC   C2B12896   4.770   5.670   7.236  0.3643  0.0234 -0.0156
  884POPC   C3B12897   5.081   5.846   7.504 -0.0049  0.0220 -0.0011
  884POPC   C4B12898   5.217   5.989   7.962 -0.0433  0.1412  0.1496
  885POPC   NC312899  12.225   7.500   6.126 -0.0556  0.0354 -0.1994
  885POPC   PO412900  11.781   7.897   6.297  0.1442 -0.2986  0.3794
  885POPC   GL112901  11.528   7.705   6.606 -0.1313 -0.1515 -0.2116
  885POPC   GL212902  11.259   7.394   6.436  0.1495  0.0795  0.0658
  885POPC   C1A12903  11.342   7.679   7.058 -0.0839 -0.1828 -0.1413
  885POPC   D2A12904  11.381   7.836   7.461 -0.3092  0.0813  0.0868
  885POPC   C3A12905  11.180   7.939   7.811 -0.0854 -0.0229  0.0656
  885POPC   C4A12906  11.067   8.345   8.027 -0.1051 -0.1057 -0.0091
  885POPC   C1B12907  11.520   7.234   6.743 -0.0570  0.1276  0.1995
  885POPC   C2B12908  11.542   7.171   7.173  0.3478 -0.1548 -0.0581
  885POPC   C3B12909  11.256   7.311   7.472 -0.3202  0.4000  0.3176
  885POPC   C4B12910  10.886   7.536   7.606 -0.3165  0.1634 -0.3266
  886POPC   NC312911  10.048   5.496   5.616  0.0336 -0.2486 -0.1201
  886POPC   PO412912  10.022   5.111   5.839  0.2755 -0.0200  0.2294
  886POPC   GL112913  10.233   5.226   6.162  0.0078 -0.0631  0.0843
  886POPC   GL212914  10.204   5.588   6.130  0.0077 -0.0244 -0.3970
  886POPC   C1A12915  10.288   5.226   6.560  0.0215 -0.2579  0.0578
  886POPC   D2A12916  10.309   5.344   6.985  0.1729  0.0972  0.2984
  886POPC   C3A12917  10.378   5.221   7.376 -0.0017  0.1365  0.0326
  886POPC   C4A12918  10.345   5.303   7.826  0.0534 -0.0044  0.3536
  886POPC   C1B12919   9.920   5.610   6.486  0.0204  0.1754 -0.0625
  886POPC   C2B12920   9.876   5.562   6.991 -0.1504  0.0236  0.1380
  886POPC   C3B12921   9.630   5.751   7.243  0.2014  0.0269  0.2702
  886POPC   C4B12922   9.433   5.733   7.603  0.0874 -0.1074  0.1427
  887POPC   NC312923   9.602  12.394   5.441  0.3649 -0.3245  0.0468
  887POPC   PO412924   9.488  11.841   5.411  0.0980  0.2014 -0.1445
  887POPC   GL112925   9.377  11.693   5.823 -0.1401 -0.1922  0.1258
  887POPC   GL212926   9.262  11.403   5.776 -0.4393 -0.1636  0.0347
  887POPC   C1A12927   9.521  11.557   6.214  0.0384 -0.3520  0.0454
  887POPC   D2A12928   9.524  11.209   6.538 -0.0028 -0.3323 -0.0686
  887POPC   C3A12929   9.166  11.135   6.787 -0.0479 -0.1618  0.1969
  887POPC   C4A12930   8.789  11.023   7.024 -0.0457 -0.3238  0.2174
  887POPC   C1B12931   9.214  11.140   6.101 -0.3090 -0.1974  0.4024
  887POPC   C2B12932   9.058  10.874   6.408 -0.1303  0.1423  0.0146
  887POPC   C3B12933   9.025  10.602   6.790  0.0004 -0.0476  0.1423
  887POPC   C4B12934   8.732  10.497   7.166  0.1411  0.1785  0.0612
  888POPC   NC312935   4.584   3.967   5.627 -0.2000 -0.2711  0.0082
  888POPC   PO412936   4.711   3.805   6.020 -0.1770  0.1996 -0.0827
  888POPC   GL112937   4.507   3.814   6.323 -0.1138  0.0922 -0.0073
  888POPC   GL212938   4.146   3.663   6.357 -0.3744 -0.1031 -0.3078
  888POPC   C1A12939   4.489   3.435   6.606  0.3056  0.0345  0.0330
  888POPC   D2A12940   4.221   3.038   6.613  0.1765  0.2894  0.0698
  888POPC   C3A12941   4.083   2.754   6.911 -0.0448 -0.1107  0.2580
  888POPC   C4A12942   4.338   2.564   7.210 -0.0503 -0.2340 -0.1569
  888POPC   C1B12943   4.135   3.724   6.804 -0.2393  0.0152  0.1952
  888POPC   C2B12944   4.438   3.590   7.076  0.2296 -0.2587 -0.1840
  888POPC   C3B12945   4.635   3.396   7.502 -0.1377  0.2489 -0.0798
  888POPC   C4B12946   4.597   3.233   7.932  0.1706  0.0504  0.0740
  889POPC   NC312947   0.036   5.315   6.393  0.1032 -0.0808 -0.1671
  889POPC   PO412948  -0.236   4.984   6.303  0.3184  0.1830  0.3703
  889POPC   GL112949  -0.258   4.959   6.761 -0.0875 -0.0756  0.1224
  889POPC   GL212950   0.030   5.105   6.919  0.2354 -0.0802  0.2040
  889POPC   C1A12951  -0.366   4.764   7.149 -0.3212 -0.1947  0.1924
  889POPC   D2A12952  -0.475   4.611   7.524 -0.0968  0.2108 -0.2688
  889POPC   C3A12953  -0.394   4.686   7.961  0.0982  0.0675  0.1971
  889POPC   C4A12954  -0.128   4.670   8.344  0.0355 -0.0298  0.3760
  889POPC   C1B12955   0.061   4.894   7.306  0.0682  0.1584  0.4997
  889POPC   C2B12956   0.080   4.590   7.697  0.2338  0.3049  0.1066
  889POPC   C3B12957  -0.043   4.266   8.028 -0.0724  0.1361  0.2964
  889POPC   C4B12958   0.213   3.948   8.174 -0.0718 -0.2008 -0.0898
  890POPC   NC312959   4.391   5.303   6.050 -0.1096 -0.0674  0.2876
  890POPC   PO412960   4.004   5.301   5.856  0.2987  0.1084  0.2685
  890POPC   GL112961   3.999   5.316   6.289 -0.0710 -0.0857 -0.0729
  890POPC   GL212962   4.188   5.078   6.483  0.0425  0.0302  0.3124
  890POPC   C1A12963   3.981   5.513   6.802  0.1319 -0.1398 -0.2401
  890POPC   D2A12964   3.833   5.757   7.201 -0.0085 -0.1827  0.3935
  890POPC   C3A12965   3.783   5.603   7.630 -0.1480 -0.0705 -0.1619
  890POPC   C4A12966   3.689   5.303   7.975  0.2608  0.3209  0.1216
  890POPC   C1B12967   4.328   5.041   6.818 -0.2267 -0.2163 -0.1762
  890POPC   C2B12968   4.287   5.026   7.218 -0.0009 -0.1967 -0.1764
  890POPC   C3B12969   4.167   5.388   7.393 -0.1361 -0.0687  0.1502
  890POPC   C4B12970   4.251   5.834   7.407 -0.0381 -0.0144 -0.3276
  891POPC   NC312971   1.701   6.203   5.979 -0.3437 -0.1256 -0.2698
  891POPC   PO412972   1.884   5.805   5.740 -0.1024 -0.1146  0.0016
  891POPC   GL112973   1.846   5.697   6.122 -0.0994  0.0049  0.0632
  891POPC   GL212974   1.680   5.376   6.096  0.2181 -0.0883  0.1078
  891POPC   C1A12975   1.823   5.601   6.505 -0.0470  0.2684 -0.1018
  891POPC   D2A12976   1.904   5.443   6.968 -0.2309 -0.0526 -0.1537
  891POPC   C3A12977   1.850   5.670   7.397 -0.0263  0.0064  0.1345
  891POPC   C4A12978   2.232   5.986   7.470 -0.0050 -0.0838 -0.1070
  891POPC   C1B12979   1.422   5.310   6.439 -0.0177 -0.0208  0.2273
  891POPC   C2B12980   1.248   5.473   6.787 -0.1497  0.0088 -0.1341
  891POPC   C3B12981   0.926   5.366   7.140 -0.1316 -0.0973 -0.0960
  891POPC   C4B12982   0.881   5.191   7.560 -0.0053  0.2416  0.1876
  892POPC   NC312983   3.987   0.121   5.888  0.2379  0.0689  0.2716
  892POPC   PO412984   3.628   0.415   5.837 -0.1324  0.0420 -0.1094
  892POPC   GL112985   3.937   0.522   6.166  0.1078 -0.1052 -0.2945
  892POPC   GL212986   3.786   0.693   6.396  0.1295 -0.0926  0.1375
  892POPC   C1A12987   4.125   0.432   6.479 -0.0720  0.2634  0.2323
  892POPC   D2A12988   4.042   0.423   6.905  0.2304 -0.2033  0.0979
  892POPC   C3A12989   3.885   0.474   7.399  0.1063  0.0602  0.1683
  892POPC   C4A12990   3.776   0.185   7.605 -0.3120 -0.0884  0.1220
  892POPC   C1B12991   3.626   0.329   6.574 -0.0696 -0.0579  0.0521
  892POPC   C2B12992   3.567   0.283   7.011  0.2163  0.0306 -0.1958
  892POPC   C3B12993   3.388   0.523   7.359 -0.1006 -0.1056  0.1219
  892POPC   C4B12994   3.369   0.884   7.549  0.1514  0.1750 -0.0074
  893POPC   NC312995   9.264  17.921   5.729  0.2060  0.3619  0.0755
  893POPC   PO412996   8.947  17.617   6.042  0.0543  0.0516 -0.1468
  893POPC   GL112997   8.875  17.652   6.489 -0.1222  0.0227  0.1699
  893POPC   GL212998   8.985  17.497   6.734 -0.0426  0.0597  0.0196
  893POPC   C1A12999   8.501  17.594   6.825 -0.1831 -0.0408 -0.0505
  893POPC   D2A13000   8.415  17.457   7.260  0.1100  0.0334  0.0806
  893POPC   C3A13001   8.180  17.362   7.636  0.2868 -0.0003 -0.0703
  893POPC   C4A13002   8.073  17.552   7.967 -0.1078 -0.1422 -0.3775
  893POPC   C1B13003   8.909  17.466   7.145  0.0109  0.2084  0.0576
  893POPC   C2B13004   9.047  17.427   7.548 -0.0507 -0.0654  0.4655
  893POPC   C3B13005   9.524  17.427   7.821 -0.0470  0.0778  0.2114
  893POPC   C4B13006   9.532  17.464   8.286 -0.3786  0.0592  0.1574
  894POPC   NC313007  13.439  14.528   6.000  0.0698  0.3104  0.4156
  894POPC   PO413008  13.221  14.541   6.252  0.0820 -0.1859  0.0932
  894POPC   GL113009  13.138  14.405   6.637 -0.0047  0.2733 -0.1431
  894POPC   GL213010  13.271  14.161   6.612  0.0474 -0.0156 -0.1213
  894POPC   C1A13011  12.714  14.328   6.751  0.1364  0.0845  0.2488
  894POPC   D2A13012  12.298  14.122   6.797  0.2089 -0.1523 -0.1386
  894POPC   C3A13013  12.023  13.993   7.218  0.3419 -0.3638 -0.0918
  894POPC   C4A13014  11.708  13.752   7.364  0.3986 -0.0273  0.0188
  894POPC   C1B13015  13.070  14.143   7.087 -0.1363 -0.0129  0.2110
  894POPC   C2B13016  13.086  14.160   7.450  0.0299  0.1038  0.1373
  894POPC   C3B13017  13.228  14.140   7.734 -0.0914 -0.1226 -0.1028
  894POPC   C4B13018  13.351  14.184   8.222  0.2040  0.0398  0.1655
  895POPC   NC313019   9.154   7.573   6.141  0.0789 -0.1498  0.0077
  895POPC   PO413020   9.476   7.308   6.232 -0.3054 -0.0460  0.0361
  895POPC   GL113021   9.240   7.321   6.572 -0.2394 -0.4393  0.0979
  895POPC   GL213022   9.187   7.682   6.614 -0.2416 -0.1907  0.3865
  895POPC   C1A13023   9.268   7.215   6.958  0.1579 -0.4624  0.0625
  895POPC   D2A13024   9.012   7.122   7.219 -0.3094 -0.0507 -0.2883
  895POPC   C3A13025   9.171   7.213   7.635  0.0978  0.1167  0.5989
  895POPC   C4A13026   9.340   7.585   7.797  0.1924 -0.2592 -0.1732
  895POPC   C1B13027   8.972   8.045   6.991  0.5354  0.1907  0.1434
  895POPC   C2B13028   8.910   8.374   7.218 -0.0320 -0.0394  0.1536
  895POPC   C3B13029   9.097   8.523   7.625  0.1529  0.3701 -0.2304
  895POPC   C4B13030   8.966   8.946   7.920  0.3869 -0.1013  0.2927
  896POPC   NC313031   0.011   5.528   5.613 -0.1849  0.1873 -0.0162
  896POPC   PO413032   0.317   5.388   5.944  0.1810 -0.0239  0.1954
  896POPC   GL113033   0.560   5.342   6.359  0.3325 -0.2326  0.4119
  896POPC   GL213034   0.802   5.197   6.386  0.0200 -0.0278 -0.0203
  896POPC   C1A13035   0.540   5.454   6.861 -0.2666  0.0048  0.2992
  896POPC   D2A13036   0.488   5.143   7.258 -0.0234  0.1493  0.2693
  896POPC   C3A13037   0.383   5.303   7.675 -0.3900  0.1007  0.0460
  896POPC   C4A13038   0.572   5.172   8.035 -0.2575 -0.0512 -0.0532
  896POPC   C1B13039   0.813   5.001   6.849  0.0626  0.0244  0.1925
  896POPC   C2B13040   0.896   4.710   7.259 -0.2754  0.0128  0.0035
  896POPC   C3B13041   1.020   4.678   7.683 -0.1296 -0.0081 -0.2617
  896POPC   C4B13042   1.316   4.613   8.120 -0.1245 -0.1746  0.3340
  897POPC   NC313043   6.599   4.921   5.605 -0.1031 -0.2309  0.1002
  897POPC   PO413044   6.787   5.070   5.967 -0.1458  0.2035  0.1323
  897POPC   GL113045   6.641   5.204   6.423 -0.0424 -0.2783 -0.1319
  897POPC   GL213046   6.888   5.383   6.421 -0.1570 -0.1637  0.1884
  897POPC   C1A13047   6.669   5.246   6.874  0.0425  0.1925 -0.0114
  897POPC   D2A13048   6.575   5.297   7.191  0.1825 -0.1146 -0.2105
  897POPC   C3A13049   6.266   5.104   7.324 -0.0157  0.2793 -0.1744
  897POPC   C4A13050   5.894   5.104   7.380  0.1084 -0.1551  0.1175
  897POPC   C1B13051   7.110   5.125   6.569  0.1651  0.3258 -0.0522
  897POPC   C2B13052   7.423   5.383   6.625  0.1420  0.0616 -0.1420
  897POPC   C3B13053   7.955   5.354   6.602 -0.1448  0.0775 -0.2899
  897POPC   C4B13054   8.440   5.282   6.709 -0.1128 -0.0298 -0.0475
  898POPC   NC313055   6.159  11.212   5.215  0.1840 -0.2154 -0.0466
  898POPC   PO413056   6.313  11.581   5.333  0.1050  0.0695  0.1423
  898POPC   GL113057   6.284  11.474   5.747 -0.1552  0.0716 -0.1897
  898POPC   GL213058   6.226  11.739   5.982 -0.5738  0.0731  0.0662
  898POPC   C1A13059   6.201  11.140   6.022 -0.0038  0.0556  0.0589
  898POPC   D2A13060   5.863  10.768   6.126  0.3908  0.1013 -0.0078
  898POPC   C3A13061   5.752  10.463   6.474  0.0370  0.1011  0.1579
  898POPC   C4A13062   5.883  10.144   6.787 -0.3076 -0.2734 -0.0512
  898POPC   C1B13063   6.341  11.754   6.405  0.0796 -0.0299  0.2944
  898POPC   C2B13064   6.617  11.563   6.735 -0.1557 -0.0999 -0.3811
  898POPC   C3B13065   6.820  11.886   7.083 -0.0951 -0.0681  0.0109
  898POPC   C4B13066   7.055  12.309   7.152  0.4126  0.2633  0.0353
  899POPC   NC313067  13.936   8.869   5.946  0.1459 -0.3632  0.0464
  899POPC   PO413068  13.715   8.427   6.057 -0.0740 -0.1059  0.0163
  899POPC   GL113069  13.542   8.342   6.474 -0.0142  0.0062  0.0239
  899POPC   GL213070  13.330   8.174   6.713  0.1510 -0.1296 -0.0141
  899POPC   C1A13071  13.554   8.573   6.852  0.1593 -0.1044  0.0846
  899POPC   D2A13072  13.552   8.609   7.273  0.0940 -0.0403 -0.2404
  899POPC   C3A13073  13.944   9.008   7.395 -0.0117 -0.0355  0.1096
  899POPC   C4A13074  14.103   9.450   7.653  0.0981  0.0024 -0.0306
  899POPC   C1B13075  13.124   8.035   7.110 -0.0083  0.0219 -0.1624
  899POPC   C2B13076  13.131   8.075   7.593 -0.1987 -0.3986  0.1042
  899POPC   C3B13077  13.001   8.171   7.914 -0.0752 -0.1444 -0.1151
  899POPC   C4B13078  13.027   8.385   8.307  0.0725 -0.0022 -0.3647
  900POPC   NC313079   3.772   3.947   5.863 -0.0528  0.2178 -0.3339
  900POPC   PO413080   4.133   4.158   6.078  0.0483  0.2407 -0.1381
  900POPC   GL113081   4.341   4.323   6.465 -0.1025 -0.1410  0.0073
  900POPC   GL213082   4.327   4.615   6.597  0.0965  0.1916  0.0660
  900POPC   C1A13083   4.455   4.096   6.876 -0.2469 -0.1637  0.4584
  900POPC   D2A13084   4.626   4.032   7.291  0.3332  0.2443 -0.0549
  900POPC   C3A13085   4.855   4.238   7.561  0.0054 -0.2940  0.0570
  900POPC   C4A13086   5.203   4.140   7.756 -0.2154 -0.0454  0.0633
  900POPC   C1B13087   4.422   4.563   6.926  0.2540  0.0887 -0.1511
  900POPC   C2B13088   4.460   4.532   7.346  0.1184 -0.0930 -0.1113
  900POPC   C3B13089   4.481   4.853   7.649 -0.0488  0.0762 -0.0707
  900POPC   C4B13090   4.443   4.825   8.150  0.1220  0.1024  0.0999
  901POPC   NC313091   5.902   1.944   5.765 -0.0263 -0.0437 -0.0145
  901POPC   PO413092   6.284   2.020   6.008  0.3444  0.1010  0.0961
  901POPC   GL113093   5.966   2.167   6.254  0.0135  0.0191  0.0097
  901POPC   GL213094   5.785   1.874   6.291 -0.1204  0.3194 -0.0999
  901POPC   C1A13095   5.532   2.313   6.529  0.1617 -0.1779  0.0472
  901POPC   D2A13096   5.141   2.573   6.647  0.0431 -0.1291  0.2584
  901POPC   C3A13097   4.939   2.397   6.755  0.2854 -0.0753  0.1176
  901POPC   C4A13098   4.872   2.460   7.169 -0.0897 -0.0673 -0.1059
  901POPC   C1B13099   5.903   1.924   6.656 -0.1630  0.0310  0.2752
  901POPC   C2B13100   5.869   1.793   7.009 -0.0202 -0.2641 -0.1678
  901POPC   C3B13101   5.649   1.573   7.304 -0.0448  0.2029 -0.0157
  901POPC   C4B13102   5.270   1.772   7.660 -0.1493  0.0119  0.0727
  902POPC   NC313103  17.598  17.246   6.376 -0.0260 -0.0257 -0.3708
  902POPC   PO413104  17.180  17.482   6.330  0.1193  0.0051 -0.0484
  902POPC   GL113105  16.966  17.343   6.623 -0.1532 -0.2325  0.2556
  902POPC   GL213106  16.623  17.355   6.480 -0.1006 -0.0440  0.0040
  902POPC   C1A13107  17.003  17.242   7.014  0.0700 -0.1112  0.1172
  902POPC   D2A13108  17.267  17.028   7.398  0.0452 -0.0242  0.0624
  902POPC   C3A13109  17.643  17.051   7.583 -0.0214 -0.2244  0.2685
  902POPC   C4A13110  17.943  17.422   7.800 -0.0340  0.1228  0.3613
  902POPC   C1B13111  16.293  17.358   6.885  0.2586 -0.1371 -0.2357
  902POPC   C2B13112  15.865  17.263   7.099 -0.2063 -0.3612 -0.3105
  902POPC   C3B13113  15.607  16.965   7.430  0.2604  0.2009 -0.0545
  902POPC   C4B13114  15.505  16.694   7.674 -0.0932 -0.0333  0.4427
  903POPC   NC313115   7.483   7.068   5.737  0.0723 -0.0712  0.2159
  903POPC   PO413116   7.728   7.382   5.734 -0.1487  0.0574  0.0393
  903POPC   GL113117   7.674   7.632   6.172  0.0502 -0.1172  0.2899
  903POPC   GL213118   7.747   7.885   6.320  0.1086  0.2237 -0.2453
  903POPC   C1A13119   7.448   7.595   6.608 -0.3027  0.0110  0.0617
  903POPC   D2A13120   7.225   7.557   6.867 -0.0938 -0.1026 -0.0918
  903POPC   C3A13121   7.319   7.199   7.201  0.1212  0.0286 -0.1259
  903POPC   C4A13122   7.109   6.949   7.519 -0.2278 -0.3893 -0.1023
  903POPC   C1B13123   8.159   7.669   6.541 -0.0415  0.2639  0.2780
  903POPC   C2B13124   8.322   7.681   6.935 -0.0585  0.0785 -0.0836
  903POPC   C3B13125   8.458   7.789   7.262 -0.0556  0.2193 -0.2850
  903POPC   C4B13126   8.813   7.580   7.607 -0.0179  0.1687 -0.3788
  904POPC   NC313127  14.978  13.551   5.892 -0.0392  0.2259 -0.2535
  904POPC   PO413128  14.756  13.414   6.263  0.0841  0.1106 -0.0771
  904POPC   GL113129  14.981  13.362   6.667  0.5872  0.0507 -0.0101
  904POPC   GL213130  15.236  13.166   6.661 -0.2587 -0.2786 -0.1536
  904POPC   C1A13131  15.121  13.650   6.973 -0.2350 -0.0652  0.0540
  904POPC   D2A13132  15.028  14.038   7.313 -0.1107  0.0639  0.0328
  904POPC   C3A13133  15.032  13.860   7.734  0.1095  0.2039 -0.4008
  904POPC   C4A13134  14.823  13.555   8.015  0.2212 -0.0951 -0.1257
  904POPC   C1B13135  15.484  13.217   7.051 -0.0192 -0.2254  0.2274
  904POPC   C2B13136  15.579  13.392   7.335 -0.2731 -0.0023 -0.0531
  904POPC   C3B13137  15.425  13.751   7.411  0.0871  0.0153 -0.1317
  904POPC   C4B13138  15.512  14.122   7.277 -0.0195  0.0905 -0.2823
  905POPC   NC313139   9.069   8.646   5.477  0.1475 -0.0605 -0.1583
  905POPC   PO413140   9.040   8.427   5.927 -0.0013 -0.1335  0.1309
  905POPC   GL113141   8.897   8.436   6.312  0.1597 -0.0527  0.0137
  905POPC   GL213142   9.075   8.152   6.404 -0.1807  0.0752 -0.1045
  905POPC   C1A13143   8.701   8.619   6.703 -0.0901 -0.3852  0.3747
  905POPC   D2A13144   8.505   8.771   7.070 -0.1163  0.0419  0.0444
  905POPC   C3A13145   8.376   8.487   7.399 -0.1661 -0.0844  0.1299
  905POPC   C4A13146   8.227   8.264   7.662 -0.1743 -0.2832 -0.3651
  905POPC   C1B13147   9.390   8.107   6.705  0.2175  0.2474  0.0402
  905POPC   C2B13148   9.413   8.147   7.185  0.0047  0.0886  0.0690
  905POPC   C3B13149   9.092   8.025   7.561  0.0522  0.0676  0.1635
  905POPC   C4B13150   8.662   8.073   7.713 -0.3335  0.2190  0.5539
  906POPC   NC313151   2.038   3.949   6.375  0.0317  0.1654 -0.0970
  906POPC   PO413152   2.180   3.494   6.508  0.1297 -0.4797 -0.3185
  906POPC   GL113153   2.245   3.437   6.909  0.3181 -0.1183 -0.0158
  906POPC   GL213154   2.577   3.396   6.950 -0.0856  0.0805  0.2183
  906POPC   C1A13155   2.164   3.718   7.367 -0.0291  0.0754 -0.3047
  906POPC   D2A13156   1.868   3.588   7.640 -0.0484 -0.0855 -0.1115
  906POPC   C3A13157   2.048   3.421   7.975  0.1120  0.0381  0.0532
  906POPC   C4A13158   2.245   3.036   8.116 -0.0877  0.2458  0.1959
  906POPC   C1B13159   2.664   3.510   7.282 -0.1572 -0.1881 -0.0973
  906POPC   C2B13160   2.990   3.507   7.534 -0.3530 -0.1308 -0.1113
  906POPC   C3B13161   3.243   3.434   7.922  0.0650 -0.0044  0.0741
  906POPC   C4B13162   3.026   3.702   8.374 -0.1654  0.2175 -0.1190
  907POPC   NC313163   3.914   2.903   6.237  0.1288 -0.2317  0.1229
  907POPC   PO413164   3.831   3.279   6.117  0.0540  0.1061 -0.5018
  907POPC   GL113165   3.720   3.256   6.570  0.1240  0.0752  0.3223
  907POPC   GL213166   3.450   3.251   6.747  0.1227  0.0622  0.1009
  907POPC   C1A13167   3.916   3.309   7.036 -0.0650 -0.1033  0.1285
  907POPC   D2A13168   4.066   3.403   7.388  0.0221 -0.0683 -0.1985
  907POPC   C3A13169   4.222   3.723   7.584 -0.3119  0.1700 -0.1236
  907POPC   C4A13170   4.180   3.665   8.038  0.2043 -0.3204  0.0566
  907POPC   C1B13171   3.530   3.742   6.742  0.1311 -0.1152 -0.0743
  907POPC   C2B13172   3.637   3.977   7.084 -0.3291 -0.1599  0.0291
  907POPC   C3B13173   3.763   3.806   7.473  0.0358 -0.0856 -0.2915
  907POPC   C4B13174   3.728   3.625   7.871 -0.0250  0.3870  0.0418
  908POPC   NC313175   5.073   7.600   5.803  0.2733  0.2957  0.0053
  908POPC   PO413176   4.764   7.389   5.851 -0.3350  0.2015  0.1184
  908POPC   GL113177   4.965   7.252   6.214 -0.0752 -0.1242 -0.1941
  908POPC   GL213178   5.203   7.107   6.248 -0.0337 -0.2007  0.2054
  908POPC   C1A13179   4.898   7.393   6.719 -0.2829  0.0452 -0.0639
  908POPC   D2A13180   4.819   7.561   7.137 -0.1149  0.0771  0.2736
  908POPC   C3A13181   4.469   7.807   7.258 -0.3454 -0.3386 -0.1869
  908POPC   C4A13182   4.094   8.042   7.359  0.3083 -0.1667 -0.0168
  908POPC   C1B13183   5.413   6.932   6.714 -0.0612 -0.2085  0.0469
  908POPC   C2B13184   5.179   7.103   7.097 -0.4501 -0.0404  0.1810
  908POPC   C3B13185   4.811   7.134   7.395  0.1112  0.0481  0.2624
  908POPC   C4B13186   4.432   7.272   7.182 -0.0900 -0.2051 -0.2217
  909POPC   NC313187  14.201   8.479   6.053 -0.2090  0.0394  0.1648
  909POPC   PO413188  14.039   8.496   6.430 -0.0723  0.3005 -0.1865
  909POPC   GL113189  14.005   8.189   6.671  0.1060 -0.2232 -0.1885
  909POPC   GL213190  13.746   7.888   6.615 -0.0663  0.1408  0.1724
  909POPC   C1A13191  14.180   8.064   7.020 -0.1051 -0.1407 -0.0476
  909POPC   D2A13192  14.111   7.901   7.407 -0.1009  0.3178 -0.0179
  909POPC   C3A13193  14.168   8.032   7.798 -0.0463  0.3389 -0.1918
  909POPC   C4A13194  13.942   8.343   7.998  0.0842 -0.0765 -0.5380
  909POPC   C1B13195  13.599   8.009   7.064 -0.3762 -0.1271 -0.0619
  909POPC   C2B13196  13.691   8.169   7.524 -0.1597  0.1952 -0.1388
  909POPC   C3B13197  13.596   8.005   7.865  0.3703 -0.0087  0.2353
  909POPC   C4B13198  13.824   7.809   8.224 -0.3516  0.0268  0.2096
  910POPC   NC313199  12.067   5.677   5.806 -0.0516  0.0753  0.5544
  910POPC   PO413200  12.021   5.834   6.221 -0.0673 -0.3164 -0.1105
  910POPC   GL113201  11.909   5.929   6.649  0.2236  0.0775 -0.2597
  910POPC   GL213202  11.713   6.189   6.534 -0.1732  0.0694 -0.0370
  910POPC   C1A13203  11.543   5.850   6.910  0.1474 -0.0621 -0.1365
  910POPC   D2A13204  11.417   6.058   7.352  0.0239  0.2801  0.3189
  910POPC   C3A13205  11.682   5.923   7.799 -0.1088 -0.1109  0.2027
  910POPC   C4A13206  11.267   5.854   8.049 -0.3188  0.0543  0.1290
  910POPC   C1B13207  11.674   6.323   6.977  0.4762 -0.0944  0.0864
  910POPC   C2B13208  11.794   6.340   7.361 -0.0766  0.1703  0.1702
  910POPC   C3B13209  11.818   6.412   7.878 -0.0852  0.0633  0.1282
  910POPC   C4B13210  12.153   6.261   8.228  0.0202 -0.2458  0.1601
  911POPC   NC313211  14.189  17.694   6.122  0.0828 -0.0539 -0.3998
  911POPC   PO413212  14.328  17.250   6.455  0.3385 -0.2011  0.0476
  911POPC   GL113213  14.468  17.267   6.936 -0.0378  0.3452  0.1747
  911POPC   GL213214  14.828  17.234   6.998 -0.0709 -0.0029 -0.2984
  911POPC   C1A13215  14.511  17.588   7.286 -0.2417  0.2749  0.0112
  911POPC   D2A13216  14.523  17.922   7.607  0.4326 -0.0093 -0.0654
  911POPC   C3A13217  14.223  17.799   7.891 -0.1953  0.1199  0.0321
  911POPC   C4A13218  14.211  17.454   8.259  0.1973  0.0686  0.0039
  911POPC   C1B13219  15.083  17.206   7.368 -0.1719 -0.0036  0.1375
  911POPC   C2B13220  15.143  17.037   7.816 -0.2350 -0.0567  0.0700
  911POPC   C3B13221  14.944  16.847   8.126 -0.1810 -0.0793  0.1449
  911POPC   C4B13222  15.048  17.038   8.619  0.1030  0.0452 -0.2292
  912POPC   NC313223   3.560   5.289   5.702  0.0974 -0.2540 -0.2924
  912POPC   PO413224   3.674   4.992   6.149  0.0678  0.0956 -0.0571
  912POPC   GL113225   3.419   4.953   6.567  0.1726 -0.1653  0.0960
  912POPC   GL213226   3.335   4.590   6.682  0.0875  0.0584 -0.0226
  912POPC   C1A13227   3.514   4.962   7.007  0.0748  0.2725 -0.1433
  912POPC   D2A13228   3.694   5.247   7.263  0.0360 -0.2409  0.1460
  912POPC   C3A13229   3.323   5.299   7.484  0.0156  0.2440  0.0612
  912POPC   C4A13230   3.038   5.485   7.675  0.0247 -0.0120 -0.2731
  912POPC   C1B13231   3.492   4.459   7.146 -0.0192  0.2849  0.2576
  912POPC   C2B13232   3.707   4.264   7.571 -0.0564 -0.2487  0.0118
  912POPC   C3B13233   3.918   4.118   7.933  0.1420 -0.2907 -0.0202
  912POPC   C4B13234   4.217   4.172   8.155 -0.0525 -0.0350  0.0255
  913POPC   NC313235   4.882  12.363   5.604 -0.0273 -0.0998 -0.0534
  913POPC   PO413236   4.958  12.741   5.460 -0.0995  0.3465  0.2282
  913POPC   GL113237   5.071  12.635   5.944  0.2121 -0.1096  0.2143
  913POPC   GL213238   5.282  12.406   6.073 -0.1295  0.0690 -0.1629
  913POPC   C1A13239   5.237  12.864   6.266 -0.0386  0.2821  0.2821
  913POPC   D2A13240   5.406  13.195   6.462  0.2134 -0.1233  0.0641
  913POPC   C3A13241   5.169  13.174   6.810  0.1618  0.3170  0.2478
  913POPC   C4A13242   4.924  13.283   7.208 -0.1457 -0.1329 -0.2576
  913POPC   C1B13243   5.197  12.354   6.397 -0.0139  0.1229  0.1396
  913POPC   C2B13244   5.357  12.229   6.819 -0.1129  0.1678 -0.0344
  913POPC   C3B13245   5.322  11.848   7.146  0.1303  0.0516  0.1058
  913POPC   C4B13246   5.661  11.823   7.469  0.2340  0.0665  0.1336
  914POPC   NC313247  12.333  14.746   5.838 -0.3306  0.1015 -0.2090
  914POPC   PO413248  11.856  14.672   5.964 -0.1113  0.0223 -0.1829
  914POPC   GL113249  11.928  14.383   6.373  0.0560 -0.0573  0.1393
  914POPC   GL213250  12.068  14.242   6.254 -0.0402 -0.0602 -0.0026
  914POPC   C1A13251  11.864  14.254   6.784 -0.4315 -0.1005 -0.3588
  914POPC   D2A13252  11.659  14.353   7.209 -0.1496 -0.0902  0.2394
  914POPC   C3A13253  11.690  14.162   7.640 -0.2549 -0.2994  0.0391
  914POPC   C4A13254  11.452  14.062   7.967  0.1431 -0.0624  0.0411
  914POPC   C1B13255  12.181  13.819   6.410  0.0805 -0.1187  0.0480
  914POPC   C2B13256  11.960  13.754   6.751 -0.0222  0.4156  0.1616
  914POPC   C3B13257  11.913  13.454   7.048  0.0713  0.0782  0.0995
  914POPC   C4B13258  11.740  13.148   7.338  0.1303 -0.0741 -0.1004
  915POPC   NC313259  16.681   0.347   6.475 -0.0160 -0.0693  0.1743
  915POPC   PO413260  17.068   0.646   6.596 -0.3253 -0.0982  0.0717
  915POPC   GL113261  16.896   0.632   6.936  0.0150  0.0586 -0.0158
  915POPC   GL213262  16.587   0.685   6.829  0.0359  0.0885  0.1671
  915POPC   C1A13263  16.877   0.545   7.357  0.4329 -0.1206  0.0932
  915POPC   D2A13264  16.860   0.735   7.873 -0.0923  0.0036 -0.1666
  915POPC   C3A13265  17.134   0.668   8.196  0.0544  0.4433  0.3020
  915POPC   C4A13266  17.002   0.540   8.622  0.1978 -0.1110  0.0368
  915POPC   C1B13267  16.406   0.757   7.255  0.2240  0.0462 -0.1211
  915POPC   C2B13268  16.350   0.820   7.669 -0.0239 -0.1642 -0.2049
  915POPC   C3B13269  16.369   0.860   8.107  0.1672  0.3078  0.1114
  915POPC   C4B13270  16.763   0.952   8.446 -0.1805  0.0593  0.1381
  916POPC   NC313271   3.577  13.087   5.328 -0.1393 -0.2653 -0.0145
  916POPC   PO413272   3.729  13.180   5.739  0.2814 -0.0101 -0.1017
  916POPC   GL113273   3.708  13.169   6.160  0.0216 -0.0024  0.0378
  916POPC   GL213274   3.733  13.369   6.346 -0.0662 -0.2111  0.0252
  916POPC   C1A13275   3.875  12.931   6.528  0.3995 -0.0902 -0.3143
  916POPC   D2A13276   4.016  12.945   6.977  0.3720 -0.2300  0.3904
  916POPC   C3A13277   3.834  13.099   7.263 -0.0806 -0.2240 -0.3328
  916POPC   C4A13278   3.885  12.919   7.586  0.1040  0.4074 -0.0739
  916POPC   C1B13279   3.446  13.714   6.403 -0.1057 -0.0189 -0.1688
  916POPC   C2B13280   3.203  14.127   6.515 -0.0062 -0.0687  0.0500
  916POPC   C3B13281   2.974  14.499   6.731  0.0356 -0.0683  0.0690
  916POPC   C4B13282   2.751  14.592   6.997  0.0004  0.1779 -0.0202
  917POPC   NC313283   9.273   1.711   6.426 -0.1643 -0.1792  0.0879
  917POPC   PO413284   9.662   1.510   6.181 -0.0440  0.2591 -0.0647
  917POPC   GL113285   9.771   1.587   6.595  0.1142  0.2345 -0.1315
  917POPC   GL213286  10.036   1.597   6.539 -0.0396 -0.3575  0.2208
  917POPC   C1A13287   9.505   1.698   7.074  0.0072 -0.0601 -0.0326
  917POPC   D2A13288   9.406   1.722   7.511  0.2668 -0.2461  0.0456
  917POPC   C3A13289   9.083   1.746   7.803  0.0996 -0.1811 -0.0313
  917POPC   C4A13290   9.088   1.680   8.175  0.2505  0.0182 -0.0229
  917POPC   C1B13291  10.068   1.555   7.034 -0.1730 -0.0037 -0.1397
  917POPC   C2B13292  10.125   1.515   7.358 -0.2213  0.0066  0.0810
  917POPC   C3B13293  10.487   1.557   7.544 -0.1959 -0.2225 -0.0658
  917POPC   C4B13294  10.964   1.597   7.508  0.1392  0.0127 -0.0165
  918POPC   NC313295   6.328  16.236   6.260  0.0397 -0.1263 -0.0043
  918POPC   PO413296   5.903  16.038   6.243 -0.0088 -0.0210 -0.1595
  918POPC   GL113297   5.954  16.076   6.636 -0.3588 -0.2304 -0.2731
  918POPC   GL213298   6.193  15.891   6.637  0.0959 -0.2282  0.2068
  918POPC   C1A13299   5.957  16.198   7.036  0.1103 -0.0159 -0.0481
  918POPC   D2A13300   5.731  16.461   7.234 -0.1074 -0.0975 -0.1635
  918POPC   C3A13301   5.892  16.723   7.610  0.0692  0.1454 -0.0835
  918POPC   C4A13302   5.940  16.925   8.055  0.0760 -0.0878 -0.1439
  918POPC   C1B13303   6.158  15.674   6.951 -0.4020 -0.2870 -0.1010
  918POPC   C2B13304   6.188  15.252   7.271 -0.1331  0.1806 -0.1239
  918POPC   C3B13305   6.510  15.075   7.577 -0.1769  0.0743 -0.1052
  918POPC   C4B13306   6.888  14.931   7.821 -0.0519  0.0454  0.1771
  919POPC   NC313307  17.943  13.042   6.237 -0.3532  0.0546  0.0096
  919POPC   PO413308  18.267  12.760   6.305 -0.3488  0.1067 -0.1265
  919POPC   GL113309  18.320  12.464   6.609 -0.0428 -0.0585 -0.2154
  919POPC   GL213310  18.192  12.642   6.782 -0.3925 -0.0426  0.1882
  919POPC   C1A13311  18.482  12.225   6.907  0.0632 -0.2742 -0.0730
  919POPC   D2A13312  18.601  12.338   7.296  0.0820 -0.2316 -0.0085
  919POPC   C3A13313  18.704  12.052   7.728  0.0359 -0.3613  0.1827
  919POPC   C4A13314  18.553  11.732   8.037  0.2015  0.1969 -0.1671
  919POPC   C1B13315  18.320  12.734   7.204 -0.0740 -0.0849 -0.0046
  919POPC   C2B13316  18.080  12.541   7.525  0.1254 -0.3717  0.2799
  919POPC   C3B13317  17.700  12.479   7.711 -0.0019 -0.0204 -0.1415
  919POPC   C4B13318  17.432  12.385   7.993  0.0640 -0.1821 -0.0146
  920POPC   NC313319   1.002   8.300   5.949 -0.0482 -0.0150  0.1177
  920POPC   PO413320   1.256   7.982   6.045  0.1808  0.2118 -0.1718
  920POPC   GL113321   1.344   7.970   6.433 -0.1565 -0.1947  0.2455
  920POPC   GL213322   1.561   8.187   6.611 -0.2399  0.0337 -0.4002
  920POPC   C1A13323   1.314   7.671   6.711  0.1470  0.1441 -0.0488
  920POPC   D2A13324   1.051   7.777   7.044 -0.1180  0.1821  0.1235
  920POPC   C3A13325   0.866   7.629   7.417  0.0999 -0.0052  0.0455
  920POPC   C4A13326   0.744   7.297   7.636  0.0225 -0.2744 -0.3705
  920POPC   C1B13327   1.393   8.119   6.970 -0.0802 -0.1170 -0.0265
  920POPC   C2B13328   1.161   8.293   7.263 -0.3039 -0.1850  0.3220
  920POPC   C3B13329   1.012   8.281   7.650  0.0839  0.0135  0.2174
  920POPC   C4B13330   0.775   8.564   7.748 -0.0252 -0.3184 -0.1551
  921POPC   NC313331   7.852  14.502   5.484  0.0395 -0.0462 -0.4957
  921POPC   PO413332   7.962  14.432   5.877 -0.1173  0.1884  0.0950
  921POPC   GL113333   8.198  14.443   6.212  0.5633  0.0534  0.1724
  921POPC   GL213334   8.266  14.602   6.415  0.1006  0.2768  0.0765
  921POPC   C1A13335   8.433  13.953   6.463  0.1315 -0.0229 -0.0672
  921POPC   D2A13336   8.513  13.796   6.870 -0.1390  0.3160 -0.0483
  921POPC   C3A13337   8.634  13.438   7.077  0.0217 -0.0440 -0.3678
  921POPC   C4A13338   9.032  13.184   7.238 -0.0014  0.1964 -0.0622
  921POPC   C1B13339   8.354  14.319   6.733  0.0768  0.1605  0.1634
  921POPC   C2B13340   8.352  14.192   7.112 -0.1757  0.1365 -0.1077
  921POPC   C3B13341   8.435  13.906   7.300  0.1347  0.1479  0.1084
  921POPC   C4B13342   8.773  13.686   7.555 -0.1428 -0.1471 -0.1906
  922YOPC   NC313343   2.612  14.753   6.209  0.1070  0.1062 -0.1971
  922YOPC   PO413344   2.846  14.953   6.051  0.2189 -0.0633  0.0612
  922YOPC   GL113345   3.246  15.063   6.224 -0.1398 -0.0601  0.1459
  922YOPC   GL213346   3.303  14.773   6.404 -0.2706 -0.0208  0.1919
  922YOPC   C1A13347   3.521  15.241   6.534 -0.2169  0.0306  0.4465
  922YOPC   D2A13348   3.696  15.305   6.967  0.1337 -0.0746 -0.1951
  922YOPC   C3A13349   3.674  15.061   7.373  0.0472  0.3010  0.0106
  922YOPC   C4A13350   3.551  14.667   7.674  0.1033 -0.0250  0.1464
  922YOPC   C1B13351   2.992  15.034   6.684 -0.0252  0.1527  0.1735
  922YOPC   C2B13352   2.752  15.135   7.043 -0.0564 -0.0685 -0.1709
  922YOPC   D3B13353   2.797  14.849   7.527  0.1879 -0.1820  0.0143
  922YOPC   C4B13354   2.867  14.447   7.498  0.0679  0.0545 -0.0145
  923YOPC   NC313355  17.291   5.370   6.125  0.1610 -0.3448 -0.0537
  923YOPC   PO413356  17.234   4.964   6.353  0.1539  0.1028  0.0352
  923YOPC   GL113357  17.285   5.016   6.789 -0.0061 -0.2237  0.4690
  923YOPC   GL213358  17.224   4.703   6.905  0.1086 -0.0201  0.2191
  923YOPC   C1A13359  17.472   5.285   7.099 -0.1178  0.0096  0.3393
  923YOPC   D2A13360  17.537   5.595   7.368 -0.0753 -0.2602  0.3272
  923YOPC   C3A13361  17.167   5.732   7.592 -0.0447  0.1507  0.0695
  923YOPC   C4A13362  17.194   5.838   8.067 -0.2596  0.1026  0.1018
  923YOPC   C1B13363  17.247   4.926   7.294  0.1561  0.0171  0.0194
  923YOPC   C2B13364  17.604   5.093   7.604 -0.1049 -0.0037  0.0102
  923YOPC   D3B13365  17.978   5.083   7.820  0.3656  0.2544  0.2546
  923YOPC   C4B13366  18.143   5.320   8.115 -0.2252 -0.0512  0.2413
  924YOPC   NC313367   7.921  14.876   6.013 -0.0491  0.1257  0.4369
  924YOPC   PO413368   7.572  14.792   5.761 -0.1186  0.0164  0.3980
  924YOPC   GL113369   7.494  14.685   6.210 -0.3161  0.0839  0.0131
  924YOPC   GL213370   7.702  14.388   6.332 -0.0165  0.3294  0.0290
  924YOPC   C1A13371   7.354  14.552   6.657  0.0935 -0.2212  0.0206
  924YOPC   D2A13372   7.352  14.313   7.057 -0.2661 -0.0488 -0.0332
  924YOPC   C3A13373   7.376  13.916   7.113 -0.0191 -0.0005 -0.3208
  924YOPC   C4A13374   7.452  13.554   7.160 -0.1318 -0.2635  0.3695
  924YOPC   C1B13375   7.667  14.115   6.563 -0.0118 -0.1592 -0.0821
  924YOPC   C2B13376   8.014  13.995   6.840  0.1878 -0.1303  0.1688
  924YOPC   D3B13377   7.963  13.630   7.016 -0.1451 -0.2337  0.3800
  924YOPC   C4B13378   7.837  13.163   7.218  0.0556 -0.1609  0.2231
  925YOPC   NC313379   8.662  15.112   5.490  0.2483  0.0570  0.3024
  925YOPC   PO413380   8.292  15.356   5.664 -0.1768 -0.2130 -0.0209
  925YOPC   GL113381   8.285  15.304   6.110 -0.1437  0.0779  0.0018
  925YOPC   GL213382   7.964  15.361   6.212  0.1413 -0.1461  0.1664
  925YOPC   C1A13383   8.284  15.100   6.598  0.1238  0.2395 -0.2641
  925YOPC   D2A13384   8.581  14.804   6.792 -0.2169  0.1174 -0.1563
  925YOPC   C3A13385   8.549  14.767   7.154 -0.2162 -0.0287  0.1279
  925YOPC   C4A13386   8.320  14.680   7.447 -0.0379 -0.1820 -0.0630
  925YOPC   C1B13387   8.191  15.769   6.432  0.1583  0.0595 -0.0622
  925YOPC   C2B13388   8.082  16.285   6.451 -0.0756 -0.2547 -0.3329
  925YOPC   D3B13389   8.389  16.579   6.601  0.0382  0.1687 -0.2085
  925YOPC   C4B13390   8.689  16.760   6.566 -0.1611  0.3256 -0.2509
  926YOPC   NC313391  16.225   3.236   6.449  0.1872 -0.0271  0.0540
  926YOPC   PO413392  16.097   3.581   6.467 -0.1381  0.1260 -0.1570
  926YOPC   GL113393  15.770   3.737   6.670  0.0645  0.0535  0.0879
  926YOPC   GL213394  15.511   3.590   6.815 -0.1652 -0.0045  0.0501
  926YOPC   C1A13395  15.843   3.894   7.125  0.0565 -0.0077  0.0293
  926YOPC   D2A13396  15.651   4.091   7.521  0.0777  0.1277 -0.0467
  926YOPC   C3A13397  15.940   4.310   7.802 -0.1666 -0.1934  0.2139
  926YOPC   C4A13398  16.308   4.364   7.991 -0.1443 -0.3631 -0.0521
  926YOPC   C1B13399  15.404   3.534   7.343  0.2680  0.1887 -0.2803
  926YOPC   C2B13400  15.525   3.666   7.778 -0.3124 -0.1652  0.2161
  926YOPC   D3B13401  15.400   4.003   8.049 -0.0467 -0.1479 -0.3652
  926YOPC   C4B13402  15.058   4.186   8.153 -0.1903 -0.1914  0.1078
  927YOPC   NC313403   6.187   5.270   5.343  0.2387 -0.5104 -0.0736
  927YOPC   PO413404   6.216   5.572   5.637  0.0493 -0.1860  0.2071
  927YOPC   GL113405   6.066   5.616   6.129  0.0687  0.0631  0.1928
  927YOPC   GL213406   6.012   5.982   6.053 -0.0927 -0.2157 -0.5580
  927YOPC   C1A13407   5.835   5.621   6.548 -0.2075 -0.1207 -0.2197
  927YOPC   D2A13408   5.821   5.869   6.883  0.2341  0.2569  0.0637
  927YOPC   C3A13409   5.475   5.882   7.222 -0.4206  0.0208  0.2460
  927YOPC   C4A13410   5.263   6.272   7.538 -0.0306  0.0005  0.3038
  927YOPC   C1B13411   6.034   6.083   6.453  0.2633 -0.1526  0.2503
  927YOPC   C2B13412   5.948   6.433   6.678 -0.1911  0.0674  0.3095
  927YOPC   D3B13413   6.097   6.229   7.081  0.2329 -0.0276 -0.0382
  927YOPC   C4B13414   5.777   6.259   7.415  0.0867  0.2394 -0.0190
  928YOPC   NC313415   4.583  17.784   5.347  0.0107  0.0431 -0.2976
  928YOPC   PO413416   4.505  18.148   5.719  0.2142 -0.1868  0.0693
  928YOPC   GL113417   4.469  18.175   6.174  0.0411 -0.2006  0.0549
  928YOPC   GL213418   4.563  18.519   6.194  0.1955 -0.2796 -0.2035
  928YOPC   C1A13419   4.543  18.079   6.632 -0.0779 -0.0917  0.0573
  928YOPC   D2A13420   4.326  17.886   7.030 -0.0104 -0.4523 -0.3130
  928YOPC   C3A13421   3.919  18.003   7.194  0.1535  0.0692  0.1828
  928YOPC   C4A13422   3.493  17.935   7.267 -0.0792  0.2201  0.0220
  928YOPC   C1B13423   4.632  18.528   6.592 -0.2999  0.0545  0.2307
  928YOPC   C2B13424   4.565  18.380   7.011 -0.1479 -0.1718  0.1337
  928YOPC   D3B13425   4.293  18.288   7.309  0.1770 -0.0594  0.1553
  928YOPC   C4B13426   4.250  18.170   7.742  0.2893 -0.0963  0.0187
  929YOPC   NC313427   0.221  17.162   6.246 -0.1225 -0.1845 -0.1829
  929YOPC   PO413428   0.074  16.823   6.379 -0.0668  0.2655  0.2068
  929YOPC   GL113429   0.080  16.637   6.705  0.2695 -0.0542  0.1529
  929YOPC   GL213430   0.342  16.609   6.832  0.1400 -0.0878 -0.0438
  929YOPC   C1A13431   0.133  16.192   6.966  0.0411 -0.1060 -0.0024
  929YOPC   D2A13432  -0.273  15.991   7.229 -0.1383 -0.1220 -0.0272
  929YOPC   C3A13433  -0.226  15.648   7.363 -0.0660 -0.1418  0.0983
  929YOPC   C4A13434  -0.314  15.275   7.769 -0.0820  0.2936 -0.1717
  929YOPC   C1B13435   0.353  16.746   7.293 -0.0512  0.3250 -0.1524
  929YOPC   C2B13436   0.720  16.541   7.578  0.2148  0.3130  0.3474
  929YOPC   D3B13437   1.039  16.419   7.405 -0.0481  0.2619  0.0478
  929YOPC   C4B13438   1.436  16.272   7.226 -0.0795  0.0315 -0.3223
  930YOPC   NC313439   2.323  16.154   6.189  0.1319  0.4435  0.0718
  930YOPC   PO413440   2.123  16.463   6.301 -0.1529  0.2799 -0.1223
  930YOPC   GL113441   2.170  16.189   6.691 -0.0066  0.0398  0.1176
  930YOPC   GL213442   1.865  16.329   6.766 -0.3244 -0.2343  0.1432
  930YOPC   C1A13443   2.272  15.799   6.901  0.3823  0.0861 -0.1808
  930YOPC   D2A13444   2.214  15.741   7.383 -0.1163  0.2852  0.3143
  930YOPC   C3A13445   2.660  15.663   7.225 -0.2185  0.0420  0.1045
  930YOPC   C4A13446   2.780  15.637   6.777  0.0324  0.1464  0.2179
  930YOPC   C1B13447   1.964  16.127   7.127 -0.1674  0.1692  0.0344
  930YOPC   C2B13448   1.868  16.022   7.591  0.3048  0.0047  0.0870
  930YOPC   D3B13449   1.647  16.275   7.807 -0.2461 -0.0247 -0.2595
  930YOPC   C4B13450   1.545  16.404   8.123 -0.0521  0.1162  0.0350
  931YOPC   NC313451   7.925   3.752   6.030  0.2056 -0.0601  0.0167
  931YOPC   PO413452   7.829   3.367   6.148 -0.4115  0.3686 -0.0944
  931YOPC   GL113453   7.617   3.387   6.571 -0.0781  0.1284 -0.0912
  931YOPC   GL213454   7.815   3.692   6.516  0.0879  0.0715 -0.2401
  931YOPC   C1A13455   7.546   3.579   6.930  0.2715  0.1514 -0.1189
  931YOPC   D2A13456   7.711   3.635   7.374  0.0956  0.0254  0.1185
  931YOPC   C3A13457   7.385   3.616   7.741  0.1701  0.1351 -0.0040
  931YOPC   C4A13458   7.172   3.258   7.965  0.0477 -0.1387 -0.0547
  931YOPC   C1B13459   7.894   3.955   6.733  0.3010 -0.1312  0.0587
  931YOPC   C2B13460   7.835   4.366   6.949  0.0682  0.1703  0.1325
  931YOPC   D3B13461   7.683   4.646   7.299 -0.0762  0.3204  0.1886
  931YOPC   C4B13462   7.790   4.982   7.424  0.0746 -0.0920 -0.1618
  932YOPC   NC313463  13.282  17.129   6.215 -0.0175  0.0403 -0.1843
  932YOPC   PO413464  12.783  17.235   5.967  0.2063 -0.3283 -0.3886
  932YOPC   GL113465  12.704  17.189   6.456  0.1113 -0.1385 -0.1524
  932YOPC   GL213466  12.696  17.455   6.775 -0.3278  0.2354 -0.1739
  932YOPC   C1A13467  12.471  17.069   6.941  0.2495  0.2352 -0.2218
  932YOPC   D2A13468  12.196  17.111   7.386 -0.0604 -0.2420  0.0542
  932YOPC   C3A13469  12.222  17.014   7.741  0.0563 -0.1601 -0.0783
  932YOPC   C4A13470  12.064  17.155   8.145 -0.1654 -0.1671  0.0380
  932YOPC   C1B13471  12.656  17.466   7.259  0.0466  0.5050  0.0451
  932YOPC   C2B13472  12.588  17.324   7.715  0.1295 -0.1830 -0.0714
  932YOPC   D3B13473  12.859  17.298   7.889  0.0391 -0.0204 -0.2075
  932YOPC   C4B13474  13.123  17.322   7.492  0.0063  0.1322 -0.0134
  933YOPC   NC313475  12.452  17.685   6.358  0.1891  0.0053 -0.1465
  933YOPC   PO413476  12.893  17.619   6.354  0.5016 -0.0591 -0.0353
  933YOPC   GL113477  13.177  17.458   6.658 -0.0216 -0.1574  0.5444
  933YOPC   GL213478  13.105  17.178   6.789 -0.1067 -0.0448  0.1526
  933YOPC   C1A13479  13.292  17.556   7.071 -0.2818  0.2847 -0.0176
  933YOPC   D2A13480  13.518  17.667   7.392 -0.0095  0.1742 -0.3935
  933YOPC   C3A13481  13.414  17.907   7.699 -0.0724  0.1060  0.1774
  933YOPC   C4A13482  13.381  18.294   7.946  0.4344 -0.3263 -0.0848
  933YOPC   C1B13483  12.946  17.085   7.114 -0.0538 -0.0450  0.4097
  933YOPC   C2B13484  12.690  16.958   7.427 -0.2319 -0.2971  0.2634
  933YOPC   D3B13485  12.706  16.600   7.564 -0.0513  0.0807  0.0023
  933YOPC   C4B13486  12.708  16.311   7.878  0.5088  0.2423 -0.1109
  934YOPC   NC313487  11.425  16.627   5.812 -0.1459 -0.1515  0.1442
  934YOPC   PO413488  11.522  16.630   6.212 -0.0490 -0.3168 -0.6190
  934YOPC   GL113489  11.393  16.566   6.593  0.0409  0.0127  0.0033
  934YOPC   GL213490  11.221  16.812   6.739 -0.1333  0.2997  0.1007
  934YOPC   C1A13491  11.323  16.355   7.007 -0.0282 -0.1913  0.2224
  934YOPC   D2A13492  11.198  16.041   7.171  0.0300 -0.2082  0.3124
  934YOPC   C3A13493  11.327  15.829   7.540  0.1892  0.1916 -0.0849
  934YOPC   C4A13494  11.689  15.705   7.832  0.0637  0.1856  0.0322
  934YOPC   C1B13495  11.011  16.751   7.089 -0.0930  0.0206 -0.0819
  934YOPC   C2B13496  10.939  16.484   7.418 -0.0920  0.2027  0.1841
  934YOPC   D3B13497  10.930  16.549   7.836 -0.0083 -0.0067  0.0113
  934YOPC   C4B13498  10.760  16.877   8.009  0.0475 -0.0297 -0.1743
  935YOPC   NC313499   6.819   0.213   5.878 -0.0042 -0.3590  0.2022
  935YOPC   PO413500   6.913   0.586   6.157 -0.1669 -0.0688 -0.1842
  935YOPC   GL113501   7.004   0.595   6.599  0.1257 -0.0361 -0.1630
  935YOPC   GL213502   7.385   0.571   6.705 -0.0749  0.0479 -0.3846
  935YOPC   C1A13503   6.963   0.855   6.971 -0.3872  0.0844  0.2287
  935YOPC   D2A13504   6.816   0.724   7.351 -0.0159  0.3021  0.0130
  935YOPC   C3A13505   6.518   0.952   7.679  0.1795  0.0031 -0.3935
  935YOPC   C4A13506   6.148   0.765   7.898  0.0156 -0.2219 -0.2240
  935YOPC   C1B13507   7.462   0.618   7.037  0.2011  0.1282 -0.1503
  935YOPC   C2B13508   7.289   0.580   7.450 -0.0790  0.0601 -0.0545
  935YOPC   D3B13509   6.979   0.301   7.610  0.1670  0.3066  0.3374
  935YOPC   C4B13510   6.881   0.152   7.984 -0.1092  0.2444 -0.2560
  936YOPC   NC313511   8.084   8.721   5.729  0.1249 -0.1548 -0.0385
  936YOPC   PO413512   8.611   8.634   5.627  0.1394  0.0367  0.1795
  936YOPC   GL113513   8.563   8.665   5.995 -0.1302  0.1705 -0.0004
  936YOPC   GL213514   8.442   9.041   5.986 -0.1617  0.0309  0.0146
  936YOPC   C1A13515   8.373   8.636   6.290 -0.1579  0.0453 -0.0053
  936YOPC   D2A13516   8.099   8.258   6.334 -0.1706  0.0091 -0.0151
  936YOPC   C3A13517   8.008   8.064   6.757 -0.1305  0.2578 -0.0193
  936YOPC   C4A13518   7.750   7.781   6.951 -0.1998 -0.0461 -0.3160
  936YOPC   C1B13519   8.595   9.494   5.765  0.0598 -0.0231 -0.1468
  936YOPC   C2B13520   8.619   9.837   6.078  0.3427  0.1964  0.0960
  936YOPC   D3B13521   8.900   9.608   6.351 -0.4466  0.2110 -0.1970
  936YOPC   C4B13522   9.138   9.413   6.653 -0.3147 -0.3793 -0.2713
  937YOPC   NC313523   8.567  17.944   6.197 -0.0849 -0.0272 -0.2338
  937YOPC   PO413524   8.030  17.799   6.128 -0.2096 -0.1701  0.0293
  937YOPC   GL113525   7.604  17.755   6.392 -0.0613 -0.1303 -0.2737
  937YOPC   GL213526   7.661  18.023   6.434  0.1282  0.1915  0.0050
  937YOPC   C1A13527   7.436  17.423   6.634  0.0700 -0.1073 -0.0417
  937YOPC   D2A13528   7.214  17.096   6.602 -0.0649 -0.0986 -0.0896
  937YOPC   C3A13529   7.037  17.020   7.019  0.0956 -0.3657  0.1753
  937YOPC   C4A13530   6.838  16.900   7.456  0.2065 -0.2642  0.0956
  937YOPC   C1B13531   7.583  18.180   6.866 -0.1510 -0.0759 -0.2822
  937YOPC   C2B13532   7.819  18.337   7.260  0.0546 -0.2273 -0.5404
  937YOPC   D3B13533   7.899  18.696   7.215  0.4771 -0.2343 -0.0090
  937YOPC   C4B13534   7.801  19.144   7.283  0.0421 -0.0404  0.3380
  938YOPC   NC313535  10.013  15.985   5.669 -0.1133 -0.3708 -0.1843
  938YOPC   PO413536  10.274  16.068   5.974  0.1376 -0.0408  0.0962
  938YOPC   GL113537  10.306  16.027   6.410 -0.1075  0.1818 -0.0193
  938YOPC   GL213538  10.610  16.157   6.739 -0.0286  0.1249 -0.2685
  938YOPC   C1A13539  10.305  15.843   6.844  0.0146  0.1677 -0.0336
  938YOPC   D2A13540  10.191  15.767   7.306 -0.0992 -0.2319  0.0591
  938YOPC   C3A13541   9.742  15.660   7.368  0.0768 -0.2659 -0.2573
  938YOPC   C4A13542   9.351  15.523   7.410  0.1675 -0.0155 -0.2594
  938YOPC   C1B13543  10.608  16.054   7.292  0.0993  0.3045 -0.1495
  938YOPC   C2B13544  10.875  16.084   7.616 -0.0653 -0.1872  0.0263
  938YOPC   D3B13545  10.724  15.958   7.943 -0.1629  0.0515  0.0051
  938YOPC   C4B13546  10.569  15.685   8.184 -0.3405 -0.0432  0.1792
  939YOPC   NC313547   1.963   5.059   5.737  0.0803 -0.2352  0.0445
  939YOPC   PO413548   1.549   4.976   5.821  0.3196 -0.0191 -0.1796
  939YOPC   GL113549   1.609   4.908   6.274  0.1191  0.1552  0.0629
  939YOPC   GL213550   1.288   4.805   6.405 -0.0027 -0.2172  0.2150
  939YOPC   C1A13551   1.931   5.070   6.592  0.3379  0.3866 -0.2239
  939YOPC   D2A13552   2.064   4.985   6.990 -0.1110  0.2027 -0.0926
  939YOPC   C3A13553   1.868   5.078   7.379 -0.0189  0.1710  0.1321
  939YOPC   C4A13554   1.458   5.365   7.318 -0.1237  0.1689 -0.0451
  939YOPC   C1B13555   1.388   4.992   6.799  0.0777  0.3734 -0.1146
  939YOPC   C2B13556   1.409   4.876   7.176  0.0325  0.2187  0.1020
  939YOPC   D3B13557   1.435   4.953   7.677 -0.1066 -0.2236  0.3338
  939YOPC   C4B13558   1.148   5.076   7.971 -0.0801  0.0502  0.1587
  940YOPC   NC313559  16.106   9.548   6.075  0.0648 -0.4074 -0.1222
  940YOPC   PO413560  16.532   9.778   6.102  0.0909 -0.0689  0.1467
  940YOPC   GL113561  16.454   9.987   6.526 -0.0785  0.2029 -0.0336
  940YOPC   GL213562  16.725   9.932   6.736 -0.0818 -0.0302 -0.2450
  940YOPC   C1A13563  16.396  10.243   6.923 -0.0020  0.1406 -0.0772
  940YOPC   D2A13564  16.313  10.334   7.230  0.0249  0.1455 -0.0162
  940YOPC   C3A13565  16.177  10.101   7.603 -0.0436  0.0255 -0.3638
  940YOPC   C4A13566  16.170  10.122   7.987  0.2520  0.0396  0.0343
  940YOPC   C1B13567  17.007   9.807   7.061 -0.1534  0.2746 -0.1986
  940YOPC   C2B13568  17.205   9.898   7.421 -0.0246 -0.0476 -0.0734
  940YOPC   D3B13569  17.474   9.621   7.530  0.2937  0.1767 -0.1027
  940YOPC   C4B13570  17.645   9.207   7.523 -0.4909 -0.2133  0.0870
  941YOPC   NC313571  17.277   6.223   6.326 -0.2124 -0.1884 -0.2611
  941YOPC   PO413572  16.854   6.441   6.294  0.2691 -0.1298 -0.2895
  941YOPC   GL113573  16.944   6.231   6.697  0.0432 -0.1944 -0.0890
  941YOPC   GL213574  16.798   5.926   6.753 -0.2712  0.1654 -0.0554
  941YOPC   C1A13575  16.640   6.442   6.969 -0.0896  0.1316 -0.2712
  941YOPC   D2A13576  16.447   6.802   6.918  0.1706  0.2187 -0.1028
  941YOPC   C3A13577  16.399   7.235   7.143 -0.0744 -0.3982  0.0207
  941YOPC   C4A13578  16.544   7.358   7.519  0.0358 -0.1651 -0.0739
  941YOPC   C1B13579  16.428   6.016   6.863  0.0558 -0.0720 -0.1829
  941YOPC   C2B13580  16.239   5.956   7.271 -0.1384  0.3416 -0.2548
  941YOPC   D3B13581  16.095   5.536   7.460  0.1489 -0.2455  0.0080
  941YOPC   C4B13582  15.792   5.313   7.770  0.0642  0.1090 -0.1559
  942YOPC   NC313583  12.704   8.238   6.074  0.2208 -0.0922  0.0100
  942YOPC   PO413584  12.425   8.476   6.273  0.1134  0.3170 -0.2511
  942YOPC   GL113585  12.388   8.489   6.786  0.1674 -0.3209  0.1741
  942YOPC   GL213586  12.456   8.781   6.744 -0.1943 -0.0495  0.2975
  942YOPC   C1A13587  12.476   8.416   7.167 -0.1530  0.1803  0.0796
  942YOPC   D2A13588  12.638   8.315   7.576  0.1840 -0.3023  0.0423
  942YOPC   C3A13589  12.585   8.491   7.955 -0.0526  0.1123  0.1800
  942YOPC   C4A13590  12.707   8.771   8.264 -0.1071  0.0714  0.0393
  942YOPC   C1B13591  12.406   8.964   7.137 -0.2070  0.1671  0.0505
  942YOPC   C2B13592  12.478   8.796   7.535  0.1234  0.3165  0.2283
  942YOPC   D3B13593  12.781   9.006   7.862  0.3538 -0.1627 -0.0441
  942YOPC   C4B13594  12.777   9.365   7.942  0.0047  0.0009 -0.1017
  943YOPC   NC313595   7.796  17.354   6.111  0.1127  0.0645 -0.0126
  943YOPC   PO413596   8.207  17.252   5.869  0.2266 -0.0995 -0.0499
  943YOPC   GL113597   8.236  17.019   6.276 -0.2946  0.1883  0.1363
  943YOPC   GL213598   7.974  16.916   6.374  0.0629 -0.1300 -0.2795
  943YOPC   C1A13599   8.344  17.091   6.664  0.0407  0.2445  0.1905
  943YOPC   D2A13600   8.601  16.969   6.984 -0.2284  0.0926  0.0507
  943YOPC   C3A13601   8.449  16.847   7.404 -0.0097  0.1486 -0.1861
  943YOPC   C4A13602   8.126  16.862   7.766 -0.0814 -0.1002  0.0470
  943YOPC   C1B13603   7.793  17.054   6.714 -0.3190 -0.2824  0.2583
  943YOPC   C2B13604   7.509  17.066   7.090 -0.0370  0.1340 -0.0732
  943YOPC   D3B13605   7.734  17.080   7.502 -0.0310 -0.1214 -0.1078
  943YOPC   C4B13606   7.740  17.168   7.974  0.0671  0.1203  0.1056
  944YOPC   NC313607  13.006   6.230   6.184 -0.1531  0.0572  0.1329
  944YOPC   PO413608  12.905   5.928   6.368  0.1614 -0.3659  0.0951
  944YOPC   GL113609  12.937   5.973   6.772 -0.1269 -0.1446 -0.0475
  944YOPC   GL213610  12.793   6.240   6.957  0.0450  0.0146 -0.1669
  944YOPC   C1A13611  13.085   5.776   7.184  0.1452 -0.0512  0.0699
  944YOPC   D2A13612  13.346   5.649   7.552  0.0136 -0.0564  0.0189
  944YOPC   C3A13613  13.777   5.794   7.518 -0.1781  0.4243  0.1944
  944YOPC   C4A13614  14.189   5.845   7.527 -0.2738 -0.0805  0.2413
  944YOPC   C1B13615  12.838   6.267   7.326  0.0607  0.1270  0.2023
  944YOPC   C2B13616  12.916   6.100   7.744 -0.0190  0.1080 -0.0416
  944YOPC   D3B13617  12.978   6.191   8.131  0.0440  0.1152 -0.0480
  944YOPC   C4B13618  13.137   5.874   8.454  0.4542 -0.1508 -0.0561
  945YOPC   NC313619   8.868  11.255   5.499  0.3132  0.2899 -0.0339
  945YOPC   PO413620   8.649  11.535   5.726 -0.0380  0.0934  0.3489
  945YOPC   GL113621   8.741  11.271   6.121  0.0842 -0.1792  0.0972
  945YOPC   GL213622   8.416  11.295   6.153  0.4005  0.3193  0.1752
  945YOPC   C1A13623   8.515  10.850   6.292 -0.0143  0.1301 -0.0637
  945YOPC   D2A13624   8.536  10.667   6.679 -0.3149  0.0569 -0.0234
  945YOPC   C3A13625   8.325  10.288   6.939 -0.3470  0.5973  0.2590
  945YOPC   C4A13626   8.383  10.177   7.359 -0.0908  0.3709 -0.1114
  945YOPC   C1B13627   8.200  11.165   6.468  0.0463  0.0819  0.4532
  945YOPC   C2B13628   7.917  11.213   6.808 -0.1460  0.3326  0.2729
  945YOPC   D3B13629   7.827  11.223   7.207 -0.1858  0.0171 -0.0792
  945YOPC   C4B13630   8.014  11.304   7.619  0.3682  0.2004  0.4099
  946YOPC   NC313631   7.850  11.246   5.347  0.1557 -0.1377  0.1084
  946YOPC   PO413632   7.358  11.412   5.383 -0.0688  0.0904  0.3259
  946YOPC   GL113633   7.205  11.461   5.813 -0.1495  0.1720  0.0487
  946YOPC   GL213634   7.249  11.302   6.136  0.1531  0.1406 -0.1116
  946YOPC   C1A13635   6.743  11.340   5.937  0.0473  0.1050  0.0393
  946YOPC   D2A13636   6.593  11.276   6.321  0.2776  0.0853 -0.0962
  946YOPC   C3A13637   6.199  10.976   6.446  0.2213 -0.1129 -0.2074
  946YOPC   C4A13638   5.826  10.902   6.703 -0.0267  0.0505 -0.0369
  946YOPC   C1B13639   7.009  11.116   6.513  0.1207  0.3024 -0.1921
  946YOPC   C2B13640   6.950  11.010   6.964 -0.0098 -0.0584 -0.0600
  946YOPC   D3B13641   7.044  11.097   7.500 -0.0954  0.2303  0.1378
  946YOPC   C4B13642   7.229  10.851   7.760  0.1528 -0.2027 -0.1741
  947YOPC   NC313643   4.886   2.950   6.006  0.1151  0.2590  0.0476
  947YOPC   PO413644   4.569   2.683   5.829  0.0417  0.2279  0.0567
  947YOPC   GL113645   4.470   2.775   6.251 -0.0931 -0.2853  0.0210
  947YOPC   GL213646   4.236   2.531   6.305  0.0579 -0.1461 -0.0005
  947YOPC   C1A13647   4.703   2.882   6.645  0.0868  0.1567  0.0416
  947YOPC   D2A13648   4.517   3.109   7.090 -0.1303  0.2881 -0.4518
  947YOPC   C3A13649   4.717   2.842   7.446  0.2082 -0.0346  0.0337
  947YOPC   C4A13650   4.907   2.868   7.822 -0.0248 -0.2093  0.0072
  947YOPC   C1B13651   4.405   2.437   6.697  0.1062 -0.2032 -0.0834
  947YOPC   C2B13652   4.533   2.159   6.892  0.1222  0.0038  0.0472
  947YOPC   D3B13653   4.598   1.853   6.762 -0.2264  0.0957  0.0945
  947YOPC   C4B13654   4.936   1.505   6.736  0.3835 -0.0581 -0.1020
  948YOPC   NC313655  15.134   7.395   6.116 -0.3861 -0.0818 -0.0309
  948YOPC   PO413656  15.437   7.254   6.299 -0.0721  0.2497 -0.0482
  948YOPC   GL113657  15.539   7.222   6.769 -0.0564  0.0547  0.1474
  948YOPC   GL213658  15.397   7.139   7.064  0.1239 -0.0391  0.0869
  948YOPC   C1A13659  15.823   7.175   7.237  0.2471  0.0906  0.1274
  948YOPC   D2A13660  15.837   6.925   7.605  0.2601 -0.2388 -0.0163
  948YOPC   C3A13661  15.481   6.748   7.858  0.3178  0.0789  0.2072
  948YOPC   C4A13662  15.426   6.705   8.342  0.0229 -0.0547  0.1418
  948YOPC   C1B13663  15.238   7.060   7.470 -0.3592  0.0991 -0.0687
  948YOPC   C2B13664  15.116   7.215   7.773 -0.2720  0.1275 -0.0576
  948YOPC   D3B13665  15.032   7.028   8.110 -0.1876  0.0025  0.5260
  948YOPC   C4B13666  15.080   6.951   8.575 -0.0419 -0.4050 -0.2574
  949YOPC   NC313667   3.655  16.522   6.137 -0.0090  0.0974  0.2878
  949YOPC   PO413668   3.873  16.119   6.074  0.1875  0.2759  0.2706
  949YOPC   GL113669   3.732  15.995   6.460 -0.1235  0.2115  0.0636
  949YOPC   GL213670   3.580  16.230   6.558  0.1423 -0.0249 -0.0364
  949YOPC   C1A13671   3.857  16.021   6.974  0.0533  0.3975  0.4585
  949YOPC   D2A13672   3.945  16.194   7.331 -0.1070 -0.3553  0.0709
  949YOPC   C3A13673   4.215  16.370   7.574 -0.0249 -0.2201  0.0485
  949YOPC   C4A13674   4.594  16.678   7.589 -0.0043  0.1440 -0.1177
  949YOPC   C1B13675   3.362  16.196   6.876 -0.0112  0.0099 -0.2303
  949YOPC   C2B13676   3.024  16.504   7.131  0.4851 -0.0079  0.1104
  949YOPC   D3B13677   2.840  16.240   7.480  0.1293  0.1442  0.0677
  949YOPC   C4B13678   2.920  15.900   7.594 -0.1648 -0.0626 -0.1961
  950YOPC   NC313679   9.709   9.782   5.338  0.0188 -0.0763 -0.0209
  950YOPC   PO413680   9.216   9.674   5.222 -0.0447 -0.0613 -0.2903
  950YOPC   GL113681   9.099   9.660   5.699  0.1969  0.0076 -0.1227
  950YOPC   GL213682   9.209   9.347   5.919  0.1220 -0.1923 -0.3798
  950YOPC   C1A13683   9.264  10.025   6.022  0.0664  0.0841 -0.0872
  950YOPC   D2A13684   9.508  10.066   6.421  0.2599  0.2318 -0.1269
  950YOPC   C3A13685   9.256  10.112   6.727 -0.3842 -0.1993  0.1298
  950YOPC   C4A13686   9.264  10.067   7.130 -0.0970  0.2726  0.0979
  950YOPC   C1B13687   9.368   9.542   6.207  0.3572 -0.0323  0.0268
  950YOPC   C2B13688   9.652   9.599   6.497 -0.0204 -0.2321 -0.2932
  950YOPC   D3B13689   9.518   9.673   6.954  0.0576  0.1229  0.0018
  950YOPC   C4B13690   9.413   9.650   7.448  0.0074  0.2493  0.0204
  951YOPC   NC313691   7.617   2.174   5.978 -0.1510  0.3960 -0.0290
  951YOPC   PO413692   7.939   2.024   6.140 -0.1347 -0.0382 -0.0940
  951YOPC   GL113693   7.534   2.022   6.482  0.0834  0.1499  0.2386
  951YOPC   GL213694   7.735   2.266   6.639  0.1353  0.0104  0.5687
  951YOPC   C1A13695   7.503   1.991   6.928  0.1357  0.1665  0.1509
  951YOPC   D2A13696   7.301   1.966   7.298 -0.2016  0.0759  0.1497
  951YOPC   C3A13697   7.429   2.044   7.657 -0.1173  0.0897 -0.1809
  951YOPC   C4A13698   7.653   1.905   8.029 -0.1060 -0.0294  0.0559
  951YOPC   C1B13699   7.716   2.426   7.056  0.2111 -0.0947  0.0247
  951YOPC   C2B13700   7.769   2.706   7.379  0.1538  0.1233 -0.1757
  951YOPC   D3B13701   7.689   2.477   7.705 -0.0680  0.2688 -0.1080
  951YOPC   C4B13702   7.802   2.362   8.048 -0.0956  0.1319 -0.0017
  952YOPC   NC313703   2.576   6.491   5.705  0.1491 -0.1072 -0.2536
  952YOPC   PO413704   2.493   6.708   6.075 -0.1410  0.2083 -0.2876
  952YOPC   GL113705   2.730   6.903   6.426 -0.0982 -0.1703  0.0981
  952YOPC   GL213706   2.715   7.209   6.483 -0.3356  0.1262 -0.0114
  952YOPC   C1A13707   2.604   6.991   6.919 -0.1494  0.1162 -0.0937
  952YOPC   D2A13708   2.636   6.765   7.241 -0.2623 -0.0412  0.1170
  952YOPC   C3A13709   2.493   6.780   7.559 -0.2662 -0.1320  0.1021
  952YOPC   C4A13710   2.296   6.891   7.804  0.2986 -0.1104 -0.1065
  952YOPC   C1B13711   3.067   7.165   6.704  0.0309  0.0385 -0.1360
  952YOPC   C2B13712   3.141   7.173   7.115 -0.0425  0.0641  0.0335
  952YOPC   D3B13713   3.089   7.593   7.271 -0.1575 -0.1373  0.1062
  952YOPC   C4B13714   3.383   7.547   7.577  0.0960 -0.0152 -0.1371
  953YOPC   NC313715  10.167   8.591   5.442  0.1389  0.1471 -0.3047
  953YOPC   PO413716  10.516   8.599   5.708  0.1129  0.1763 -0.1257
  953YOPC   GL113717  10.585   8.914   6.124  0.1750  0.0264 -0.0693
  953YOPC   GL213718  10.470   9.292   6.114 -0.1502 -0.0378  0.2902
  953YOPC   C1A13719  10.543   8.595   6.485  0.1607 -0.2286 -0.1404
  953YOPC   D2A13720  10.252   8.335   6.699 -0.1095 -0.1570  0.1880
  953YOPC   C3A13721  10.018   8.108   6.861 -0.1358 -0.1744  0.0983
  953YOPC   C4A13722   9.914   7.851   7.278 -0.0555  0.1452 -0.0307
  953YOPC   C1B13723  10.534   9.158   6.541 -0.1020 -0.0409 -0.1178
  953YOPC   C2B13724  10.827   8.926   6.777 -0.0792 -0.0853  0.0402
  953YOPC   D3B13725  10.716   9.145   7.163  0.0587 -0.0993  0.1361
  953YOPC   C4B13726  10.442   9.136   7.434 -0.0991  0.0567  0.0057
  954YOPC   NC313727   4.701  16.670   5.851  0.1109  0.0207  0.0065
  954YOPC   PO413728   4.965  16.941   6.174  0.1623  0.0915 -0.1885
  954YOPC   GL113729   4.807  16.936   6.636  0.0630  0.1383 -0.4412
  954YOPC   GL213730   5.015  16.665   6.739 -0.0944  0.0598  0.1424
  954YOPC   C1A13731   4.758  17.131   6.971 -0.0659 -0.0640  0.2868
  954YOPC   D2A13732   4.724  17.118   7.377 -0.3876 -0.0632  0.3212
  954YOPC   C3A13733   4.945  17.034   7.681 -0.0814  0.0776 -0.2104
  954YOPC   C4A13734   5.032  16.930   8.088 -0.2615  0.5441 -0.2332
  954YOPC   C1B13735   4.835  16.666   7.150 -0.0844  0.0199 -0.1462
  954YOPC   C2B13736   4.988  16.430   7.434 -0.2421  0.3172 -0.2992
  954YOPC   D3B13737   5.105  16.558   7.754 -0.0302 -0.0218  0.1753
  954YOPC   C4B13738   5.459  16.411   7.877 -0.0741 -0.3460 -0.1642
  955YOPC   NC313739   4.300   7.219   5.866 -0.1264  0.3063  0.1254
  955YOPC   PO413740   3.916   7.080   5.906  0.1235  0.0281 -0.1557
  955YOPC   GL113741   3.697   7.189   6.274  0.3306  0.0231 -0.1780
  955YOPC   GL213742   3.855   7.427   6.248  0.1545  0.3451 -0.2486
  955YOPC   C1A13743   3.562   7.265   6.636  0.0717  0.0944  0.0193
  955YOPC   D2A13744   3.590   7.388   7.128  0.4411 -0.3096  0.0695
  955YOPC   C3A13745   3.550   7.898   7.264 -0.5501  0.3949  0.1784
  955YOPC   C4A13746   3.680   8.052   7.585 -0.0198 -0.0073  0.0836
  955YOPC   C1B13747   3.952   7.601   6.597  0.1283  0.0736  0.1329
  955YOPC   C2B13748   4.075   7.630   7.035  0.0943  0.0653 -0.2452
  955YOPC   D3B13749   3.920   7.593   7.431  0.1034  0.3254 -0.1445
  955YOPC   C4B13750   4.098   7.726   7.752 -0.1746  0.2526  0.0511
  956YOPC   NC313751   2.480   8.827   6.080 -0.0903 -0.0370 -0.0577
  956YOPC   PO413752   2.659   9.297   6.143 -0.1818  0.1234  0.2220
  956YOPC   GL113753   2.586   9.090   6.552 -0.0502 -0.2142  0.3864
  956YOPC   GL213754   2.179   8.938   6.576  0.2914 -0.1684 -0.2066
  956YOPC   C1A13755   2.415   9.199   6.947  0.1245 -0.1548 -0.2957
  956YOPC   D2A13756   2.629   9.349   7.393 -0.2449  0.0128  0.0174
  956YOPC   C3A13757   3.025   9.288   7.701 -0.1449  0.0797  0.4113
  956YOPC   C4A13758   3.361   9.402   7.932  0.0466 -0.2927  0.1589
  956YOPC   C1B13759   1.916   8.863   7.067 -0.1420 -0.0046 -0.0881
  956YOPC   C2B13760   1.584   8.582   7.260  0.0529 -0.0717 -0.1762
  956YOPC   D3B13761   1.523   8.310   7.680  0.1834 -0.0509  0.2116
  956YOPC   C4B13762   1.501   7.880   7.446  0.0386 -0.0918 -0.0402
  957YOPC   NC313763   6.738   1.881   5.853  0.0912  0.0356  0.2147
  957YOPC   PO413764   6.743   1.765   6.221  0.1054  0.0008 -0.1197
  957YOPC   GL113765   6.469   1.678   6.524  0.0382 -0.1223  0.0170
  957YOPC   GL213766   6.313   1.379   6.401 -0.1346  0.3240 -0.3838
  957YOPC   C1A13767   6.430   1.842   6.889  0.0769  0.1002 -0.2981
  957YOPC   D2A13768   6.268   2.116   7.171 -0.0398 -0.1163 -0.1703
  957YOPC   C3A13769   5.809   2.018   7.451 -0.3601  0.2616  0.0578
  957YOPC   C4A13770   5.710   1.690   7.901  0.3090  0.2130  0.2150
  957YOPC   C1B13771   6.209   1.400   6.852  0.3165  0.0362 -0.0196
  957YOPC   C2B13772   6.321   1.547   7.256 -0.3577 -0.1084  0.0768
  957YOPC   D3B13773   6.351   1.777   7.602  0.1456 -0.1850 -0.0139
  957YOPC   C4B13774   6.260   2.196   7.656  0.0660  0.1374  0.0515
  958YOPC   NC313775  12.649  16.304   5.959 -0.0551 -0.0609 -0.3140
  958YOPC   PO413776  12.344  16.092   5.870 -0.0763  0.3810 -0.2758
  958YOPC   GL113777  12.084  15.892   6.159  0.1214 -0.2529  0.0717
  958YOPC   GL213778  12.097  15.526   6.280 -0.1173  0.2940  0.2650
  958YOPC   C1A13779  12.043  15.844   6.629 -0.3713  0.1529  0.3056
  958YOPC   D2A13780  12.162  15.571   6.977 -0.1486  0.0343 -0.0367
  958YOPC   C3A13781  12.608  15.416   6.976 -0.0470  0.1629 -0.2294
  958YOPC   C4A13782  12.828  15.236   7.193  0.0298 -0.0532  0.0013
  958YOPC   C1B13783  11.764  15.456   6.644  0.0285 -0.1579 -0.2204
  958YOPC   C2B13784  11.346  15.544   6.805 -0.0863  0.2803  0.1542
  958YOPC   D3B13785  11.367  15.322   7.174  0.2811  0.3016 -0.0282
  958YOPC   C4B13786  11.017  15.013   7.329  0.2332 -0.1732 -0.0472
  959YOPC   NC313787   0.849   6.868   6.043 -0.1790  0.3307  0.0973
  959YOPC   PO413788   0.478   6.592   6.109  0.0766 -0.2463 -0.2086
  959YOPC   GL113789   0.778   6.487   6.457 -0.3036  0.0814 -0.0059
  959YOPC   GL213790   0.982   6.643   6.686  0.1037 -0.4957 -0.2832
  959YOPC   C1A13791   0.692   6.354   6.973 -0.1366 -0.0190  0.3315
  959YOPC   D2A13792   0.854   6.320   7.411 -0.1764  0.0215 -0.0234
  959YOPC   C3A13793   1.160   6.223   7.598  0.0038  0.1974  0.0319
  959YOPC   C4A13794   1.338   6.355   7.987 -0.0668  0.0737 -0.4428
  959YOPC   C1B13795   0.992   6.721   7.111 -0.0068 -0.0639 -0.3039
  959YOPC   C2B13796   1.014   7.011   7.390 -0.0569 -0.2789  0.3408
  959YOPC   D3B13797   0.919   6.792   7.747  0.2067  0.0773  0.0543
  959YOPC   C4B13798   0.915   6.481   7.944  0.1458 -0.2704 -0.3386
  960YOPC   NC313799   3.789   2.156   5.978  0.0634  0.2265  0.1744
  960YOPC   PO413800   3.698   2.464   6.246  0.0469  0.0808  0.1855
  960YOPC   GL113801   3.786   2.581   6.641 -0.1327 -0.2789  0.0001
  960YOPC   GL213802   3.920   2.347   6.660 -0.0554 -0.0444 -0.1972
  960YOPC   C1A13803   3.583   2.836   6.948  0.1532 -0.1409  0.2403
  960YOPC   D2A13804   3.744   2.752   7.347  0.4530 -0.0632  0.1249
  960YOPC   C3A13805   3.644   2.713   7.752 -0.2777 -0.1512  0.3352
  960YOPC   C4A13806   3.637   2.462   8.121 -0.2230  0.0197 -0.1055
  960YOPC   C1B13807   3.918   2.304   7.194  0.1305 -0.0897  0.1670
  960YOPC   C2B13808   4.008   2.311   7.639  0.0304 -0.2025 -0.3516
  960YOPC   D3B13809   4.087   2.654   7.901 -0.0914 -0.1546 -0.1067
  960YOPC   C4B13810   4.105   2.900   8.338  0.1772  0.2824 -0.2235
  961YOPC   NC313811  11.589  10.256   5.764  0.0751 -0.0364  0.3344
  961YOPC   PO413812  11.452   9.870   5.704  0.0277 -0.1653  0.1558
  961YOPC   GL113813  11.504   9.929   6.125  0.1093  0.3850 -0.2806
  961YOPC   GL213814  11.257   9.836   6.408  0.2693  0.0633  0.0928
  961YOPC   C1A13815  11.725  10.010   6.572 -0.0153  0.2114  0.1881
  961YOPC   D2A13816  11.811  10.136   6.955 -0.2657  0.2285 -0.2716
  961YOPC   C3A13817  11.549  10.543   6.982  0.1023 -0.2419 -0.4555
  961YOPC   C4A13818  11.325  10.905   6.983  0.3608 -0.0434  0.1034
  961YOPC   C1B13819  11.288  10.064   6.868 -0.1727  0.3059  0.0329
  961YOPC   C2B13820  11.204  10.155   7.312  0.2907 -0.0176  0.0696
  961YOPC   D3B13821  11.441  10.584   7.504 -0.1447  0.0464 -0.1794
  961YOPC   C4B13822  11.839  10.763   7.540 -0.4161 -0.2123  0.2197
  962YOPC   NC313823  14.552   8.111   6.102  0.1699 -0.1280  0.0522
  962YOPC   PO413824  14.821   8.470   5.976 -0.1349 -0.3672  0.0468
  962YOPC   GL113825  14.650   8.644   6.271  0.0288  0.2920  0.0047
  962YOPC   GL213826  14.554   8.425   6.504  0.2994 -0.0296 -0.0799
  962YOPC   C1A13827  14.727   8.849   6.652 -0.0313 -0.2910 -0.1080
  962YOPC   D2A13828  14.714   8.806   7.151 -0.1664 -0.0042 -0.1041
  962YOPC   C3A13829  14.426   8.749   7.416 -0.1386  0.1892 -0.1242
  962YOPC   C4A13830  14.100   8.533   7.582  0.0356  0.1586  0.1517
  962YOPC   C1B13831  14.455   8.469   6.934 -0.3808  0.2339  0.0474
  962YOPC   C2B13832  14.044   8.599   7.083 -0.0952  0.1705 -0.2260
  962YOPC   D3B13833  13.857   8.968   6.803 -0.2342  0.0146 -0.1717
  962YOPC   C4B13834  14.092   9.363   6.580  0.0981 -0.1058  0.1145
  963YOPC   NC313835   0.086   1.367   6.000 -0.0829  0.0517  0.0752
  963YOPC   PO413836   0.014   0.967   6.126 -0.3591  0.0174 -0.0897
  963YOPC   GL113837   0.153   1.309   6.484  0.1644 -0.2898 -0.4284
  963YOPC   GL213838  -0.009   1.374   6.752 -0.1219 -0.2622  0.1175
  963YOPC   C1A13839   0.512   1.289   6.863 -0.1692 -0.0980 -0.1219
  963YOPC   D2A13840   0.571   1.214   7.394  0.1953 -0.0124 -0.2273
  963YOPC   C3A13841   0.770   0.937   7.552  0.3410  0.1187  0.1586
  963YOPC   C4A13842   0.883   0.885   7.989  0.1273  0.1815 -0.0529
  963YOPC   C1B13843   0.233   1.543   7.162 -0.0801 -0.0940 -0.1054
  963YOPC   C2B13844   0.178   1.512   7.494 -0.3876 -0.0813  0.2817
  963YOPC   D3B13845   0.504   1.717   7.660  0.2431 -0.0344 -0.2466
  963YOPC   C4B13846   0.856   1.888   7.972  0.0844 -0.2163 -0.1436
  964YOPC   NC313847   0.921   1.206   6.330  0.0200 -0.1566 -0.0378
  964YOPC   PO413848   0.994   0.735   6.414 -0.0160  0.0599  0.1418
  964YOPC   GL113849   0.889   0.808   6.733  0.0251 -0.0084  0.0095
  964YOPC   GL213850   0.948   1.144   6.909  0.0495  0.3099  0.1052
  964YOPC   C1A13851   0.681   0.687   7.096 -0.0578  0.3457 -0.2497
  964YOPC   D2A13852   0.596   0.474   7.365  0.1448  0.2386 -0.3198
  964YOPC   C3A13853   0.469   0.551   7.772 -0.0313 -0.0581 -0.1317
  964YOPC   C4A13854   0.380   0.817   8.221 -0.3067  0.5986  0.0132
  964YOPC   C1B13855   1.085   1.204   7.313 -0.0858 -0.1932 -0.1600
  964YOPC   C2B13856   0.985   1.377   7.728 -0.2424 -0.1797 -0.1027
  964YOPC   D3B13857   1.165   1.317   8.048 -0.1936  0.3870 -0.0825
  964YOPC   C4B13858   1.384   1.091   8.234 -0.0592 -0.0563 -0.2306
  965YOPC   NC313859   6.048  11.933   5.580 -0.0225  0.3014  0.0555
  965YOPC   PO413860   5.797  11.566   5.669 -0.0168 -0.2157  0.1033
  965YOPC   GL113861   5.744  11.456   6.036 -0.1817  0.2338  0.4676
  965YOPC   GL213862   5.509  11.340   6.249  0.4634 -0.3959 -0.1812
  965YOPC   C1A13863   5.961  11.436   6.464 -0.1109 -0.1135 -0.1130
  965YOPC   D2A13864   6.179  11.317   6.864  0.0450 -0.2050 -0.0533
  965YOPC   C3A13865   6.282  11.482   7.180 -0.1724 -0.1109  0.0793
  965YOPC   C4A13866   6.160  11.907   7.422 -0.0197 -0.2123  0.0555
  965YOPC   C1B13867   5.508  11.565   6.572  0.1285  0.1218 -0.0554
  965YOPC   C2B13868   5.748  11.528   6.994  0.1151 -0.1223  0.1792
  965YOPC   D3B13869   5.516  11.303   7.331 -0.2110 -0.0389 -0.2187
  965YOPC   C4B13870   5.608  11.316   7.788  0.0073  0.1551 -0.1750
  966YOPC   NC313871  16.389  17.739   6.061  0.1308 -0.1647  0.3265
  966YOPC   PO413872  16.360  18.223   6.085 -0.2409 -0.1384  0.3202
  966YOPC   GL113873  16.349  18.052   6.582 -0.2699 -0.2133 -0.0751
  966YOPC   GL213874  16.324  18.317   6.780 -0.2451 -0.4269  0.1420
  966YOPC   C1A13875  16.234  17.888   6.916  0.2191 -0.1707 -0.0635
  966YOPC   D2A13876  15.995  17.726   7.248 -0.1792  0.4492  0.0921
  966YOPC   C3A13877  15.773  17.859   7.743 -0.2725 -0.0104  0.0963
  966YOPC   C4A13878  15.598  17.962   8.184  0.1631 -0.2664  0.2389
  966YOPC   C1B13879  16.557  18.306   7.058  0.1191  0.1217 -0.1976
  966YOPC   C2B13880  16.557  18.037   7.422  0.0163  0.4408 -0.1820
  966YOPC   D3B13881  16.288  17.833   7.708 -0.0907  0.0201 -0.0692
  966YOPC   C4B13882  16.120  18.026   8.034  0.2751  0.2759 -0.0513
  967YOPC   NC313883  10.662  15.248   5.615 -0.0918 -0.0892  0.1683
  967YOPC   PO413884  10.662  15.353   6.053  0.0309  0.0128 -0.3638
  967YOPC   GL113885  10.506  15.122   6.404  0.2006 -0.1277 -0.3793
  967YOPC   GL213886  10.559  14.769   6.324  0.0019  0.1338  0.0639
  967YOPC   C1A13887  10.459  15.370   6.764  0.1063  0.0980 -0.0043
  967YOPC   D2A13888  10.497  15.298   7.246 -0.1135 -0.2079 -0.1322
  967YOPC   C3A13889  10.635  15.104   7.638 -0.0775 -0.3064 -0.1688
  967YOPC   C4A13890  10.646  14.671   7.864 -0.3010  0.0925  0.0496
  967YOPC   C1B13891  10.541  14.489   6.699  0.0739 -0.0905  0.0853
  967YOPC   C2B13892  10.405  14.159   7.073 -0.0535  0.0102  0.2624
  967YOPC   D3B13893  10.051  14.007   7.115  0.1036  0.0593  0.3622
  967YOPC   C4B13894   9.773  13.741   7.230  0.1284 -0.0388 -0.3700
  968YOPC   NC313895   2.298   7.915   6.121  0.1299 -0.4717  0.0025
  968YOPC   PO413896   2.330   8.363   6.136 -0.1467 -0.0382 -0.0994
  968YOPC   GL113897   2.301   8.485   6.460  0.0911  0.0931  0.0759
  968YOPC   GL213898   2.483   8.236   6.631  0.2447 -0.1693  0.0683
  968YOPC   C1A13899   2.388   8.704   6.926 -0.2898  0.0697 -0.2722
  968YOPC   D2A13900   2.375   8.879   7.309  0.1425  0.1939  0.0744
  968YOPC   C3A13901   1.987   8.990   7.518  0.2459 -0.2231 -0.1118
  968YOPC   C4A13902   1.755   8.817   7.771  0.0569 -0.2689  0.0880
  968YOPC   C1B13903   2.357   7.999   7.002 -0.0534 -0.0655 -0.1368
  968YOPC   C2B13904   2.493   7.892   7.323  0.2847 -0.0635  0.0088
  968YOPC   D3B13905   2.795   7.774   7.601 -0.1111 -0.2660  0.1261
  968YOPC   C4B13906   3.163   7.943   7.780  0.0387 -0.1373 -0.3158
  969YOPC   NC313907  11.331  17.101   6.240 -0.2776  0.0755 -0.1441
  969YOPC   PO413908  11.595  17.293   6.100  0.0336 -0.2170  0.0075
  969YOPC   GL113909  11.817  17.178   6.435 -0.1635 -0.0677 -0.1492
  969YOPC   GL213910  11.627  16.978   6.591  0.0901  0.2447  0.0617
  969YOPC   C1A13911  11.924  17.012   6.945  0.0957 -0.1879  0.0113
  969YOPC   D2A13912  12.212  16.663   7.029  0.2514  0.0153 -0.1222
  969YOPC   C3A13913  12.165  16.613   7.432 -0.1924 -0.1004 -0.4377
  969YOPC   C4A13914  11.817  16.676   7.590  0.3489  0.0009  0.1813
  969YOPC   C1B13915  11.544  16.759   7.081 -0.3882  0.0135  0.2471
  969YOPC   C2B13916  11.386  16.781   7.421  0.1397  0.0312  0.1216
  969YOPC   D3B13917  11.353  16.368   7.613 -0.0022  0.0241 -0.0466
  969YOPC   C4B13918  11.249  16.082   7.992  0.3664 -0.0881  0.1168
  970YOPC   NC313919  17.211  17.898   6.026  0.0244  0.1075  0.0590
  970YOPC   PO413920  16.787  17.861   6.314  0.1877  0.0534  0.0481
  970YOPC   GL113921  16.866  17.940   6.766  0.1657 -0.1224 -0.0448
  970YOPC   GL213922  17.193  17.805   6.848  0.1450 -0.1188 -0.3681
  970YOPC   C1A13923  16.669  17.682   7.011 -0.1693  0.1854  0.0196
  970YOPC   D2A13924  16.463  17.392   7.351 -0.0640 -0.0866 -0.0393
  970YOPC   C3A13925  16.500  17.387   7.686 -0.1173  0.1038 -0.1379
  970YOPC   C4A13926  16.468  17.564   8.052 -0.1935 -0.0032 -0.0104
  970YOPC   C1B13927  17.572  17.965   6.981 -0.1115  0.4146  0.0140
  970YOPC   C2B13928  17.923  17.760   6.875  0.1462  0.3475 -0.2895
  970YOPC   D3B13929  18.286  17.795   7.064 -0.0312  0.0660 -0.0678
  970YOPC   C4B13930  18.586  17.985   7.272  0.0612 -0.2094  0.4168
  971YOPC   NC313931   6.306   8.290   5.812  0.1457  0.1111 -0.2165
  971YOPC   PO413932   6.275   8.045   6.105 -0.0618 -0.1048  0.2328
  971YOPC   GL113933   6.513   7.808   6.343 -0.0695  0.0593  0.4992
  971YOPC   GL213934   6.288   7.722   6.626  0.1652 -0.0087  0.1201
  971YOPC   C1A13935   6.579   8.119   6.668 -0.1104  0.1624  0.0629
  971YOPC   D2A13936   6.741   7.957   7.130  0.3082 -0.3193  0.0708
  971YOPC   C3A13937   7.198   7.906   7.278 -0.1941 -0.0655 -0.1694
  971YOPC   C4A13938   7.463   7.715   7.496 -0.0985 -0.0175 -0.0703
  971YOPC   C1B13939   6.184   7.970   6.901  0.0596 -0.2197  0.2697
  971YOPC   C2B13940   6.101   8.032   7.367 -0.0877 -0.1251  0.2104
  971YOPC   D3B13941   6.112   8.468   7.633 -0.2370 -0.0913  0.0356
  971YOPC   C4B13942   5.985   8.808   7.894  0.1211  0.1184 -0.3080
  972YOPC   NC313943   5.282   8.931   5.679 -0.3720 -0.3539  0.0281
  972YOPC   PO413944   5.028   9.084   5.984  0.0126  0.0790 -0.2164
  972YOPC   GL113945   4.800   8.968   6.344 -0.0792  0.2048 -0.1700
  972YOPC   GL213946   4.619   8.763   6.499  0.1530  0.2275 -0.2708
  972YOPC   C1A13947   4.686   9.104   6.872 -0.0343  0.2464  0.1339
  972YOPC   D2A13948   4.744   9.096   7.304 -0.0975  0.0713  0.2374
  972YOPC   C3A13949   4.912   8.826   7.576 -0.0974  0.4089  0.1742
  972YOPC   C4A13950   4.983   8.428   7.830  0.1587 -0.0819  0.0700
  972YOPC   C1B13951   4.345   8.755   6.925  0.0324 -0.0022  0.1329
  972YOPC   C2B13952   3.992   8.644   7.335  0.0852 -0.2691  0.2334
  972YOPC   D3B13953   3.863   8.810   7.744  0.0871  0.0153 -0.2098
  972YOPC   C4B13954   3.980   9.223   8.016 -0.0132  0.1358  0.1099
  973YOPC   NC313955   2.863  14.494   5.736 -0.1132 -0.0449 -0.1359
  973YOPC   PO413956   2.549  14.255   6.121  0.0118  0.0354  0.1290
  973YOPC   GL113957   2.574  14.139   6.543  0.0760 -0.2610  0.0941
  973YOPC   GL213958   2.311  14.364   6.720  0.0332 -0.0464  0.1878
  973YOPC   C1A13959   2.727  14.058   7.026 -0.6548 -0.0962 -0.2180
  973YOPC   D2A13960   2.979  13.856   7.390  0.0683  0.3944  0.0159
  973YOPC   C3A13961   3.045  13.754   7.794  0.2146  0.0679 -0.0611
  973YOPC   C4A13962   3.228  13.473   8.054  0.0599 -0.0077  0.1321
  973YOPC   C1B13963   2.252  14.244   7.068 -0.3384  0.2486 -0.0770
  973YOPC   C2B13964   2.355  14.163   7.539  0.0607  0.1960  0.1282
  973YOPC   D3B13965   2.132  14.257   7.821 -0.0632 -0.3668  0.1714
  973YOPC   C4B13966   1.926  14.504   8.195  0.2353  0.1587 -0.1383
  974YOPC   NC313967  11.917   8.197   5.884  0.1388  0.1278  0.1967
  974YOPC   PO413968  12.214   7.992   6.052  0.1155 -0.0168  0.0004
  974YOPC   GL113969  12.316   7.905   6.424  0.2118  0.3531 -0.1820
  974YOPC   GL213970  12.515   7.661   6.681  0.2440  0.0760  0.1552
  974YOPC   C1A13971  12.137   7.927   6.884  0.1077  0.2377 -0.1526
  974YOPC   D2A13972  11.883   7.579   7.082  0.2652  0.0636  0.3822
  974YOPC   C3A13973  11.790   7.495   7.509 -0.1245  0.3300  0.4196
  974YOPC   C4A13974  11.588   7.339   7.810 -0.1805 -0.0777  0.1338
  974YOPC   C1B13975  12.403   7.478   7.037  0.0378 -0.0004 -0.2089
  974YOPC   C2B13976  12.514   7.408   7.531  0.1349 -0.2257 -0.4406
  974YOPC   D3B13977  12.161   7.510   7.879  0.5168 -0.0746  0.1234
  974YOPC   C4B13978  11.800   7.724   8.095 -0.0592  0.0737 -0.1683
  975YOPC   NC313979  11.988  11.583   5.817  0.0674  0.2671 -0.2177
  975YOPC   PO413980  12.263  11.306   5.877 -0.2047  0.0517  0.2309
  975YOPC   GL113981  12.386  11.119   6.235 -0.0292 -0.2832  0.2254
  975YOPC   GL213982  12.697  11.201   6.371  0.0015 -0.0330 -0.0558
  975YOPC   C1A13983  12.417  10.969   6.696 -0.2159  0.1732 -0.1555
  975YOPC   D2A13984  12.381  10.938   7.103 -0.1920  0.1136 -0.1462
  975YOPC   C3A13985  12.105  11.227   7.383 -0.1952 -0.1262 -0.1614
  975YOPC   C4A13986  11.999  11.326   7.780  0.0248  0.1298 -0.2868
  975YOPC   C1B13987  12.916  11.128   6.803  0.0165 -0.0949  0.0044
  975YOPC   C2B13988  12.966  11.357   7.154  0.1354  0.2565 -0.1743
  975YOPC   D3B13989  12.683  11.621   7.314  0.0049 -0.1277 -0.0971
  975YOPC   C4B13990  12.616  11.551   7.742  0.1916 -0.1954  0.0384
  976YOPC   NC313991  12.285  10.793   5.807 -0.1802  0.0154 -0.0109
  976YOPC   PO413992  12.701  10.724   6.081 -0.1138  0.2599  0.0265
  976YOPC   GL113993  12.356  10.520   6.248  0.0527  0.1514  0.1614
  976YOPC   GL213994  12.491  10.169   6.309  0.1206 -0.3119 -0.3215
  976YOPC   C1A13995  12.197  10.427   6.729 -0.2640 -0.3217 -0.0395
  976YOPC   D2A13996  12.087  10.544   7.163  0.2080 -0.0971  0.1066
  976YOPC   C3A13997  12.379  10.644   7.526 -0.0706  0.1264 -0.0863
  976YOPC   C4A13998  12.627  10.489   7.900  0.1331  0.1490  0.0557
  976YOPC   C1B13999  12.608  10.088   6.665 -0.0529 -0.1407  0.1646
  976YOPC   C2B14000  12.528  10.309   7.173 -0.1451 -0.0353  0.2141
  976YOPC   D3B14001  12.914  10.267   7.511  0.1044  0.0508 -0.1092
  976YOPC   C4B14002  13.146  10.474   7.750  0.0368 -0.2638 -0.2574
  977YOPC   NC314003  12.349   0.034   5.688  0.0180  0.1329 -0.0092
  977YOPC   PO414004  12.277  -0.003   6.108 -0.0854  0.2388  0.0781
  977YOPC   GL114005  12.196   0.011   6.658  0.3347  0.0175 -0.1580
  977YOPC   GL214006  12.522   0.123   6.811 -0.2735 -0.0524  0.1664
  977YOPC   C1A14007  12.169   0.148   7.098 -0.2891  0.0207 -0.0503
  977YOPC   D2A14008  12.395   0.403   7.345 -0.0461  0.0060 -0.0988
  977YOPC   C3A14009  12.158   0.597   7.459 -0.3895  0.0729  0.0685
  977YOPC   C4A14010  11.864   0.703   7.703  0.2355  0.1159 -0.0035
  977YOPC   C1B14011  12.634  -0.070   7.105  0.1792 -0.0554  0.1037
  977YOPC   C2B14012  12.963  -0.210   7.411  0.0341  0.0842 -0.1943
  977YOPC   D3B14013  12.974  -0.219   7.898 -0.1626  0.2428 -0.2832
  977YOPC   C4B14014  12.750  -0.338   8.245 -0.2252  0.2257 -0.2439
  978YOPC   NC314015  11.169   5.133   5.662 -0.3021 -0.2040  0.1901
  978YOPC   PO414016  11.131   5.497   5.999 -0.0054  0.0916  0.0960
  978YOPC   GL114017  11.073   5.624   6.373 -0.2041  0.0053  0.0578
  978YOPC   GL214018  11.166   5.551   6.657  0.1045 -0.2508  0.1519
  978YOPC   C1A14019  10.704   5.636   6.585  0.0042  0.0815  0.1309
  978YOPC   D2A14020  10.341   5.800   6.677  0.4284 -0.3137  0.1432
  978YOPC   C3A14021  10.316   6.199   6.981 -0.1829  0.5164  0.0077
  978YOPC   C4A14022  10.146   6.544   7.115 -0.4636 -0.1767  0.4179
  978YOPC   C1B14023  11.136   5.558   7.132 -0.1253 -0.1891 -0.1086
  978YOPC   C2B14024  10.965   5.519   7.563  0.1943 -0.1018 -0.4184
  978YOPC   D3B14025  10.753   5.623   8.007  0.4795 -0.0105  0.3718
  978YOPC   C4B14026  10.568   5.603   8.376 -0.0949  0.1701 -0.2672
  979YOPC   NC314027  16.758  16.919   6.188  0.1547 -0.2264  0.3063
  979YOPC   PO414028  17.157  16.931   6.363 -0.0770 -0.2453 -0.1337
  979YOPC   GL114029  17.328  17.035   6.727 -0.0732  0.0067  0.2228
  979YOPC   GL214030  17.704  16.844   6.870  0.2864  0.0615  0.0318
  979YOPC   C1A14031  17.479  17.395   7.044 -0.0213  0.0842 -0.0161
  979YOPC   D2A14032  17.445  17.514   7.555  0.0013  0.2357  0.1368
  979YOPC   C3A14033  17.156  17.736   7.916  0.0307 -0.0602  0.1704
  979YOPC   C4A14034  16.898  17.573   8.321 -0.2663  0.0469  0.3087
  979YOPC   C1B14035  17.892  16.713   7.241  0.3668  0.1176  0.2840
  979YOPC   C2B14036  18.002  16.613   7.557  0.1968  0.2301  0.0527
  979YOPC   D3B14037  17.864  16.794   7.938 -0.4587  0.1288  0.0271
  979YOPC   C4B14038  17.908  17.085   8.264 -0.0130  0.3131  0.1950
  980YOPC   NC314039  13.129  10.836   5.897 -0.2832 -0.0775  0.6320
  980YOPC   PO414040  13.153  10.299   5.898 -0.1082 -0.0948 -0.1583
  980YOPC   GL114041  13.013  10.321   6.308  0.2137  0.2039  0.1796
  980YOPC   GL214042  12.891  10.587   6.500  0.1043  0.0508  0.0711
  980YOPC   C1A14043  13.109  10.232   6.736  0.4165 -0.1674 -0.1270
  980YOPC   D2A14044  13.052  10.052   7.095 -0.0901  0.1516 -0.1383
  980YOPC   C3A14045  12.734   9.751   7.116 -0.4778 -0.0779 -0.0305
  980YOPC   C4A14046  12.478   9.468   6.934 -0.3045  0.1792 -0.0426
  980YOPC   C1B14047  12.760  10.652   6.868  0.0203 -0.1010  0.2415
  980YOPC   C2B14048  13.022  10.856   7.255 -0.1737  0.1872 -0.0471
  980YOPC   D3B14049  12.899  11.091   7.603 -0.1305  0.0020 -0.2451
  980YOPC   C4B14050  12.986  10.924   7.978 -0.2756 -0.1883  0.1008
  981YOPC   NC314051   4.118  13.492   5.980  0.0570  0.3381  0.1797
  981YOPC   PO414052   4.498  13.437   5.877  0.0433  0.0284  0.0809
  981YOPC   GL114053   4.514  13.402   6.328  0.0240 -0.0876 -0.1047
  981YOPC   GL214054   4.224  13.349   6.520  0.1061 -0.3304 -0.2081
  981YOPC   C1A14055   4.750  13.574   6.813 -0.1732  0.0793  0.3124
  981YOPC   D2A14056   4.857  13.894   7.250  0.0868 -0.0678 -0.0285
  981YOPC   C3A14057   5.002  13.712   7.626  0.1069 -0.3557 -0.3732
  981YOPC   C4A14058   5.147  13.291   7.674 -0.2930 -0.0734  0.3527
  981YOPC   C1B14059   4.456  13.158   6.798 -0.0507  0.0314 -0.2094
  981YOPC   C2B14060   4.454  13.082   7.225  0.0297 -0.1405  0.2008
  981YOPC   D3B14061   4.356  12.678   7.379 -0.0520 -0.0430 -0.4266
  981YOPC   C4B14062   4.121  12.476   7.612  0.3388 -0.1761  0.2631
  982YOPC   NC314063   5.433  10.446   5.269  0.1414 -0.0578 -0.0494
  982YOPC   PO414064   5.529  10.694   5.642  0.0763  0.0689  0.0282
  982YOPC   GL114065   5.412  10.601   6.118  0.0443  0.0002 -0.0407
  982YOPC   GL214066   5.051  10.516   6.110 -0.0040  0.2805 -0.2929
  982YOPC   C1A14067   5.349  10.870   6.483 -0.1875 -0.1244 -0.1404
  982YOPC   D2A14068   5.447  11.133   6.908  0.2701  0.0519 -0.2038
  982YOPC   C3A14069   5.887  10.982   7.146 -0.1992 -0.0511 -0.0410
  982YOPC   C4A14070   6.151  10.622   7.117  0.3186  0.0213 -0.0397
  982YOPC   C1B14071   5.184  10.387   6.563  0.1297  0.1997  0.1081
  982YOPC   C2B14072   5.475  10.554   6.853 -0.0665 -0.0365 -0.4695
  982YOPC   D3B14073   5.750  10.402   7.225  0.2286 -0.0402  0.2059
  982YOPC   C4B14074   5.694  10.270   7.561 -0.3733 -0.2398 -0.3594
  983YOPC   NC314075   7.913   6.353   6.237 -0.1909 -0.0923 -0.1276
  983YOPC   PO414076   7.490   6.520   6.315 -0.1860  0.2227  0.0259
  983YOPC   GL114077   7.566   6.454   6.628  0.0568 -0.1866 -0.4363
  983YOPC   GL214078   7.333   6.140   6.782 -0.2059 -0.3076 -0.0163
  983YOPC   C1A14079   7.905   6.319   6.941 -0.2383 -0.2363 -0.1379
  983YOPC   D2A14080   7.992   6.365   7.383  0.1526  0.2265  0.2596
  983YOPC   C3A14081   7.932   6.021   7.567  0.0929 -0.1309  0.1318
  983YOPC   C4A14082   7.498   5.800   7.590 -0.0568 -0.1218 -0.1438
  983YOPC   C1B14083   7.060   5.985   7.156 -0.0642 -0.1860  0.1476
  983YOPC   C2B14084   7.023   6.131   7.619  0.1485 -0.1275  0.2444
  983YOPC   D3B14085   7.422   6.336   7.750 -0.3243  0.1393 -0.2291
  983YOPC   C4B14086   7.490   6.411   8.234 -0.1134  0.4182  0.1651
  984YOPC   NC314087   1.566  14.492   6.170 -0.1356 -0.0227  0.1362
  984YOPC   PO414088   1.195  14.251   6.292 -0.4638  0.4031  0.0492
  984YOPC   GL114089   1.336  14.395   6.721 -0.1118  0.0440 -0.1137
  984YOPC   GL214090   1.391  14.718   6.623 -0.0378 -0.1612  0.0373
  984YOPC   C1A14091   1.325  14.587   7.130  0.0468  0.2759 -0.0090
  984YOPC   D2A14092   1.261  14.423   7.500 -0.2097  0.0262  0.0639
  984YOPC   C3A14093   1.104  14.538   7.829 -0.2433  0.3756 -0.0563
  984YOPC   C4A14094   1.175  14.637   8.225 -0.0738 -0.4296  0.1892
  984YOPC   C1B14095   0.927  14.651   6.724  0.4789 -0.2115 -0.2226
  984YOPC   C2B14096   0.517  14.806   6.918 -0.0903  0.2699 -0.1498
  984YOPC   D3B14097   0.284  14.603   7.185  0.1373  0.0107 -0.1476
  984YOPC   C4B14098   0.054  14.267   7.147 -0.0181 -0.2501  0.2411
  985YOPC   NC314099  16.970   9.360   5.937 -0.0244  0.1921 -0.0502
  985YOPC   PO414100  17.193   9.117   6.222 -0.0204  0.4245 -0.0116
  985YOPC   GL114101  17.443   8.884   6.536 -0.1115  0.0113  0.2343
  985YOPC   GL214102  17.779   8.757   6.525  0.2020 -0.1347 -0.2243
  985YOPC   C1A14103  17.411   8.991   6.944 -0.0373  0.2865  0.0153
  985YOPC   D2A14104  17.128   9.211   7.171  0.2985  0.0938 -0.0203
  985YOPC   C3A14105  16.855   9.453   7.543 -0.2465  0.1856  0.1722
  985YOPC   C4A14106  17.108   9.687   7.823  0.0350 -0.1747  0.0679
  985YOPC   C1B14107  18.000   8.752   6.940 -0.1156 -0.3201  0.2036
  985YOPC   C2B14108  18.340   8.728   7.272  0.0723  0.0389 -0.0844
  985YOPC   D3B14109  18.383   8.982   7.668 -0.0893  0.0260  0.1456
  985YOPC   C4B14110  18.615   8.961   8.003 -0.1336 -0.1038 -0.0951
  986YOPC   NC314111  11.293   7.979   6.247 -0.4336 -0.1003 -0.0910
  986YOPC   PO414112  10.928   7.846   6.165 -0.1824 -0.0738 -0.3272
  986YOPC   GL114113  10.937   7.773   6.578  0.0873  0.2270  0.0732
  986YOPC   GL214114  10.807   7.490   6.593  0.1577  0.2005  0.0389
  986YOPC   C1A14115  10.575   7.928   6.799 -0.1165 -0.1279  0.1747
  986YOPC   D2A14116  10.445   7.980   7.179  0.1194  0.4382 -0.0297
  986YOPC   C3A14117  10.429   7.667   7.491  0.0763 -0.2364  0.2358
  986YOPC   C4A14118  10.058   7.548   7.889 -0.0061  0.0097 -0.1223
  986YOPC   C1B14119  11.075   7.203   6.899 -0.1943 -0.0803  0.0668
  986YOPC   C2B14120  11.031   6.949   7.303 -0.0371  0.0997  0.1183
  986YOPC   D3B14121  11.082   6.573   7.586 -0.1442  0.2901  0.0894
  986YOPC   C4B14122  11.323   6.407   7.787  0.0029 -0.3318 -0.3762
  987YOPC   NC314123   2.499   0.842   6.208  0.3385  0.2418  0.0082
  987YOPC   PO414124   2.569   1.314   6.226 -0.2091  0.0024  0.2125
  987YOPC   GL114125   2.608   1.366   6.619 -0.0142  0.3888 -0.2338
  987YOPC   GL214126   2.906   1.250   6.775  0.1058 -0.1211  0.0687
  987YOPC   C1A14127   2.327   1.219   6.953 -0.1375 -0.1501 -0.0450
  987YOPC   D2A14128   2.273   0.987   7.320 -0.1714  0.2102 -0.2552
  987YOPC   C3A14129   2.003   1.115   7.629  0.0986  0.0765 -0.0575
  987YOPC   C4A14130   1.650   1.361   7.814  0.1051 -0.1838 -0.1553
  987YOPC   C1B14131   3.076   1.590   6.929  0.0225 -0.3090 -0.1834
  987YOPC   C2B14132   3.228   1.692   7.320 -0.1264 -0.1383 -0.3228
  987YOPC   D3B14133   3.036   1.494   7.701 -0.1314  0.1625  0.2503
  987YOPC   C4B14134   2.652   1.589   7.939  0.3145  0.3890 -0.2102
  988YOPC   NC314135  11.894   9.616   5.938 -0.0324  0.1734 -0.1276
  988YOPC   PO414136  12.018   9.284   6.098 -0.2439  0.0918  0.0215
  988YOPC   GL114137  12.074   9.456   6.455  0.3302  0.4516  0.1932
  988YOPC   GL214138  12.175   9.690   6.391  0.0404 -0.0053 -0.2449
  988YOPC   C1A14139  11.982   9.335   6.804 -0.1442 -0.1174  0.0802
  988YOPC   D2A14140  11.979   9.344   7.206  0.1210  0.0188  0.1529
  988YOPC   C3A14141  11.942   9.070   7.530 -0.1872 -0.2036 -0.2478
  988YOPC   C4A14142  11.766   8.748   7.783 -0.0592  0.2167  0.0520
  988YOPC   C1B14143  12.143   9.827   6.783 -0.0366  0.0182  0.0126
  988YOPC   C2B14144  12.222   9.797   7.192 -0.0681 -0.0338 -0.1908
  988YOPC   D3B14145  12.554   9.872   7.573  0.1652  0.0353  0.0334
  988YOPC   C4B14146  12.864   9.918   7.983 -0.1830  0.0947 -0.0383
  989YOPC   NC314147   3.328   8.989   5.743 -0.1845  0.0795 -0.1214
  989YOPC   PO414148   3.194   8.646   6.045 -0.0211 -0.0795  0.0423
  989YOPC   GL114149   2.979   8.861   6.251 -0.0624 -0.2741 -0.1013
  989YOPC   GL214150   2.837   8.608   6.372  0.2246 -0.0322  0.0161
  989YOPC   C1A14151   3.059   8.940   6.730 -0.2620  0.1671 -0.0781
  989YOPC   D2A14152   3.143   8.864   7.167 -0.0116  0.0341  0.3479
  989YOPC   C3A14153   2.898   8.808   7.520  0.0405 -0.3116  0.0447
  989YOPC   C4A14154   2.673   8.859   7.869 -0.2485 -0.3165 -0.0581
  989YOPC   C1B14155   2.898   8.501   6.850 -0.0204  0.0440 -0.0927
  989YOPC   C2B14156   2.598   8.429   7.189 -0.1522  0.1024  0.0449
  989YOPC   D3B14157   2.673   8.270   7.639 -0.0961 -0.2491 -0.0831
  989YOPC   C4B14158   3.036   8.457   7.858  0.0924  0.1268  0.0736
  990YOPC   NC314159  15.057  14.919   6.198 -0.1712 -0.3390  0.1237
  990YOPC   PO414160  14.830  15.319   6.341 -0.0503  0.0030  0.0067
  990YOPC   GL114161  14.946  15.240   6.667  0.0201  0.2865  0.0534
  990YOPC   GL214162  14.954  14.923   6.789  0.0033  0.2248 -0.1404
  990YOPC   C1A14163  15.031  15.326   7.183  0.2212  0.1617  0.3367
  990YOPC   D2A14164  14.881  15.542   7.531 -0.0358 -0.1028  0.0016
  990YOPC   C3A14165  14.663  15.290   7.876 -0.3227  0.0802 -0.2016
  990YOPC   C4A14166  14.520  15.312   8.227 -0.2742  0.0517 -0.1789
  990YOPC   C1B14167  14.579  15.103   7.042 -0.1515 -0.0160 -0.3995
  990YOPC   C2B14168  14.632  15.082   7.462 -0.4662 -0.3572  0.4459
  990YOPC   D3B14169  14.558  14.754   7.665 -0.0020 -0.2154 -0.1490
  990YOPC   C4B14170  14.671  14.542   8.046 -0.1308  0.2689 -0.0905
  991YOPC   NC314171   9.229   6.571   5.592 -0.0435  0.0600  0.2108
  991YOPC   PO414172   8.848   6.581   5.760  0.1904  0.3339  0.2162
  991YOPC   GL114173   8.852   6.720   6.170 -0.0372  0.0625  0.0017
  991YOPC   GL214174   8.893   7.045   6.252  0.0303  0.0305  0.1152
  991YOPC   C1A14175   8.653   6.704   6.535  0.1483 -0.1133 -0.0772
  991YOPC   D2A14176   8.725   6.797   6.967 -0.0306 -0.0930 -0.2650
  991YOPC   C3A14177   8.704   6.504   7.241  0.1727 -0.0167  0.0439
  991YOPC   C4A14178   8.526   6.387   7.684  0.2680  0.0396  0.1877
  991YOPC   C1B14179   9.148   6.848   6.630 -0.0401 -0.2115 -0.3209
  991YOPC   C2B14180   9.255   6.669   7.113  0.0080 -0.3376 -0.2088
  991YOPC   D3B14181   9.465   7.002   7.332 -0.1005 -0.0199  0.1090
  991YOPC   C4B14182   9.678   7.214   7.810  0.0990 -0.2884  0.5871
  992YOPC   NC314183  14.929   4.093   6.357 -0.2686  0.1123 -0.0221
  992YOPC   PO414184  15.304   4.080   6.315  0.0802  0.0235 -0.1129
  992YOPC   GL114185  15.362   4.073   6.763  0.1256  0.2458  0.3300
  992YOPC   GL214186  15.042   3.914   6.838  0.0822 -0.3149  0.0247
  992YOPC   C1A14187  15.396   4.325   7.080  0.1564  0.1112  0.2981
  992YOPC   D2A14188  15.189   4.505   7.333  0.1064  0.0690 -0.6116
  992YOPC   C3A14189  15.139   4.539   7.796  0.2023 -0.0237  0.2272
  992YOPC   C4A14190  15.449   4.555   8.136 -0.0314 -0.3604  0.1186
  992YOPC   C1B14191  15.090   3.931   7.247  0.2279  0.0289 -0.1327
  992YOPC   C2B14192  15.149   4.012   7.647  0.0696 -0.1461  0.0418
  992YOPC   D3B14193  14.957   3.769   7.903  0.1459 -0.0099 -0.1307
  992YOPC   C4B14194  14.940   3.373   8.214 -0.1378 -0.1442  0.1140
  993YOPC   NC314195  17.708   4.127   6.276  0.0220  0.2483  0.0712
  993YOPC   PO414196  18.009   4.415   6.440 -0.1389 -0.0978 -0.3935
  993YOPC   GL114197  18.421   4.480   6.554  0.2984  0.1176  0.0787
  993YOPC   GL214198  18.441   4.795   6.640 -0.2058 -0.1419 -0.0475
  993YOPC   C1A14199  18.807   4.455   6.753 -0.0212  0.0046  0.1094
  993YOPC   D2A14200  19.225   4.518   6.778  0.2451  0.1402  0.3020
  993YOPC   C3A14201  19.425   4.376   7.113 -0.1672 -0.0561 -0.2253
  993YOPC   C4A14202  19.483   4.471   7.509  0.1161  0.3044  0.0439
  993YOPC   C1B14203  18.495   4.575   7.063 -0.0341  0.2348 -0.0450
  993YOPC   C2B14204  18.566   4.425   7.416  0.0918  0.0208 -0.1654
  993YOPC   D3B14205  18.594   4.732   7.740  0.0648  0.1376 -0.0779
  993YOPC   C4B14206  18.330   4.780   8.110 -0.0107  0.1620 -0.0926
  994YOPC   NC314207   1.063   9.249   6.096 -0.1043 -0.0485  0.4818
  994YOPC   PO414208   0.980   8.792   6.114  0.1465  0.1196 -0.2276
  994YOPC   GL114209   0.927   8.454   6.454 -0.0934  0.1471 -0.0998
  994YOPC   GL214210   0.764   8.197   6.370 -0.1218 -0.1052 -0.0475
  994YOPC   C1A14211   0.792   8.274   6.869 -0.1784 -0.3084  0.0668
  994YOPC   D2A14212   0.579   8.361   7.197 -0.1909  0.1676  0.0155
  994YOPC   C3A14213   0.562   8.069   7.606  0.0657 -0.3011 -0.2097
  994YOPC   C4A14214   0.611   7.677   7.877 -0.0240  0.1864  0.0127
  994YOPC   C1B14215   0.686   7.772   6.587 -0.1698 -0.1476 -0.0457
  994YOPC   C2B14216   0.506   7.751   7.032 -0.0546 -0.0198 -0.3420
  994YOPC   D3B14217   0.187   8.115   7.163 -0.0880 -0.0281 -0.0500
  994YOPC   C4B14218  -0.092   8.307   7.113  0.1983  0.0659 -0.0775
  995YOPC   NC314219   8.458  16.777   5.862  0.0443 -0.1105 -0.1267
  995YOPC   PO414220   8.561  16.253   5.814 -0.0524  0.1347  0.1962
  995YOPC   GL114221   8.477  16.193   6.216  0.0044 -0.1591  0.0552
  995YOPC   GL214222   8.856  16.166   6.278  0.1834  0.0873  0.0713
  995YOPC   C1A14223   8.534  16.026   6.688 -0.0391  0.0862  0.2096
  995YOPC   D2A14224   8.637  15.953   7.102  0.0653  0.0245  0.0575
  995YOPC   C3A14225   8.963  15.747   7.136  0.3442  0.1079  0.4863
  995YOPC   C4A14226   9.434  15.668   6.919  0.0980  0.2355 -0.1217
  995YOPC   C1B14227   9.058  15.947   6.685  0.2409  0.2066  0.2449
  995YOPC   C2B14228   9.274  16.135   6.998  0.1548 -0.1037 -0.0018
  995YOPC   D3B14229   9.032  16.258   7.312  0.2358 -0.0608  0.1871
  995YOPC   C4B14230   9.013  15.995   7.598 -0.2831  0.1382  0.3656
  996YOPC   NC314231  10.615  16.971   6.273 -0.1627 -0.2186  0.1265
  996YOPC   PO414232  11.006  16.722   6.273  0.5217 -0.2466 -0.2502
  996YOPC   GL114233  10.729  16.642   6.686 -0.2200 -0.0550 -0.1532
  996YOPC   GL214234  10.341  16.570   6.566 -0.1088 -0.0458  0.1898
  996YOPC   C1A14235  10.516  16.570   7.115  0.0010  0.0824  0.2142
  996YOPC   D2A14236  10.363  16.592   7.515  0.0160 -0.1057 -0.2432
  996YOPC   C3A14237  10.486  16.991   7.659 -0.0282  0.0698 -0.0545
  996YOPC   C4A14238  10.435  17.366   7.625  0.0711 -0.2258  0.1343
  996YOPC   C1B14239  10.082  16.399   6.796  0.3233 -0.3133  0.1934
  996YOPC   C2B14240   9.988  16.487   7.193  0.1695 -0.1322  0.0748
  996YOPC   D3B14241  10.023  16.170   7.507 -0.0089  0.2074 -0.1507
  996YOPC   C4B14242  10.251  16.113   7.908 -0.0251 -0.0029  0.1307
  997YOPC   NC314243  13.713  12.409   6.108 -0.0672 -0.1518  0.0618
  997YOPC   PO414244  13.414  12.767   5.896  0.1750  0.0320  0.3150
  997YOPC   GL114245  13.286  12.682   6.233  0.0511  0.0479  0.3651
  997YOPC   GL214246  13.322  12.876   6.513 -0.2369  0.0293 -0.0724
  997YOPC   C1A14247  12.984  12.411   6.654  0.0054  0.1637 -0.1658
  997YOPC   D2A14248  13.165  12.326   6.995  0.1290 -0.3714 -0.1682
  997YOPC   C3A14249  13.247  12.589   7.373 -0.1238  0.1066  0.0255
  997YOPC   C4A14250  13.268  12.799   7.782 -0.0240 -0.0041  0.0401
  997YOPC   C1B14251  13.221  12.920   6.939  0.0904  0.4711  0.1808
  997YOPC   C2B14252  13.203  13.176   7.347  0.0459 -0.0850  0.2005
  997YOPC   D3B14253  12.910  13.168   7.662 -0.1010  0.0651  0.3630
  997YOPC   C4B14254  12.681  13.418   8.045 -0.0990  0.1523  0.3848
  998YOPC   NC314255  10.563   1.217   6.228 -0.2140  0.4591  0.1419
  998YOPC   PO414256  10.901   1.096   6.122  0.1141 -0.1332  0.2281
  998YOPC   GL114257  10.877   0.993   6.575 -0.0837  0.0428 -0.1800
  998YOPC   GL214258  10.632   0.845   6.728  0.1137  0.0046 -0.0453
  998YOPC   C1A14259  10.958   1.227   6.879  0.0743 -0.0193 -0.0141
  998YOPC   D2A14260  11.077   1.148   7.310  0.0052  0.4408 -0.0133
  998YOPC   C3A14261  11.169   1.138   7.654  0.1248  0.0525 -0.1715
  998YOPC   C4A14262  11.042   0.868   8.042 -0.0203 -0.0758 -0.0455
  998YOPC   C1B14263  10.623   0.747   7.206 -0.1464 -0.0317 -0.3469
  998YOPC   C2B14264  10.805   0.830   7.592 -0.1271  0.0399 -0.5458
  998YOPC   D3B14265  10.706   1.203   7.786 -0.3730  0.1770  0.3068
  998YOPC   C4B14266  10.569   1.405   8.117  0.1043 -0.2139  0.5626
  999YOPC   NC314267  14.625   0.338   6.165  0.0663 -0.1328 -0.2391
  999YOPC   PO414268  14.844   0.591   6.271  0.1983 -0.4347  0.0883
  999YOPC   GL114269  15.181   0.475   6.509 -0.1376  0.0099 -0.3504
  999YOPC   GL214270  15.377   0.199   6.466 -0.0175  0.0614 -0.0678
  999YOPC   C1A14271  15.455   0.405   6.993  0.1728 -0.1854  0.0484
  999YOPC   D2A14272  15.394   0.528   7.388 -0.1147 -0.0301  0.0271
  999YOPC   C3A14273  15.012   0.770   7.572 -0.1710 -0.0679  0.0917
  999YOPC   C4A14274  14.843   0.735   8.000  0.2833  0.5266 -0.0105
  999YOPC   C1B14275  15.378  -0.018   6.876  0.1007 -0.4200  0.0007
  999YOPC   C2B14276  15.540  -0.222   7.209  0.0380  0.0417  0.0601
  999YOPC   D3B14277  15.532  -0.512   7.419 -0.2362 -0.2705  0.0973
  999YOPC   C4B14278  15.454  -0.582   7.857  0.1035  0.4517  0.0031
 1000YOPC   NC314279  12.412   6.793   6.355  0.2059  0.0094  0.0215
 1000YOPC   PO414280  12.540   7.235   6.398 -0.3594  0.0108  0.0048
 1000YOPC   GL114281  12.775   7.002   6.731  0.0568  0.0663  0.1075
 1000YOPC   GL214282  12.707   7.074   7.047 -0.0115  0.0849 -0.3479
 1000YOPC   C1A14283  12.999   6.655   7.013 -0.0711  0.3374 -0.0102
 1000YOPC   D2A14284  12.919   6.756   7.446 -0.2071 -0.3658 -0.4033
 1000YOPC   C3A14285  12.628   6.848   7.604  0.0803 -0.0336  0.0316
 1000YOPC   C4A14286  12.397   7.060   7.945  0.0148 -0.0391 -0.2656
 1000YOPC   C1B14287  12.541   6.716   7.153  0.4343  0.0695  0.2099
 1000YOPC   C2B14288  12.313   6.473   7.482  0.1192  0.2083 -0.4161
 1000YOPC   D3B14289  12.334   6.574   7.895 -0.0692  0.2202 -0.0461
 1000YOPC   C4B14290  12.581   6.638   8.198 -0.0487  0.0037  0.2449
 1001YOPC   NC314291   2.480   1.774   6.318  0.0901 -0.1901 -0.1512
 1001YOPC   PO414292   2.022   1.551   6.368  0.0328  0.0037 -0.2938
 1001YOPC   GL114293   2.102   1.611   6.738 -0.3600  0.0628  0.3565
 1001YOPC   GL214294   1.754   1.703   6.982  0.0415  0.2158  0.4404
 1001YOPC   C1A14295   2.158   1.959   7.007  0.0615 -0.1534 -0.1586
 1001YOPC   D2A14296   2.366   2.429   7.100 -0.0362  0.2375 -0.0451
 1001YOPC   C3A14297   2.604   2.517   7.433 -0.0030  0.1876  0.3075
 1001YOPC   C4A14298   2.904   2.548   7.649 -0.0969  0.0776  0.2421
 1001YOPC   C1B14299   2.019   1.532   7.254 -0.1813  0.3328  0.1223
 1001YOPC   C2B14300   2.402   1.442   7.492  0.2681 -0.3802  0.2347
 1001YOPC   D3B14301   2.738   1.379   7.165 -0.2063 -0.2428 -0.3245
 1001YOPC   C4B14302   3.127   1.202   7.207  0.1208 -0.1116  0.0455
 1002YOPC   NC314303  11.223  11.718   5.564 -0.2370  0.0430 -0.1540
 1002YOPC   PO414304  11.364  11.404   5.752  0.0677  0.1041  0.0901
 1002YOPC   GL114305  11.395  11.241   6.114 -0.1849  0.4522  0.0300
 1002YOPC   GL214306  11.105  11.192   6.157  0.0824 -0.0579 -0.1620
 1002YOPC   C1A14307  11.332  10.812   6.482 -0.0890 -0.0699 -0.0906
 1002YOPC   D2A14308  11.110  10.505   6.780  0.0337 -0.3428  0.0120
 1002YOPC   C3A14309  11.002  10.604   7.262 -0.3437  0.2259  0.0264
 1002YOPC   C4A14310  11.119  10.958   7.436  0.2688  0.3076 -0.0429
 1002YOPC   C1B14311  11.250  11.267   6.625  0.0299 -0.6219 -0.0672
 1002YOPC   C2B14312  11.373  11.652   6.850 -0.0959  0.0415 -0.1156
 1002YOPC   D3B14313  11.804  11.577   7.159 -0.0527 -0.0646 -0.2351
 1002YOPC   C4B14314  11.612  11.303   7.438 -0.0574  0.0823 -0.0905
 1003YOPC   NC314315  17.297  15.512   6.282  0.1113  0.0469  0.0587
 1003YOPC   PO414316  16.878  15.434   6.333 -0.1069  0.2068 -0.1475
 1003YOPC   GL114317  17.068  15.384   6.716 -0.1132 -0.3388  0.0484
 1003YOPC   GL214318  16.896  15.550   6.890  0.3288  0.0081 -0.0174
 1003YOPC   C1A14319  17.209  15.002   6.996  0.1175  0.0270  0.1528
 1003YOPC   D2A14320  16.984  14.888   7.383 -0.1713 -0.0869 -0.1027
 1003YOPC   C3A14321  16.491  15.146   7.437  0.2019  0.0639  0.2101
 1003YOPC   C4A14322  16.441  15.549   7.322 -0.2071  0.0727 -0.2892
 1003YOPC   C1B14323  16.878  15.877   7.144 -0.1704 -0.0173 -0.1203
 1003YOPC   C2B14324  16.877  16.022   7.604  0.0028  0.0500 -0.2055
 1003YOPC   D3B14325  16.801  15.629   7.907  0.1073  0.4025  0.0774
 1003YOPC   C4B14326  16.807  15.224   7.883 -0.0612  0.3422  0.0359
 1004YOPC   NC314327   4.043  16.472   6.383 -0.2082 -0.1597  0.0603
 1004YOPC   PO414328   4.008  16.900   6.248 -0.1867 -0.3587  0.0214
 1004YOPC   GL114329   3.661  16.982   6.583  0.0015 -0.3857 -0.1957
 1004YOPC   GL214330   3.668  16.709   6.628 -0.2735  0.0080 -0.1422
 1004YOPC   C1A14331   3.853  17.007   7.077 -0.0278  0.2780  0.0802
 1004YOPC   D2A14332   4.142  16.858   7.413  0.2561 -0.0207  0.0064
 1004YOPC   C3A14333   3.986  16.732   7.800  0.0997 -0.3608  0.2418
 1004YOPC   C4A14334   3.971  16.962   8.200 -0.1005 -0.3554 -0.1436
 1004YOPC   C1B14335   3.712  16.559   6.949 -0.3553 -0.0636  0.0095
 1004YOPC   C2B14336   3.657  16.580   7.369  0.0595  0.0058  0.0154
 1004YOPC   D3B14337   3.285  16.490   7.625 -0.0728  0.2733 -0.1772
 1004YOPC   C4B14338   3.075  16.210   7.889 -0.1199 -0.0300 -0.4798
 1005YOPC   NC314339  14.439  10.681   6.344 -0.0196 -0.1437  0.0577
 1005YOPC   PO414340  14.719  10.421   6.209 -0.0021 -0.1444  0.1613
 1005YOPC   GL114341  14.868  10.629   6.579 -0.1839  0.2706  0.1874
 1005YOPC   GL214342  14.666  10.421   6.790 -0.2295 -0.0281 -0.1132
 1005YOPC   C1A14343  15.025  10.762   6.939  0.2200 -0.2123  0.1617
 1005YOPC   D2A14344  15.039  10.641   7.213  0.1723  0.0367 -0.1681
 1005YOPC   C3A14345  14.867  10.809   7.683 -0.2462  0.1818 -0.1386
 1005YOPC   C4A14346  14.981  11.019   8.095 -0.5837  0.0488  0.1109
 1005YOPC   C1B14347  14.539  10.761   7.126 -0.4107  0.0307 -0.1043
 1005YOPC   C2B14348  14.351  11.177   7.259  0.1398 -0.1032 -0.0788
 1005YOPC   D3B14349  14.363  11.376   7.613 -0.1387  0.0050 -0.3353
 1005YOPC   C4B14350  14.165  11.681   7.800 -0.5031 -0.0140 -0.1276
 1006YOPC   NC314351  12.213  13.436   5.833 -0.0553 -0.1528  0.2561
 1006YOPC   PO414352  11.919  13.807   5.620  0.0292 -0.0611  0.0359
 1006YOPC   GL114353  11.721  13.650   6.076 -0.2410  0.0139  0.0036
 1006YOPC   GL214354  11.708  13.871   6.294 -0.0064 -0.2442  0.0975
 1006YOPC   C1A14355  11.767  13.403   6.487 -0.1190  0.0931 -0.1062
 1006YOPC   D2A14356  11.498  13.265   6.799  0.1012  0.1830 -0.3313
 1006YOPC   C3A14357  11.321  13.491   7.166 -0.0301 -0.0697 -0.1453
 1006YOPC   C4A14358  11.180  13.733   7.513  0.4094  0.0551  0.0077
 1006YOPC   C1B14359  11.448  13.758   6.736 -0.0298  0.0740  0.0315
 1006YOPC   C2B14360  11.277  14.047   7.089  0.3684 -0.3182  0.0910
 1006YOPC   D3B14361  10.962  14.409   7.040 -0.2996  0.0929  0.1279
 1006YOPC   C4B14362  10.906  14.763   6.809 -0.0181 -0.0047  0.0080
 1007YOPC   NC314363  11.645   2.707   6.008  0.0673  0.1412  0.0651
 1007YOPC   PO414364  11.190   2.661   5.892  0.1133 -0.0120 -0.1196
 1007YOPC   GL114365  11.256   2.799   6.259  0.1465  0.1307 -0.1035
 1007YOPC   GL214366  10.888   2.653   6.344  0.0095 -0.1715  0.0667
 1007YOPC   C1A14367  11.221   2.556   6.701  0.0706  0.0627  0.2903
 1007YOPC   D2A14368  11.222   2.681   7.221  0.2707  0.1502 -0.1027
 1007YOPC   C3A14369  10.700   2.768   7.267  0.5545 -0.1700  0.1893
 1007YOPC   C4A14370  10.477   2.735   7.646  0.0820  0.1138  0.3082
 1007YOPC   C1B14371  10.723   2.507   6.806 -0.2010 -0.0246 -0.2450
 1007YOPC   C2B14372  10.803   2.286   7.230 -0.0588  0.0457  0.3872
 1007YOPC   D3B14373  10.917   2.517   7.691  0.1765  0.1105  0.3110
 1007YOPC   C4B14374  10.978   2.538   8.157  0.1291 -0.0602  0.4272
 1008YOPC   NC314375  13.540  16.447   6.007  0.1353  0.1233  0.1889
 1008YOPC   PO414376  13.250  16.638   6.377  0.4449 -0.1082  0.1700
 1008YOPC   GL114377  13.421  16.792   6.800  0.1120 -0.1604  0.1660
 1008YOPC   GL214378  13.699  16.671   6.905  0.0378 -0.2383  0.1262
 1008YOPC   C1A14379  13.265  16.782   7.258 -0.1202  0.0651  0.1648
 1008YOPC   D2A14380  13.157  16.816   7.727  0.0656 -0.0497  0.3282
 1008YOPC   C3A14381  13.236  16.452   8.018  0.0681 -0.0140  0.0563
 1008YOPC   C4A14382  13.313  16.368   8.353  0.1458  0.2578 -0.0542
 1008YOPC   C1B14383  13.973  16.810   7.273  0.1884 -0.1235 -0.1154
 1008YOPC   C2B14384  14.029  16.719   7.630  0.4074  0.0346  0.0500
 1008YOPC   D3B14385  13.654  16.742   7.949 -0.1455 -0.1227 -0.3122
 1008YOPC   C4B14386  13.847  16.682   8.354  0.1029 -0.0096  0.1447
 1009YOPC   NC314387  14.859   4.933   6.392  0.1068  0.2136  0.1157
 1009YOPC   PO414388  14.586   4.626   6.307 -0.1751  0.0211 -0.1472
 1009YOPC   GL114389  14.724   4.530   6.672 -0.0458 -0.1908  0.2510
 1009YOPC   GL214390  14.925   4.340   6.736 -0.5088  0.0447 -0.1173
 1009YOPC   C1A14391  14.820   4.759   7.120  0.3040 -0.0510  0.1951
 1009YOPC   D2A14392  14.668   4.709   7.643 -0.0647  0.0136  0.1665
 1009YOPC   C3A14393  14.731   4.907   7.994 -0.1695 -0.2051  0.1705
 1009YOPC   C4A14394  14.977   5.126   8.323 -0.2473  0.0635 -0.3283
 1009YOPC   C1B14395  14.747   4.308   7.169 -0.2194  0.0748 -0.0319
 1009YOPC   C2B14396  14.674   4.162   7.527 -0.3377  0.1749 -0.0231
 1009YOPC   D3B14397  14.656   4.265   7.864  0.0753 -0.2286 -0.0331
 1009YOPC   C4B14398  14.499   4.439   8.301 -0.1621  0.1942 -0.2288
 1010YOPC   NC314399  17.928  11.477   5.796 -0.0450 -0.0760  0.1715
 1010YOPC   PO414400  17.888  11.518   6.236  0.3492 -0.1055  0.1388
 1010YOPC   GL114401  18.139  11.509   6.494 -0.0450 -0.1583  0.2441
 1010YOPC   GL214402  18.395  11.527   6.462 -0.1222 -0.0829  0.2189
 1010YOPC   C1A14403  18.186  11.697   6.972 -0.0839 -0.1366  0.0366
 1010YOPC   D2A14404  18.382  11.903   7.355 -0.3388 -0.0166 -0.1094
 1010YOPC   C3A14405  18.275  11.655   7.658  0.0481  0.1732  0.1763
 1010YOPC   C4A14406  17.993  11.715   7.981  0.0403  0.0119 -0.0589
 1010YOPC   C1B14407  18.589  11.405   6.811 -0.0418 -0.0679  0.5500
 1010YOPC   C2B14408  18.877  10.974   6.864  0.1095 -0.0358 -0.2592
 1010YOPC   D3B14409  18.850  10.571   6.787 -0.1082 -0.2576  0.2636
 1010YOPC   C4B14410  18.677  10.233   7.018  0.0898  0.0772 -0.1546
 1011YOPC   NC314411  16.551   3.732   6.639 -0.2717  0.0257 -0.0022
 1011YOPC   PO414412  16.675   3.347   6.582 -0.0905 -0.3386 -0.1530
 1011YOPC   GL114413  16.773   3.383   6.994  0.2079  0.2335 -0.0842
 1011YOPC   GL214414  16.649   3.194   7.214 -0.0797 -0.1509  0.0715
 1011YOPC   C1A14415  16.960   3.532   7.333  0.2005 -0.0863 -0.0303
 1011YOPC   D2A14416  16.995   3.661   7.770  0.2135 -0.0102 -0.3349
 1011YOPC   C3A14417  16.549   3.825   7.815  0.1350 -0.0465  0.0679
 1011YOPC   C4A14418  16.513   3.989   8.318 -0.2041  0.0247  0.1372
 1011YOPC   C1B14419  16.618   2.917   7.602 -0.1287 -0.1925 -0.2417
 1011YOPC   C2B14420  16.688   2.763   7.986  0.1078  0.1925  0.2565
 1011YOPC   D3B14421  16.407   2.494   8.262  0.1451  0.1382  0.1365
 1011YOPC   C4B14422  16.080   2.337   8.423 -0.1359 -0.0274  0.2246
 1012YOPC   NC314423   5.421   1.246   5.680  0.0184 -0.0857  0.0691
 1012YOPC   PO414424   5.429   1.645   5.686 -0.2400 -0.4055  0.1064
 1012YOPC   GL114425   5.296   1.720   6.129  0.2076 -0.0789 -0.0203
 1012YOPC   GL214426   5.225   2.025   6.152 -0.0679  0.0806  0.2867
 1012YOPC   C1A14427   5.431   1.517   6.608  0.1308 -0.0725 -0.1339
 1012YOPC   D2A14428   5.755   1.261   6.716  0.0199 -0.0114  0.3149
 1012YOPC   C3A14429   5.845   1.155   7.178 -0.0625 -0.2681  0.3097
 1012YOPC   C4A14430   5.516   1.194   7.566 -0.3622  0.1647 -0.0466
 1012YOPC   C1B14431   5.113   1.992   6.518  0.1422 -0.0603  0.1052
 1012YOPC   C2B14432   5.325   1.913   6.899 -0.2624  0.0205 -0.1678
 1012YOPC   D3B14433   5.259   2.197   7.305 -0.0924  0.2604  0.2176
 1012YOPC   C4B14434   5.441   2.373   7.762  0.1611  0.0481 -0.0290
 1013YOPC   NC314435   8.577   6.999   5.851 -0.2720 -0.1777  0.3168
 1013YOPC   PO414436   8.720   7.356   5.878 -0.2420 -0.0324  0.0969
 1013YOPC   GL114437   8.557   7.494   6.208 -0.1091 -0.0180 -0.1437
 1013YOPC   GL214438   8.685   7.842   6.223 -0.0972  0.3764 -0.1423
 1013YOPC   C1A14439   8.683   7.659   6.639  0.1664  0.1865 -0.0402
 1013YOPC   D2A14440   8.820   7.579   7.024  0.2031  0.0216  0.0912
 1013YOPC   C3A14441   9.227   7.656   7.249  0.2323 -0.1895 -0.1461
 1013YOPC   C4A14442   9.513   7.521   7.385 -0.0843  0.0164  0.2866
 1013YOPC   C1B14443   8.544   8.117   6.547  0.0775  0.1158  0.1491
 1013YOPC   C2B14444   8.496   8.247   6.944  0.0935 -0.0740  0.0777
 1013YOPC   D3B14445   8.004   8.288   7.239  0.2797  0.1204  0.4753
 1013YOPC   C4B14446   7.893   7.937   7.411 -0.2977  0.0157 -0.4751
 1014YOPC   NC314447  11.359   1.142   6.235  0.1955 -0.1980 -0.2850
 1014YOPC   PO414448  11.627   0.796   6.405 -0.0733 -0.0299  0.0726
 1014YOPC   GL114449  11.628   1.104   6.626  0.1548 -0.2277 -0.0963
 1014YOPC   GL214450  11.850   1.273   6.649  0.1905 -0.2724 -0.0552
 1014YOPC   C1A14451  11.436   1.219   7.017 -0.0415  0.0434  0.2576
 1014YOPC   D2A14452  11.439   1.491   7.413 -0.0658  0.1305 -0.2741
 1014YOPC   C3A14453  11.397   1.583   7.828 -0.1549 -0.0543  0.0916
 1014YOPC   C4A14454  11.256   1.382   8.153  0.3374  0.1971 -0.3630
 1014YOPC   C1B14455  11.927   1.399   7.069  0.0449  0.0460 -0.0800
 1014YOPC   C2B14456  11.959   1.482   7.470 -0.0772  0.2363  0.0247
 1014YOPC   D3B14457  12.099   1.164   7.840 -0.2041 -0.0580 -0.0986
 1014YOPC   C4B14458  12.379   1.158   8.200  0.1020  0.0125 -0.3180
 1015YOPC   NC314459   5.745   3.202   6.305  0.0531  0.1000  0.0907
 1015YOPC   PO414460   6.246   3.251   6.463 -0.1377  0.1007  0.1391
 1015YOPC   GL114461   6.423   2.980   6.762 -0.1711 -0.1096  0.2144
 1015YOPC   GL214462   6.744   2.984   6.753 -0.2979  0.0131 -0.2458
 1015YOPC   C1A14463   6.330   2.880   7.162  0.0464 -0.0827 -0.0146
 1015YOPC   D2A14464   6.184   2.949   7.515  0.2121  0.0219  0.0081
 1015YOPC   C3A14465   6.285   3.107   7.773  0.2560 -0.0065 -0.2404
 1015YOPC   C4A14466   6.230   3.505   7.749 -0.0819 -0.0012  0.3155
 1015YOPC   C1B14467   6.806   2.943   7.185 -0.2633 -0.3047 -0.1259
 1015YOPC   C2B14468   6.933   3.199   7.532  0.3384  0.0105 -0.0459
 1015YOPC   D3B14469   6.729   3.516   7.792 -0.0181 -0.2563  0.1156
 1015YOPC   C4B14470   6.573   3.854   7.579 -0.2451 -0.1071  0.0016
 1016YOPC   NC314471  12.634   1.438   5.974  0.2645  0.0848 -0.2041
 1016YOPC   PO414472  12.314   1.449   6.320 -0.1915  0.2249  0.0879
 1016YOPC   GL114473  12.423   1.354   6.788 -0.1494  0.3641 -0.1250
 1016YOPC   GL214474  12.667   1.553   6.846 -0.1034 -0.1465  0.2514
 1016YOPC   C1A14475  12.423   1.379   7.209 -0.2348 -0.0036  0.0546
 1016YOPC   D2A14476  12.503   1.371   7.541 -0.0770 -0.1312 -0.0009
 1016YOPC   C3A14477  12.797   1.487   7.898  0.1721 -0.1746  0.1032
 1016YOPC   C4A14478  12.806   1.459   8.330 -0.0035  0.1466 -0.0432
 1016YOPC   C1B14479  12.763   1.844   7.037  0.1031 -0.0312 -0.2026
 1016YOPC   C2B14480  13.002   2.195   7.208  0.2171 -0.1555  0.0363
 1016YOPC   D3B14481  13.255   2.222   7.368 -0.2770 -0.0718  0.4710
 1016YOPC   C4B14482  13.409   2.246   7.613  0.4165  0.1017 -0.0965
 1017YOPC   NC314483  17.823   7.906   6.277 -0.0039 -0.0892 -0.1320
 1017YOPC   PO414484  17.451   7.761   6.159 -0.1621  0.1593 -0.0549
 1017YOPC   GL114485  17.617   7.548   6.595  0.5143  0.2648  0.1102
 1017YOPC   GL214486  17.504   7.295   6.686  0.0673 -0.2087 -0.0293
 1017YOPC   C1A14487  17.634   7.458   7.130 -0.0886 -0.1397  0.3410
 1017YOPC   D2A14488  17.597   7.433   7.526  0.2334 -0.3069 -0.1864
 1017YOPC   C3A14489  17.171   7.334   7.650 -0.3787  0.0689 -0.2275
 1017YOPC   C4A14490  16.989   7.442   8.082  0.0557  0.1177 -0.1606
 1017YOPC   C1B14491  17.427   6.881   6.832 -0.1028  0.1368 -0.0628
 1017YOPC   C2B14492  17.090   6.604   7.144 -0.1818 -0.3650  0.0257
 1017YOPC   D3B14493  17.157   6.281   7.438  0.1657 -0.1357  0.0693
 1017YOPC   C4B14494  16.867   6.040   7.720  0.4034 -0.1575 -0.3022
 1018YOPC   NC314495  10.099   0.407   6.078  0.2307 -0.1143  0.2706
 1018YOPC   PO414496   9.806   0.639   6.315  0.2789  0.0128 -0.2001
 1018YOPC   GL114497   9.966   0.324   6.576 -0.1576  0.1295 -0.0793
 1018YOPC   GL214498  10.067   0.061   6.414 -0.0397 -0.1200 -0.1531
 1018YOPC   C1A14499   9.972   0.260   6.948  0.1153 -0.0891 -0.1062
 1018YOPC   D2A14500   9.865   0.274   7.303 -0.1337 -0.0795  0.1539
 1018YOPC   C3A14501   9.865   0.439   7.720  0.0909  0.0975  0.1019
 1018YOPC   C4A14502   9.871   0.912   7.879  0.1558  0.2607  0.1019
 1018YOPC   C1B14503  10.179  -0.111   6.771 -0.1544 -0.0386  0.1201
 1018YOPC   C2B14504  10.237  -0.124   7.220 -0.0906 -0.0934  0.2590
 1018YOPC   D3B14505  10.585  -0.239   7.527  0.2198  0.1848  0.0025
 1018YOPC   C4B14506  10.910  -0.516   7.789 -0.1089 -0.2382  0.2199
 1019YOPC   NC314507   1.622  16.498   6.224 -0.1882 -0.1653  0.0239
 1019YOPC   PO414508   1.414  16.206   6.416 -0.0371 -0.1016  0.0598
 1019YOPC   GL114509   1.261  16.001   6.779 -0.0535  0.1019 -0.0569
 1019YOPC   GL214510   1.530  15.923   6.812 -0.1638 -0.1987 -0.0683
 1019YOPC   C1A14511   1.032  15.923   7.153 -0.0442 -0.0030 -0.0634
 1019YOPC   D2A14512   0.791  15.977   7.549 -0.1216 -0.1219  0.1738
 1019YOPC   C3A14513   0.908  15.850   7.966  0.0034 -0.3037 -0.4142
 1019YOPC   C4A14514   1.075  15.723   8.374 -0.0390 -0.1255  0.0532
 1019YOPC   C1B14515   1.623  15.754   7.166 -0.0762 -0.2063  0.0268
 1019YOPC   C2B14516   1.728  15.522   7.552  0.0762  0.0826  0.3044
 1019YOPC   D3B14517   1.629  15.335   7.895 -0.1187 -0.0049  0.1158
 1019YOPC   C4B14518   1.696  15.479   8.376 -0.3243  0.2067 -0.1845
 1020YOPC   NC314519   8.669   5.161   5.906 -0.1899 -0.0774  0.3949
 1020YOPC   PO414520   8.411   4.793   5.771 -0.3306  0.0847  0.1728
 1020YOPC   GL114521   8.549   4.822   6.234 -0.3322  0.0135  0.0201
 1020YOPC   GL214522   8.769   4.982   6.417  0.0407  0.0736 -0.1405
 1020YOPC   C1A14523   8.415   4.775   6.695  0.0650  0.1795  0.0655
 1020YOPC   D2A14524   8.258   4.635   7.045  0.0857  0.1756 -0.2745
 1020YOPC   C3A14525   8.492   4.466   7.340 -0.0964  0.1259 -0.0248
 1020YOPC   C4A14526   8.629   4.493   7.798  0.2462  0.1586  0.0938
 1020YOPC   C1B14527   9.150   5.299   6.383 -0.0230  0.3614 -0.0067
 1020YOPC   C2B14528   9.371   5.402   6.787 -0.1370 -0.3496  0.0687
 1020YOPC   D3B14529   9.153   5.645   7.139  0.0951  0.2225 -0.2495
 1020YOPC   C4B14530   8.916   5.953   7.116  0.0312  0.1447 -0.2057
 1021YOPC   NC314531   2.748  10.674   5.847  0.1443  0.0201  0.0446
 1021YOPC   PO414532   3.228  10.865   5.840  0.1500  0.1866  0.0283
 1021YOPC   GL114533   3.053  10.831   6.234  0.0824 -0.1452 -0.0881
 1021YOPC   GL214534   2.804  11.096   6.415  0.0887  0.2045  0.1014
 1021YOPC   C1A14535   3.283  10.835   6.576 -0.0016  0.0696  0.0391
 1021YOPC   D2A14536   3.339  10.776   6.928  0.0122 -0.1492  0.0455
 1021YOPC   C3A14537   3.532  11.010   7.170 -0.1323  0.1783 -0.1153
 1021YOPC   C4A14538   3.374  11.297   7.381 -0.1492 -0.2435 -0.1460
 1021YOPC   C1B14539   2.960  11.204   6.807 -0.1172  0.1515  0.0649
 1021YOPC   C2B14540   2.820  11.377   7.123  0.0634  0.0592  0.0102
 1021YOPC   D3B14541   2.741  11.247   7.550  0.2948  0.2509  0.2424
 1021YOPC   C4B14542   2.943  11.065   7.928 -0.2001  0.1534 -0.2413
 1022YOPC   NC314543  11.455   4.622   6.237  0.1491  0.1784 -0.0527
 1022YOPC   PO414544  11.587   4.145   6.348  0.1894 -0.0960 -0.2840
 1022YOPC   GL114545  11.374   4.089   6.748  0.2104  0.1513 -0.1800
 1022YOPC   GL214546  11.133   4.303   6.600 -0.0570 -0.1145 -0.1569
 1022YOPC   C1A14547  11.261   4.134   7.211  0.0854  0.1819  0.2933
 1022YOPC   D2A14548  11.268   4.108   7.664 -0.0802 -0.0225 -0.2249
 1022YOPC   C3A14549  11.507   4.295   7.969  0.0469  0.0996  0.0247
 1022YOPC   C4A14550  11.469   4.530   8.347 -0.2303 -0.1501 -0.1769
 1022YOPC   C1B14551  11.031   4.605   6.990  0.2184 -0.3932 -0.1004
 1022YOPC   C2B14552  11.083   4.546   7.322 -0.3898  0.1416  0.4197
 1022YOPC   D3B14553  11.075   4.551   7.857  0.1504 -0.5302  0.0930
 1022YOPC   C4B14554  10.939   4.210   8.113  0.1592  0.2119  0.1964
 1023YOPC   NC314555   6.054   0.655   6.049 -0.0145  0.3710 -0.0222
 1023YOPC   PO414556   6.358   0.359   5.843  0.2585  0.2280 -0.2523
 1023YOPC   GL114557   6.455   0.492   6.309 -0.0743  0.0272 -0.0412
 1023YOPC   GL214558   6.522   0.833   6.379  0.0357 -0.0078 -0.0940
 1023YOPC   C1A14559   6.351   0.199   6.658  0.0814  0.3361 -0.0244
 1023YOPC   D2A14560   5.883  -0.043   6.980 -0.3976 -0.2451  0.0533
 1023YOPC   C3A14561   5.497  -0.257   6.922 -0.0706 -0.3208 -0.0609
 1023YOPC   C4A14562   5.143  -0.461   6.909  0.0403  0.2610  0.0213
 1023YOPC   C1B14563   6.573   0.636   6.802  0.0395 -0.1233 -0.0908
 1023YOPC   C2B14564   6.604   0.342   7.117  0.0859  0.0573  0.0513
 1023YOPC   D3B14565   6.381  -0.047   7.206  0.1158  0.0246 -0.1081
 1023YOPC   C4B14566   6.176  -0.501   7.188  0.0450  0.2370  0.2085
 1024YOPC   NC314567   3.260  11.932   6.292 -0.2203  0.2601  0.1295
 1024YOPC   PO414568   3.007  12.259   6.102 -0.0674 -0.0249 -0.2878
 1024YOPC   GL114569   3.072  12.435   6.388  0.0516 -0.0157  0.2301
 1024YOPC   GL214570   3.449  12.389   6.398 -0.0392  0.1246 -0.0346
 1024YOPC   C1A14571   3.089  12.600   6.728  0.1996 -0.3406 -0.0902
 1024YOPC   D2A14572   3.260  12.747   7.138 -0.0373 -0.2194 -0.0276
 1024YOPC   C3A14573   3.384  13.048   7.444 -0.1367  0.0899 -0.1581
 1024YOPC   C4A14574   3.554  13.273   7.761 -0.1662 -0.1317  0.0019
 1024YOPC   C1B14575   3.599  12.617   6.810 -0.0574  0.0624  0.0048
 1024YOPC   C2B14576   3.731  12.555   7.196 -0.1361  0.0000 -0.3537
 1024YOPC   D3B14577   3.520  12.603   7.574  0.4532  0.1148  0.0242
 1024YOPC   C4B14578   3.554  12.757   7.950  0.1846  0.2986 -0.2448
 1025YOPC   NC314579   2.544  13.663   6.136  0.2835 -0.1908 -0.0105
 1025YOPC   PO414580   2.223  13.882   5.976 -0.4627  0.2449  0.0475
 1025YOPC   GL114581   2.231  13.804   6.473 -0.1413  0.1149 -0.0537
 1025YOPC   GL214582   1.993  13.679   6.448  0.0729 -0.0773 -0.0521
 1025YOPC   C1A14583   2.317  13.773   6.953  0.1541  0.0590  0.0947
 1025YOPC   D2A14584   2.379  13.688   7.457 -0.0488  0.0928 -0.0255
 1025YOPC   C3A14585   2.750  13.451   7.548  0.2553 -0.1097  0.1958
 1025YOPC   C4A14586   2.894  13.166   7.644  0.0422 -0.0386 -0.0027
 1025YOPC   C1B14587   2.269  13.307   6.736  0.1869  0.0989 -0.0989
 1025YOPC   C2B14588   2.523  13.318   7.013  0.0851 -0.0113  0.0145
 1025YOPC   D3B14589   2.995  13.386   7.123 -0.2636  0.1874  0.2804
 1025YOPC   C4B14590   3.377  13.537   7.319  0.0502  0.2895  0.3168
 1026YOPC   NC314591   0.482   3.803   6.043 -0.0122  0.2800  0.0879
 1026YOPC   PO414592   0.691   3.502   6.430  0.1251 -0.0127 -0.0302
 1026YOPC   GL114593   0.878   3.713   6.779  0.0453  0.4167 -0.1048
 1026YOPC   GL214594   1.088   4.034   6.777  0.3835 -0.0215  0.0124
 1026YOPC   C1A14595   0.751   3.752   7.291 -0.0598 -0.5391  0.4489
 1026YOPC   D2A14596   0.577   3.845   7.718  0.3566  0.1162 -0.0309
 1026YOPC   C3A14597   0.877   3.640   8.024 -0.1673 -0.1008 -0.0889
 1026YOPC   C4A14598   0.678   3.887   8.312  0.3493  0.1828  0.1616
 1026YOPC   C1B14599   0.884   4.189   7.166 -0.1235 -0.1163  0.2558
 1026YOPC   C2B14600   0.927   4.210   7.630  0.0449  0.1063 -0.1727
 1026YOPC   D3B14601   0.508   4.282   7.956  0.0593 -0.3156 -0.1339
 1026YOPC   C4B14602   0.297   4.394   8.365  0.3097  0.1760 -0.3266
 1027YOPC   NC314603   1.317  15.757   6.265 -0.0697 -0.1498  0.1600
 1027YOPC   PO414604   1.603  15.546   6.036  0.1073 -0.0472 -0.1070
 1027YOPC   GL114605   1.740  15.535   6.467 -0.3084  0.2298 -0.0557
 1027YOPC   GL214606   1.956  15.371   6.419  0.1432  0.0802  0.4597
 1027YOPC   C1A14607   1.652  15.412   6.841 -0.5892  0.1043  0.1695
 1027YOPC   D2A14608   1.474  15.098   7.040 -0.2780  0.0582  0.0054
 1027YOPC   C3A14609   1.621  15.000   7.457 -0.0037  0.1240  0.2127
 1027YOPC   C4A14610   2.012  15.140   7.728 -0.2392  0.2233  0.0940
 1027YOPC   C1B14611   2.142  15.363   6.781 -0.1294  0.2436  0.0788
 1027YOPC   C2B14612   2.027  15.238   7.156 -0.5763 -0.1794 -0.0785
 1027YOPC   D3B14613   2.436  15.231   7.463  0.1560  0.1223  0.0149
 1027YOPC   C4B14614   2.652  15.408   7.756 -0.1316 -0.2137 -0.1557
 1028YOPC   NC314615  12.953   9.821   5.812 -0.0110  0.2544 -0.0142
 1028YOPC   PO414616  12.700   9.422   5.844  0.0872  0.0114 -0.4023
 1028YOPC   GL114617  13.026   9.278   6.265 -0.2416  0.0076 -0.0792
 1028YOPC   GL214618  12.851   9.140   6.503  0.1377 -0.1038 -0.0711
 1028YOPC   C1A14619  12.994   9.586   6.686  0.1343  0.1402  0.1908
 1028YOPC   D2A14620  13.267   9.698   6.819  0.2955 -0.3122 -0.2190
 1028YOPC   C3A14621  13.200   9.554   7.194  0.0515  0.1356 -0.2137
 1028YOPC   C4A14622  13.032   9.747   7.544  0.1618 -0.1207 -0.0407
 1028YOPC   C1B14623  12.870   9.142   6.936 -0.0512  0.1244  0.0395
 1028YOPC   C2B14624  12.774   9.294   7.426  0.0376  0.3230  0.2638
 1028YOPC   D3B14625  12.349   9.394   7.598 -0.1289 -0.1565 -0.0752
 1028YOPC   C4B14626  11.974   9.603   7.687  0.1954  0.1385  0.1642
 1029YOPC   NC314627  13.783  15.105   5.982 -0.0817  0.1621 -0.2535
 1029YOPC   PO414628  14.008  14.731   5.891  0.1784 -0.0108  0.1144
 1029YOPC   GL114629  14.014  14.768   6.323 -0.2288 -0.1287  0.1879
 1029YOPC   GL214630  14.023  15.042   6.551  0.1314 -0.0698 -0.1695
 1029YOPC   C1A14631  13.837  14.572   6.741 -0.1790 -0.0665 -0.2257
 1029YOPC   D2A14632  13.528  14.569   6.973  0.4196 -0.1754 -0.1919
 1029YOPC   C3A14633  13.477  14.676   7.460  0.0580 -0.2156  0.1957
 1029YOPC   C4A14634  13.272  14.708   7.917 -0.1437 -0.0521  0.2801
 1029YOPC   C1B14635  14.103  15.145   6.953  0.1186  0.2329 -0.0480
 1029YOPC   C2B14636  14.068  15.069   7.374 -0.0159 -0.0191  0.0370
 1029YOPC   D3B14637  13.724  15.058   7.634  0.5134 -0.1241 -0.1343
 1029YOPC   C4B14638  13.629  15.047   8.087 -0.2605  0.1642  0.1015
 1030YOPC   NC314639   7.742  12.546   5.508  0.2174 -0.1956  0.1654
 1030YOPC   PO414640   7.593  12.196   5.680  0.1507  0.0698 -0.1263
 1030YOPC   GL114641   7.646  12.346   6.011 -0.0345  0.2903  0.1539
 1030YOPC   GL214642   7.864  12.078   6.137 -0.0826  0.1195 -0.1038
 1030YOPC   C1A14643   7.835  12.615   6.348  0.2494  0.3924 -0.0221
 1030YOPC   D2A14644   8.213  12.751   6.705 -0.1525  0.1163 -0.0579
 1030YOPC   C3A14645   8.218  13.231   6.779  0.0950  0.1535  0.0649
 1030YOPC   C4A14646   7.932  13.615   6.533 -0.1421  0.0944  0.0568
 1030YOPC   C1B14647   8.152  11.815   6.502 -0.3782  0.2695  0.1968
 1030YOPC   C2B14648   8.246  11.568   6.817 -0.1390 -0.3146  0.0223
 1030YOPC   D3B14649   8.336  11.262   7.193 -0.0348 -0.0535  0.1274
 1030YOPC   C4B14650   8.414  10.922   7.558  0.0462  0.0746  0.0767
 1031YOPC   NC314651   5.305  14.351   5.655 -0.4598  0.1683  0.0020
 1031YOPC   PO414652   5.054  14.731   5.869  0.0038 -0.1467 -0.0795
 1031YOPC   GL114653   5.021  14.571   6.250 -0.0311 -0.0184  0.2323
 1031YOPC   GL214654   4.944  14.361   6.160  0.0694  0.0735  0.1407
 1031YOPC   C1A14655   4.982  14.658   6.639  0.2725  0.4372 -0.0987
 1031YOPC   D2A14656   4.537  14.690   6.951 -0.0749 -0.0036  0.1653
 1031YOPC   C3A14657   4.691  14.820   7.436 -0.0110 -0.1069  0.1198
 1031YOPC   C4A14658   4.785  14.586   7.897  0.0594  0.0596  0.0777
 1031YOPC   C1B14659   4.604  14.312   6.398  0.0439  0.1991 -0.0227
 1031YOPC   C2B14660   4.350  14.267   6.779 -0.0947  0.0178 -0.2791
 1031YOPC   D3B14661   4.076  14.501   6.977 -0.0065 -0.1708  0.1078
 1031YOPC   C4B14662   3.754  14.644   7.185 -0.0954  0.0580  0.0885
 1032YOPC   NC314663  13.417  15.799   6.164  0.1382  0.2528 -0.1726
 1032YOPC   PO414664  13.776  16.038   6.165  0.1263 -0.0745  0.1104
 1032YOPC   GL114665  13.449  16.184   6.531  0.1142  0.1025  0.0716
 1032YOPC   GL214666  13.437  15.843   6.664 -0.1914  0.0244 -0.1554
 1032YOPC   C1A14667  13.450  16.238   6.938 -0.4462  0.0293 -0.1973
 1032YOPC   D2A14668  13.495  16.014   7.284  0.1092  0.1912 -0.0990
 1032YOPC   C3A14669  13.400  15.863   7.718  0.7029  0.0436  0.2130
 1032YOPC   C4A14670  13.023  15.971   8.067 -0.0789  0.2130 -0.1692
 1032YOPC   C1B14671  13.094  16.014   6.825  0.0408  0.2671 -0.1612
 1032YOPC   C2B14672  12.765  15.923   7.123  0.2701 -0.2417  0.1049
 1032YOPC   D3B14673  12.592  15.672   7.401  0.1486 -0.2040  0.2108
 1032YOPC   C4B14674  12.714  15.296   7.664  0.1884 -0.0009 -0.0762
 1033YOPC   NC314675   1.995   9.464   5.702 -0.1968  0.2195 -0.0538
 1033YOPC   PO414676   1.744   9.510   6.150 -0.0594 -0.0965  0.1639
 1033YOPC   GL114677   1.665   9.818   6.475 -0.0402 -0.1159  0.1174
 1033YOPC   GL214678   1.775  10.213   6.553 -0.2743 -0.0846 -0.0156
 1033YOPC   C1A14679   1.455   9.799   6.840 -0.0569 -0.3181 -0.1757
 1033YOPC   D2A14680   1.659  10.045   7.153  0.2072  0.0058  0.0885
 1033YOPC   C3A14681   1.761  10.474   7.146 -0.0056 -0.0311  0.0672
 1033YOPC   C4A14682   1.836  10.894   7.403  0.2811  0.0690 -0.0586
 1033YOPC   C1B14683   1.996   9.992   6.807 -0.4368  0.2059 -0.1610
 1033YOPC   C2B14684   2.350   9.739   6.946 -0.1105 -0.1018  0.3745
 1033YOPC   D3B14685   2.445   9.801   7.467  0.1874 -0.4728 -0.0979
 1033YOPC   C4B14686   2.855   9.727   7.721  0.0186  0.0767  0.2578
 1034YOPC   NC314687   7.123  16.648   6.250  0.0356  0.0740 -0.0419
 1034YOPC   PO414688   6.831  16.236   6.291 -0.0316 -0.4150 -0.2192
 1034YOPC   GL114689   6.653  16.181   6.665  0.1661  0.1106  0.3684
 1034YOPC   GL214690   6.841  16.280   6.932  0.1467  0.0013  0.0909
 1034YOPC   C1A14691   6.435  16.027   7.101  0.1470  0.0893  0.3206
 1034YOPC   D2A14692   6.205  16.049   7.504 -0.0967 -0.0097 -0.2796
 1034YOPC   C3A14693   6.088  15.781   7.834  0.1095 -0.2479  0.0448
 1034YOPC   C4A14694   6.102  15.831   8.272  0.1084  0.0747  0.0502
 1034YOPC   C1B14695   6.762  16.347   7.339  0.1462  0.0251 -0.4032
 1034YOPC   C2B14696   6.874  16.211   7.724  0.6776 -0.0455 -0.1573
 1034YOPC   D3B14697   7.163  16.384   7.951  0.2343 -0.2136  0.1395
 1034YOPC   C4B14698   7.408  16.593   8.263 -0.1896 -0.2832  0.1026
 1035YOPC   NC314699   8.648   0.417   5.847 -0.2073 -0.5408 -0.0795
 1035YOPC   PO414700   8.382   0.379   6.080  0.0124  0.0111 -0.1530
 1035YOPC   GL114701   8.232   0.161   6.399 -0.1645  0.2153  0.1890
 1035YOPC   GL214702   8.144  -0.081   6.653 -0.2498 -0.1387  0.3548
 1035YOPC   C1A14703   8.010   0.378   6.800  0.2049  0.2869 -0.0529
 1035YOPC   D2A14704   7.890   0.778   6.752  0.0783  0.0896  0.1111
 1035YOPC   C3A14705   8.099   1.180   6.829 -0.0311  0.3788 -0.2886
 1035YOPC   C4A14706   8.098   1.471   7.091 -0.0969 -0.0338 -0.2474
 1035YOPC   C1B14707   8.124  -0.044   7.012  0.2887  0.0399  0.1935
 1035YOPC   C2B14708   8.159  -0.200   7.440  0.2871 -0.1638  0.0394
 1035YOPC   D3B14709   7.917  -0.143   7.716  0.1281  0.2550  0.0874
 1035YOPC   C4B14710   7.918  -0.056   8.072 -0.2386  0.0382  0.0191
 1036YOPC   NC314711  16.271  15.991   6.138  0.3521 -0.0905  0.0640
 1036YOPC   PO414712  16.059  15.848   6.478  0.1252  0.0139  0.1866
 1036YOPC   GL114713  15.845  15.593   6.666 -0.0941  0.1448  0.0701
 1036YOPC   GL214714  15.801  15.290   6.783  0.0791  0.0365 -0.2390
 1036YOPC   C1A14715  15.410  15.647   6.883 -0.1479 -0.1491  0.1927
 1036YOPC   D2A14716  15.020  15.828   7.082  0.0105  0.1112  0.1546
 1036YOPC   C3A14717  14.680  15.640   7.018  0.1572  0.2491 -0.0529
 1036YOPC   C4A14718  14.307  15.528   7.234 -0.2313  0.2435 -0.1870
 1036YOPC   C1B14719  15.918  15.414   7.211  0.3039  0.1342  0.0189
 1036YOPC   C2B14720  16.040  15.441   7.624 -0.2651  0.2061 -0.0542
 1036YOPC   D3B14721  16.176  15.116   7.953 -0.1079  0.0088 -0.0783
 1036YOPC   C4B14722  16.532  15.069   8.275 -0.0850  0.0827 -0.1862
 1037YOPC   NC314723   7.592  16.424   5.962 -0.0520 -0.3285 -0.0393
 1037YOPC   PO414724   7.499  16.913   6.154 -0.0298  0.0344  0.0501
 1037YOPC   GL114725   7.576  16.523   6.507 -0.1457 -0.0739 -0.0339
 1037YOPC   GL214726   7.282  16.365   6.578  0.2951  0.4501  0.3122
 1037YOPC   C1A14727   7.704  16.376   6.887 -0.0039 -0.0738  0.2212
 1037YOPC   D2A14728   7.710  16.551   7.202 -0.0151 -0.0597  0.0757
 1037YOPC   C3A14729   8.028  16.440   7.501  0.1002 -0.1231 -0.3441
 1037YOPC   C4A14730   8.149  16.300   7.914 -0.1624 -0.1751  0.4077
 1037YOPC   C1B14731   7.210  16.586   6.921  0.1315  0.1869 -0.1565
 1037YOPC   C2B14732   7.285  16.545   7.409 -0.1998  0.0876  0.0038
 1037YOPC   D3B14733   7.206  16.867   7.825 -0.0810  0.0075  0.0859
 1037YOPC   C4B14734   7.302  17.106   8.273  0.0737  0.0044  0.2553
 1038YOPC   NC314735   7.264   7.533   5.917  0.3711 -0.2313 -0.0899
 1038YOPC   PO414736   6.837   7.410   5.927 -0.4563 -0.2889 -0.0177
 1038YOPC   GL114737   7.013   7.170   6.275  0.0387 -0.1018  0.1813
 1038YOPC   GL214738   7.353   7.138   6.247  0.1368  0.1476 -0.1845
 1038YOPC   C1A14739   6.819   7.190   6.648 -0.1161  0.2550  0.3517
 1038YOPC   D2A14740   6.752   6.938   7.026  0.1695 -0.1244  0.0621
 1038YOPC   C3A14741   6.622   7.131   7.504  0.1511  0.2593  0.3336
 1038YOPC   C4A14742   6.632   7.221   7.894 -0.0142  0.1941 -0.0637
 1038YOPC   C1B14743   7.315   7.040   6.653 -0.0225  0.1956 -0.0226
 1038YOPC   C2B14744   7.653   6.820   6.993 -0.1168  0.1817 -0.0492
 1038YOPC   D3B14745   7.612   6.762   7.437 -0.1368 -0.9097  0.4568
 1038YOPC   C4B14746   7.627   6.801   7.849 -0.3938 -0.0819  0.2728
 1039YOPC   NC314747   1.327   4.117   5.927 -0.1512 -0.0071 -0.3447
 1039YOPC   PO414748   1.487   4.002   6.376 -0.0383 -0.0231  0.0613
 1039YOPC   GL114749   1.576   3.966   6.824  0.0138 -0.3590  0.1052
 1039YOPC   GL214750   1.807   3.664   6.875 -0.0453  0.0945  0.3199
 1039YOPC   C1A14751   1.740   4.031   7.344  0.0763  0.1475 -0.1611
 1039YOPC   D2A14752   1.786   4.116   7.842 -0.0957 -0.3137  0.0560
 1039YOPC   C3A14753   1.926   3.984   8.084  0.0406 -0.1088  0.0158
 1039YOPC   C4A14754   1.895   3.808   8.447  0.5911 -0.0023  0.1464
 1039YOPC   C1B14755   1.811   3.423   7.165  0.0485 -0.1821 -0.4274
 1039YOPC   C2B14756   1.590   3.118   7.486 -0.1347 -0.0725 -0.2068
 1039YOPC   D3B14757   1.789   3.072   7.805 -0.0123 -0.4372 -0.0243
 1039YOPC   C4B14758   1.887   2.769   8.119 -0.0404 -0.0577 -0.0319
 1040YOPC   NC314759   0.193   0.465   6.260  0.1689  0.1730 -0.4791
 1040YOPC   PO414760   0.494   0.884   6.307  0.1286 -0.1980  0.3627
 1040YOPC   GL114761   0.317   0.852   6.694 -0.1219 -0.1098 -0.2299
 1040YOPC   GL214762  -0.007   0.823   6.633 -0.1503 -0.2352  0.2788
 1040YOPC   C1A14763   0.209   1.004   7.066  0.2021 -0.3807  0.1229
 1040YOPC   D2A14764   0.188   0.821   7.461 -0.1887  0.1771 -0.0726
 1040YOPC   C3A14765   0.233   1.060   7.756 -0.2357 -0.0994 -0.2276
 1040YOPC   C4A14766   0.545   1.294   7.913  0.0591  0.1949 -0.2002
 1040YOPC   C1B14767  -0.166   0.701   7.055  0.1071  0.0395 -0.0798
 1040YOPC   C2B14768  -0.279   0.695   7.556 -0.3124  0.0351 -0.2705
 1040YOPC   D3B14769  -0.013   0.631   7.974  0.1540 -0.0252 -0.4538
 1040YOPC   C4B14770   0.304   0.346   8.245  0.1151 -0.1115 -0.1140
 1041YOPC   NC314771   5.189   4.010   6.126 -0.0180 -0.4023  0.1179
 1041YOPC   PO414772   5.422   3.667   6.118  0.1558  0.1168 -0.1955
 1041YOPC   GL114773   5.366   3.714   6.551 -0.0696  0.0394  0.0591
 1041YOPC   GL214774   5.536   3.485   6.678  0.1198  0.1755 -0.1253
 1041YOPC   C1A14775   5.605   3.999   6.765 -0.3002  0.2565  0.2198
 1041YOPC   D2A14776   5.372   4.090   7.238  0.3275 -0.1935  0.0576
 1041YOPC   C3A14777   5.673   4.187   7.612 -0.1252  0.3584  0.1613
 1041YOPC   C4A14778   6.078   4.085   7.775 -0.1339 -0.2415  0.2896
 1041YOPC   C1B14779   5.478   3.599   7.106  0.0965 -0.0451  0.0815
 1041YOPC   C2B14780   5.014   3.742   7.321 -0.2579 -0.1132  0.0572
 1041YOPC   D3B14781   4.747   3.801   7.765  0.1033  0.1136  0.1400
 1041YOPC   C4B14782   4.650   3.839   8.186  0.1862 -0.1592 -0.2899
 1042YOPC   NC314783   7.389   5.613   5.600  0.0923 -0.0661 -0.1568
 1042YOPC   PO414784   7.132   5.704   6.001 -0.1067 -0.1848  0.1082
 1042YOPC   GL114785   7.185   5.772   6.448 -0.0454 -0.2709  0.0885
 1042YOPC   GL214786   6.878   6.023   6.479 -0.0004  0.2299  0.0349
 1042YOPC   C1A14787   7.023   5.584   6.917 -0.1300  0.0887  0.0568
 1042YOPC   D2A14788   7.050   5.596   7.403 -0.2569  0.4508  0.4196
 1042YOPC   C3A14789   6.771   5.276   7.682 -0.2669 -0.0811  0.1111
 1042YOPC   C4A14790   6.920   4.920   7.993 -0.2349  0.0216  0.1325
 1042YOPC   C1B14791   6.755   6.174   6.837  0.2356 -0.0113 -0.0555
 1042YOPC   C2B14792   6.643   6.411   7.128 -0.0781  0.1694 -0.0549
 1042YOPC   D3B14793   6.417   6.266   7.526  0.0474 -0.1404  0.1251
 1042YOPC   C4B14794   6.097   6.160   7.789  0.2061  0.1460 -0.0942
 1043YOPC   NC314795   5.674  17.670   5.930 -0.2372 -0.2449 -0.0890
 1043YOPC   PO414796   5.820  17.259   5.846 -0.1725  0.0010  0.2354
 1043YOPC   GL114797   5.783  17.372   6.305 -0.1894  0.1821  0.0398
 1043YOPC   GL214798   5.434  17.552   6.424 -0.0209  0.1343 -0.0887
 1043YOPC   C1A14799   5.786  17.347   6.774  0.1026  0.1920 -0.2587
 1043YOPC   D2A14800   5.603  17.369   7.177  0.5002  0.0793 -0.0243
 1043YOPC   C3A14801   5.887  17.287   7.627  0.0534 -0.0136  0.3083
 1043YOPC   C4A14802   5.912  17.449   7.862 -0.0452 -0.2762  0.1500
 1043YOPC   C1B14803   5.328  17.117   6.713  0.1386  0.2918  0.0774
 1043YOPC   C2B14804   5.221  17.027   7.096  0.2441  0.2120  0.2051
 1043YOPC   D3B14805   5.475  16.963   7.413 -0.0788 -0.0255 -0.1550
 1043YOPC   C4B14806   5.571  16.981   7.796  0.2508  0.0325  0.4215
 1044YOPC   NC314807  17.136  16.447   6.311 -0.0722  0.0404 -0.0239
 1044YOPC   PO414808  17.103  16.080   6.385 -0.0248  0.0175  0.0624
 1044YOPC   GL114809  17.007  16.224   6.761  0.3421 -0.1217 -0.0801
 1044YOPC   GL214810  17.244  16.472   6.767 -0.0833 -0.0519 -0.4989
 1044YOPC   C1A14811  16.787  16.385   7.177  0.0122  0.1035  0.3493
 1044YOPC   D2A14812  16.412  16.354   7.421 -0.0909  0.2211 -0.1321
 1044YOPC   C3A14813  16.514  16.480   7.853  0.2851 -0.0959  0.2389
 1044YOPC   C4A14814  16.484  16.453   8.341  0.0778 -0.1785  0.0124
 1044YOPC   C1B14815  17.345  16.591   7.178 -0.0557  0.0605 -0.1904
 1044YOPC   C2B14816  17.048  16.599   7.604  0.2327  0.0234 -0.1573
 1044YOPC   D3B14817  16.953  16.314   8.042  0.0262 -0.0089 -0.1108
 1044YOPC   C4B14818  16.728  16.019   8.369 -0.3957 -0.2635  0.0462
 1045YOPC   NC314819   7.431   8.341   5.518  0.1403  0.1577  0.3680
 1045YOPC   PO414820   7.577   8.759   5.643  0.1958 -0.0683  0.1300
 1045YOPC   GL114821   7.812   8.887   6.078  0.0763  0.0367  0.0884
 1045YOPC   GL214822   7.496   9.022   6.283  0.3482 -0.1159 -0.0798
 1045YOPC   C1A14823   7.986   9.164   6.345  0.0519  0.1636  0.1524
 1045YOPC   D2A14824   8.068   9.438   6.701 -0.1441  0.0757  0.1496
 1045YOPC   C3A14825   8.267   9.253   7.047 -0.3813  0.0963 -0.0866
 1045YOPC   C4A14826   8.464   9.259   7.486  0.3046 -0.1071  0.2492
 1045YOPC   C1B14827   7.637   9.137   6.743 -0.3136 -0.2318  0.3628
 1045YOPC   C2B14828   7.687   9.161   7.179 -0.0024 -0.0070 -0.2450
 1045YOPC   D3B14829   7.446   8.849   7.577  0.1643 -0.2453  0.1233
 1045YOPC   C4B14830   7.353   8.466   7.874 -0.2823  0.1004 -0.2528
 1046YOPC   NC314831  17.341  12.808   5.762  0.1737  0.1164 -0.1865
 1046YOPC   PO414832  17.455  12.960   6.174  0.0276  0.3422 -0.1079
 1046YOPC   GL114833  17.238  12.973   6.532  0.2461  0.2644 -0.0702
 1046YOPC   GL214834  17.146  13.189   6.534  0.0724 -0.1737 -0.0095
 1046YOPC   C1A14835  17.308  12.904   7.037 -0.0848  0.0455  0.0727
 1046YOPC   D2A14836  17.335  12.703   7.481  0.2956 -0.1427  0.1565
 1046YOPC   C3A14837  17.379  12.982   7.880  0.0059 -0.0831 -0.0869
 1046YOPC   C4A14838  17.313  13.037   8.347  0.1063  0.0309  0.0077
 1046YOPC   C1B14839  16.835  12.960   6.736  0.1044  0.0360  0.0300
 1046YOPC   C2B14840  16.506  13.013   6.986  0.0591  0.3683  0.2393
 1046YOPC   D3B14841  16.387  12.898   7.394  0.0853 -0.1750 -0.1289
 1046YOPC   C4B14842  16.486  12.755   7.839  0.1945  0.4336  0.2585
 1047YOPC   NC314843   0.731   5.678   5.996 -0.3288 -0.0894  0.0018
 1047YOPC   PO414844   0.936   5.745   6.325 -0.0139  0.0554  0.0726
 1047YOPC   GL114845   0.868   5.850   6.765  0.1110  0.1163 -0.2428
 1047YOPC   GL214846   0.644   5.960   6.649 -0.1461 -0.1143  0.1034
 1047YOPC   C1A14847   0.841   5.902   7.159  0.0693 -0.0056  0.1038
 1047YOPC   D2A14848   0.602   5.724   7.379 -0.0350  0.1374  0.1869
 1047YOPC   C3A14849   0.299   5.777   7.815 -0.2843 -0.0225 -0.0114
 1047YOPC   C4A14850   0.097   5.779   8.220  0.0278 -0.4148  0.2241
 1047YOPC   C1B14851   0.278   5.824   6.978 -0.1574 -0.4661  0.1274
 1047YOPC   C2B14852   0.089   5.572   7.377  0.2649 -0.1518 -0.1381
 1047YOPC   D3B14853  -0.152   5.668   7.726  0.0224  0.2468  0.1736
 1047YOPC   C4B14854  -0.530   5.494   7.891 -0.1577  0.0011 -0.0287
 1048YOPC   NC314855   2.943   0.949   5.862 -0.0104  0.0675 -0.0586
 1048YOPC   PO414856   3.007   1.066   6.271  0.0972  0.1201 -0.2917
 1048YOPC   GL114857   3.335   0.943   6.474  0.2199 -0.0493 -0.2876
 1048YOPC   GL214858   3.295   0.649   6.517  0.3071 -0.4888  0.1899
 1048YOPC   C1A14859   3.720   0.764   6.872  0.1058 -0.0211 -0.0080
 1048YOPC   D2A14860   3.797   0.966   7.211 -0.2167  0.0673 -0.5384
 1048YOPC   C3A14861   3.938   0.936   7.601 -0.2495  0.0235  0.0874
 1048YOPC   C4A14862   4.158   0.649   7.818  0.1766  0.2179  0.0247
 1048YOPC   C1B14863   3.199   0.787   6.935 -0.1480 -0.1744  0.2561
 1048YOPC   C2B14864   2.738   0.882   7.197  0.0384  0.2207 -0.0073
 1048YOPC   D3B14865   2.794   1.055   7.611 -0.0344  0.3799  0.0607
 1048YOPC   C4B14866   2.930   1.108   8.026 -0.2036  0.0932  0.0532
 1049YOPC   NC314867   2.316  17.005   6.247  0.2442  0.1879  0.0764
 1049YOPC   PO414868   2.159  17.466   6.170  0.1999  0.1145  0.2424
 1049YOPC   GL114869   2.125  17.450   6.534 -0.0691 -0.1123 -0.1177
 1049YOPC   GL214870   1.806  17.408   6.686 -0.0160 -0.6082 -0.2512
 1049YOPC   C1A14871   2.231  17.181   6.950  0.0992 -0.0586  0.1058
 1049YOPC   D2A14872   2.334  17.189   7.403 -0.2275  0.1752  0.3658
 1049YOPC   C3A14873   2.272  16.870   7.760  0.1166 -0.1047  0.0001
 1049YOPC   C4A14874   2.575  16.508   7.843 -0.1796  0.2508 -0.2908
 1049YOPC   C1B14875   1.904  17.523   7.144 -0.0871 -0.1439  0.3404
 1049YOPC   C2B14876   2.123  17.651   7.543  0.2635 -0.4791  0.0243
 1049YOPC   D3B14877   2.542  17.527   7.637  0.0440 -0.4342 -0.2250
 1049YOPC   C4B14878   2.808  17.346   7.495  0.0666 -0.0935 -0.3580
 1050YOPC   NC314879   6.592   4.124   6.070  0.0448  0.1675  0.2018
 1050YOPC   PO414880   6.891   3.839   6.140  0.2816 -0.0208 -0.0966
 1050YOPC   GL114881   6.839   3.813   6.505 -0.2991 -0.1420 -0.2560
 1050YOPC   GL214882   6.504   3.664   6.664  0.0356  0.1968  0.1117
 1050YOPC   C1A14883   7.045   3.977   6.929 -0.2056 -0.1507 -0.0779
 1050YOPC   D2A14884   7.442   4.104   7.169  0.1537 -0.1760 -0.0278
 1050YOPC   C3A14885   7.459   4.285   7.654  0.6251  0.1568 -0.0769
 1050YOPC   C4A14886   7.564   4.687   7.818 -0.1430  0.2606 -0.0211
 1050YOPC   C1B14887   6.504   3.779   7.061 -0.1116  0.0589 -0.0793
 1050YOPC   C2B14888   6.195   4.081   7.303 -0.0695 -0.1120 -0.0294
 1050YOPC   D3B14889   5.905   4.225   7.015 -0.2871 -0.0500 -0.0800
 1050YOPC   C4B14890   5.508   4.509   6.944 -0.1795 -0.1027  0.1395
 1051YOPC   NC314891   9.774  14.761   5.866  0.1013 -0.2243  0.4297
 1051YOPC   PO414892   9.310  14.608   5.825  0.3699 -0.2164 -0.1202
 1051YOPC   GL114893   9.121  14.750   6.287 -0.3001 -0.1157  0.4011
 1051YOPC   GL214894   8.841  14.994   6.371 -0.0628 -0.2109 -0.1842
 1051YOPC   C1A14895   9.234  14.649   6.696  0.0666  0.0092  0.1882
 1051YOPC   D2A14896   9.089  14.702   7.015 -0.0578 -0.2577 -0.0727
 1051YOPC   C3A14897   9.085  14.598   7.467  0.1172  0.1043 -0.1790
 1051YOPC   C4A14898   9.153  14.768   7.775  0.1945  0.1231  0.2611
 1051YOPC   C1B14899   8.886  15.250   6.824  0.1699 -0.0671  0.3148
 1051YOPC   C2B14900   8.952  15.140   7.266  0.0719 -0.1126  0.2516
 1051YOPC   D3B14901   8.695  14.986   7.589 -0.2024  0.1838 -0.1004
 1051YOPC   C4B14902   8.662  14.664   7.849  0.0683  0.0924 -0.1735
 1052YOPC   NC314903   5.885  16.527   6.205 -0.0386  0.1594  0.3320
 1052YOPC   PO414904   5.502  16.393   6.103 -0.0774  0.1802  0.0897
 1052YOPC   GL114905   5.410  16.110   6.441 -0.1439  0.1715 -0.3163
 1052YOPC   GL214906   5.105  15.908   6.463 -0.1464 -0.0388  0.1793
 1052YOPC   C1A14907   5.452  16.259   6.833  0.0141  0.1250  0.2080
 1052YOPC   D2A14908   5.398  16.111   7.268  0.0507  0.1193  0.0138
 1052YOPC   C3A14909   5.652  16.048   7.541 -0.1507  0.1347 -0.1007
 1052YOPC   C4A14910   5.969  16.280   7.898  0.2729  0.0306  0.0192
 1052YOPC   C1B14911   5.249  15.829   6.853 -0.0259 -0.1910  0.0489
 1052YOPC   C2B14912   5.288  15.635   7.291  0.0525  0.0877  0.1312
 1052YOPC   D3B14913   4.864  15.640   7.510  0.0807 -0.1793  0.3520
 1052YOPC   C4B14914   4.527  15.651   7.777 -0.1859  0.2299  0.2784
 1053YOPC   NC314915  16.659   0.999   6.344  0.1306 -0.0103  0.0625
 1053YOPC   PO414916  16.219   0.704   6.363 -0.2594  0.0155 -0.3031
 1053YOPC   GL114917  16.087   0.722   6.834  0.1824 -0.0472  0.0914
 1053YOPC   GL214918  15.879   0.588   6.742  0.0121  0.2340  0.0260
 1053YOPC   C1A14919  15.803   0.812   7.265  0.0026  0.2235  0.1606
 1053YOPC   D2A14920  15.864   0.731   7.684 -0.0408 -0.0578  0.1454
 1053YOPC   C3A14921  15.470   0.717   8.014 -0.1187  0.5039  0.2654
 1053YOPC   C4A14922  15.221   0.905   8.303  0.2346 -0.2982 -0.2516
 1053YOPC   C1B14923  15.719   1.130   6.839  0.1525 -0.0473  0.1402
 1053YOPC   C2B14924  15.692   1.424   7.141 -0.0728 -0.2452  0.0356
 1053YOPC   D3B14925  15.506   1.551   7.479 -0.0681  0.1022  0.0379
 1053YOPC   C4B14926  15.611   1.790   7.839 -0.1617 -0.0376  0.0511
 1054YOPC   NC314927  13.573  13.249   5.824  0.1931  0.3151 -0.0134
 1054YOPC   PO414928  13.807  13.426   6.141  0.0985  0.3235  0.1601
 1054YOPC   GL114929  13.964  13.282   6.536 -0.1178  0.1731  0.1172
 1054YOPC   GL214930  14.152  13.593   6.781  0.0082  0.1258  0.2388
 1054YOPC   C1A14931  13.686  13.049   6.828  0.2146 -0.0257 -0.0841
 1054YOPC   D2A14932  13.613  12.606   6.847 -0.0280 -0.0050 -0.3712
 1054YOPC   C3A14933  13.614  12.431   7.136 -0.0751 -0.2688  0.0060
 1054YOPC   C4A14934  13.382  12.135   7.464 -0.2615 -0.0853  0.2078
 1054YOPC   C1B14935  14.192  13.708   7.219 -0.2166  0.0412 -0.1959
 1054YOPC   C2B14936  14.580  13.611   7.537  0.2184  0.1226  0.0103
 1054YOPC   D3B14937  14.571  13.232   7.644  0.3341  0.0220  0.0471
 1054YOPC   C4B14938  14.806  13.087   7.922 -0.3427  0.0329 -0.2818
 1055YOPC   NC314939  16.841   7.404   6.024  0.0064 -0.0373  0.0501
 1055YOPC   PO414940  16.821   7.038   6.213 -0.0647 -0.1074 -0.0762
 1055YOPC   GL114941  16.971   7.293   6.624  0.1283 -0.1350 -0.2536
 1055YOPC   GL214942  17.085   7.624   6.476 -0.1181  0.1223  0.3764
 1055YOPC   C1A14943  17.024   7.208   7.065 -0.1167  0.1683  0.0761
 1055YOPC   D2A14944  17.345   7.000   7.316  0.0727 -0.0970 -0.0531
 1055YOPC   C3A14945  17.137   6.822   7.670  0.0202  0.0449  0.0951
 1055YOPC   C4A14946  17.040   6.437   7.974 -0.0607  0.1427  0.2416
 1055YOPC   C1B14947  17.108   7.723   6.861 -0.0079  0.1335 -0.0714
 1055YOPC   C2B14948  17.199   7.664   7.226  0.3633  0.1846 -0.0705
 1055YOPC   D3B14949  16.918   7.741   7.606 -0.1947 -0.2712 -0.0557
 1055YOPC   C4B14950  16.873   7.894   8.032  0.1252 -0.0934 -0.2698
 1056YOPC   NC314951   3.101  15.422   5.969 -0.0958  0.0390 -0.3424
 1056YOPC   PO414952   2.794  15.912   6.207 -0.1184  0.0057 -0.1043
 1056YOPC   GL114953   2.622  16.086   6.644  0.2339 -0.0028  0.2737
 1056YOPC   GL214954   2.884  16.199   6.702  0.2656 -0.0404  0.0862
 1056YOPC   C1A14955   2.514  16.238   7.037 -0.0958 -0.2476  0.0167
 1056YOPC   D2A14956   2.357  16.292   7.400  0.2450  0.1792  0.1129
 1056YOPC   C3A14957   2.395  15.941   7.780 -0.5328 -0.3309  0.1185
 1056YOPC   C4A14958   2.465  16.075   8.191 -0.0132  0.4314 -0.0483
 1056YOPC   C1B14959   3.006  15.996   7.095 -0.1162  0.1709 -0.2013
 1056YOPC   C2B14960   3.352  16.101   7.325  0.1050  0.5094  0.4137
 1056YOPC   D3B14961   3.530  15.905   7.635  0.2509  0.0659  0.0138
 1056YOPC   C4B14962   3.611  15.484   7.750  0.1060  0.0742 -0.5305
 1057YOPC   NC314963  13.809   9.793   5.691 -0.1177  0.2228  0.1873
 1057YOPC   PO414964  13.607  10.086   5.846 -0.1031 -0.2015  0.2467
 1057YOPC   GL114965  13.726  10.037   6.299  0.0357  0.0619 -0.1650
 1057YOPC   GL214966  13.571  10.160   6.428  0.2339  0.0650  0.2850
 1057YOPC   C1A14967  14.009   9.868   6.643 -0.1222  0.0033  0.4478
 1057YOPC   D2A14968  14.001   9.809   7.033  0.0447  0.0362 -0.0995
 1057YOPC   C3A14969  14.142   9.324   7.105 -0.0035 -0.4267  0.0591
 1057YOPC   C4A14970  14.297   9.000   6.959 -0.0363  0.2397 -0.1972
 1057YOPC   C1B14971  13.616  10.093   6.829  0.2042  0.0887 -0.0505
 1057YOPC   C2B14972  13.555   9.912   7.216 -0.0177  0.0939 -0.0116
 1057YOPC   D3B14973  13.411  10.100   7.542 -0.2286 -0.0425  0.2946
 1057YOPC   C4B14974  13.557  10.251   7.897  0.0278 -0.2180  0.0677
 1058YOPC   NC314975   7.486  10.513   5.623 -0.1438  0.1720 -0.0514
 1058YOPC   PO414976   7.506  10.128   5.897  0.0333  0.2735  0.2389
 1058YOPC   GL114977   7.448  10.166   6.344  0.2529 -0.1218 -0.0312
 1058YOPC   GL214978   7.173  10.091   6.525  0.4232  0.1741  0.0329
 1058YOPC   C1A14979   7.580  10.480   6.644  0.0702 -0.2135 -0.2094
 1058YOPC   D2A14980   7.449  10.727   6.937 -0.1048  0.0467 -0.0034
 1058YOPC   C3A14981   7.201  10.613   7.309 -0.3229  0.2831 -0.1149
 1058YOPC   C4A14982   7.157  10.340   7.747 -0.1181 -0.3608  0.1650
 1058YOPC   C1B14983   7.180  10.161   6.999 -0.0062  0.2429  0.2515
 1058YOPC   C2B14984   7.377  10.153   7.378 -0.0207  0.0090 -0.2088
 1058YOPC   D3B14985   7.607  10.464   7.568  0.7107 -0.3134 -0.2446
 1058YOPC   C4B14986   7.821  10.848   7.792  0.0416 -0.0684  0.2738
 1059YOPC   NC314987   3.431   7.342   5.832  0.1652  0.2688  0.0699
 1059YOPC   PO414988   3.212   7.002   6.061 -0.3091 -0.3364  0.3391
 1059YOPC   GL114989   3.235   6.818   6.461 -0.0711  0.2539  0.0253
 1059YOPC   GL214990   3.579   6.759   6.640  0.1149 -0.1393 -0.1662
 1059YOPC   C1A14991   3.098   6.703   6.908 -0.0608  0.0256 -0.1842
 1059YOPC   D2A14992   3.257   6.417   7.303 -0.0452  0.1777  0.3873
 1059YOPC   C3A14993   3.041   6.638   7.633  0.0472  0.2210 -0.0095
 1059YOPC   C4A14994   2.778   6.753   7.956  0.1061  0.0460  0.2374
 1059YOPC   C1B14995   3.510   6.872   7.095  0.0144  0.0702 -0.0547
 1059YOPC   C2B14996   3.485   7.030   7.526 -0.2476  0.0029 -0.3769
 1059YOPC   D3B14997   3.742   7.213   7.779 -0.1704  0.0901 -0.0913
 1059YOPC   C4B14998   3.888   7.050   8.066 -0.3452  0.1716  0.3046
 1060YOPC   NC314999  15.349   5.279   5.998 -0.1844  0.0020 -0.1228
 1060YOPC   PO415000  15.086   5.408   6.417 -0.0512 -0.0616 -0.2203
 1060YOPC   GL115001  14.993   5.613   6.827 -0.1574 -0.3515  0.0819
 1060YOPC   GL215002  15.217   5.870   6.795  0.0157 -0.0292  0.0134
 1060YOPC   C1A15003  15.186   5.542   7.174  0.1222 -0.1659 -0.3596
 1060YOPC   D2A15004  15.213   5.452   7.482 -0.1992  0.0581  0.2456
 1060YOPC   C3A15005  15.382   5.736   7.795  0.0227  0.1010  0.1358
 1060YOPC   C4A15006  15.646   5.754   8.149 -0.0635 -0.1777 -0.0787
 1060YOPC   C1B15007  14.973   6.023   7.172  0.0957  0.5406 -0.1320
 1060YOPC   C2B15008  14.567   6.093   7.374  0.0135 -0.1785  0.0340
 1060YOPC   D3B15009  14.505   6.117   7.867  0.1729 -0.3580  0.1650
 1060YOPC   C4B15010  14.557   6.061   8.329 -0.1371 -0.0113 -0.0146
 1061YOPC   NC315011  15.545  12.931   6.403 -0.4931 -0.0080  0.1994
 1061YOPC   PO415012  15.610  13.383   6.271 -0.0208  0.3659 -0.1179
 1061YOPC   GL115013  15.718  13.452   6.604 -0.0360  0.1236  0.0732
 1061YOPC   GL215014  15.901  13.328   6.689  0.0351 -0.2874 -0.0325
 1061YOPC   C1A15015  15.562  13.845   6.831  0.0006 -0.1541  0.1989
 1061YOPC   D2A15016  15.309  14.217   6.792 -0.0504  0.5143  0.2140
 1061YOPC   C3A15017  15.223  14.468   7.142 -0.2759  0.0056 -0.1313
 1061YOPC   C4A15018  15.189  14.887   7.387 -0.1622 -0.0262  0.0419
 1061YOPC   C1B15019  16.041  13.345   7.078 -0.1438 -0.1815  0.4486
 1061YOPC   C2B15020  16.046  13.346   7.453 -0.2807  0.2031 -0.1531
 1061YOPC   D3B15021  16.204  13.191   7.844 -0.3436  0.0249  0.0577
 1061YOPC   C4B15022  16.302  13.470   8.053  0.0212 -0.0685  0.1439
 1062YOPC   NC315023   5.359  11.143   5.801 -0.0085  0.0734 -0.2659
 1062YOPC   PO415024   4.941  10.942   5.940  0.0049  0.0660  0.1625
 1062YOPC   GL115025   4.783  10.893   6.313  0.0810 -0.0530  0.1504
 1062YOPC   GL215026   4.665  11.201   6.454 -0.1775 -0.2853  0.0688
 1062YOPC   C1A15027   4.948  10.885   6.771 -0.1141  0.1878  0.1095
 1062YOPC   D2A15028   5.009  10.923   7.192 -0.0382 -0.1106 -0.1431
 1062YOPC   C3A15029   5.379  10.776   7.358 -0.1490 -0.1863  0.1988
 1062YOPC   C4A15030   5.758  10.801   7.736  0.0451 -0.1919 -0.1875
 1062YOPC   C1B15031   5.079  11.348   6.655  0.2882  0.3865 -0.0353
 1062YOPC   C2B15032   5.064  11.424   7.159  0.0775 -0.2060  0.4868
 1062YOPC   D3B15033   4.804  11.845   7.301 -0.0395  0.2768  0.1489
 1062YOPC   C4B15034   4.628  12.259   7.397  0.0479  0.2615  0.1292
 1063YOPC   NC315035   4.514   9.812   5.477  0.1472  0.0160 -0.1315
 1063YOPC   PO415036   4.803   9.944   5.772 -0.3026 -0.1186  0.0670
 1063YOPC   GL115037   4.807   9.856   6.184 -0.1203  0.1727 -0.2032
 1063YOPC   GL215038   4.696   9.606   6.244 -0.2079  0.0829  0.0334
 1063YOPC   C1A15039   5.037   9.901   6.566 -0.1769  0.0447 -0.0632
 1063YOPC   D2A15040   5.370  10.037   6.804  0.1127 -0.1635  0.1254
 1063YOPC   C3A15041   5.381   9.984   7.182 -0.1204 -0.0765 -0.0736
 1063YOPC   C4A15042   5.195  10.102   7.546 -0.1959 -0.1313  0.1969
 1063YOPC   C1B15043   4.889   9.408   6.608 -0.0251 -0.0758  0.0904
 1063YOPC   C2B15044   5.287   9.434   6.712 -0.3804 -0.0954  0.0782
 1063YOPC   D3B15045   5.629   9.175   6.768  0.0170 -0.3964  0.0075
 1063YOPC   C4B15046   5.797   8.807   6.591  0.3870 -0.0297  0.0007
 1064YOPC   NC315047  13.308   0.190   6.217  0.1878 -0.0210  0.0951
 1064YOPC   PO415048  13.778  -0.004   6.125 -0.1000 -0.0530 -0.1082
 1064YOPC   GL115049  13.627  -0.002   6.563  0.3573 -0.2081 -0.0782
 1064YOPC   GL215050  13.574   0.322   6.669  0.1081 -0.0184  0.0196
 1064YOPC   C1A15051  13.792  -0.200   6.982  0.0362 -0.1019  0.1278
 1064YOPC   D2A15052  14.062  -0.127   7.275  0.2424 -0.0025  0.0876
 1064YOPC   C3A15053  13.900   0.019   7.595 -0.2203  0.0371 -0.2082
 1064YOPC   C4A15054  13.833   0.043   7.990 -0.1772 -0.2859  0.0976
 1064YOPC   C1B15055  13.850   0.373   6.999  0.1669 -0.0697  0.1771
 1064YOPC   C2B15056  14.080   0.419   7.371 -0.2330  0.0447 -0.1372
 1064YOPC   D3B15057  14.244   0.291   7.811 -0.1691  0.0513 -0.3297
 1064YOPC   C4B15058  14.429   0.099   8.212 -0.2092 -0.4062 -0.0915
 1065YOPC   NC315059   6.843  13.626   5.671 -0.2772  0.0381 -0.0419
 1065YOPC   PO415060   7.184  13.752   5.886 -0.0139  0.0887  0.2110
 1065YOPC   GL115061   7.028  13.910   6.184  0.0790  0.3037 -0.2246
 1065YOPC   GL215062   6.958  14.304   6.208  0.3578 -0.2257  0.1022
 1065YOPC   C1A15063   7.054  14.030   6.625 -0.5101  0.1812  0.1026
 1065YOPC   D2A15064   6.858  14.205   7.069 -0.0292 -0.2367 -0.1313
 1065YOPC   C3A15065   7.023  13.900   7.437  0.0714 -0.5462  0.2218
 1065YOPC   C4A15066   7.391  13.721   7.688 -0.1615  0.2812 -0.1351
 1065YOPC   C1B15067   6.806  14.539   6.653 -0.0495  0.1281 -0.0546
 1065YOPC   C2B15068   6.990  14.879   6.868  0.1080  0.0652  0.0952
 1065YOPC   D3B15069   6.973  15.115   7.199 -0.0765  0.2803 -0.3482
 1065YOPC   C4B15070   6.896  15.367   7.600  0.0187 -0.1039  0.0953
 1066YOPC   NC315071  14.246  11.356   5.609  0.1472 -0.5544  0.0071
 1066YOPC   PO415072  14.322  11.313   6.036 -0.1127 -0.0540  0.1123
 1066YOPC   GL115073  14.229  11.533   6.426 -0.0493 -0.3060  0.0447
 1066YOPC   GL215074  14.044  11.843   6.455 -0.2610  0.3855 -0.1420
 1066YOPC   C1A15075  13.985  11.430   6.869  0.1282 -0.1424  0.0751
 1066YOPC   D2A15076  13.869  11.361   7.270 -0.0731  0.3605 -0.1647
 1066YOPC   C3A15077  13.904  11.120   7.620  0.1643  0.1459  0.1863
 1066YOPC   C4A15078  13.910  11.167   7.992  0.1479 -0.0901 -0.3001
 1066YOPC   C1B15079  14.196  12.146   6.704 -0.0587 -0.0021  0.1705
 1066YOPC   C2B15080  14.109  12.257   7.133  0.1141 -0.0698 -0.1262
 1066YOPC   D3B15081  13.902  12.053   7.522  0.1944 -0.0705  0.1540
 1066YOPC   C4B15082  13.779  12.105   7.958 -0.0504 -0.1911 -0.0941
 1067YOPC   NC315083   0.080  12.321   6.093 -0.0789 -0.2220  0.0458
 1067YOPC   PO415084  -0.288  12.636   5.984 -0.0886 -0.1334 -0.4088
 1067YOPC   GL115085  -0.239  12.564   6.429 -0.1714  0.0166 -0.2991
 1067YOPC   GL215086  -0.350  12.878   6.624 -0.1872 -0.0192  0.1415
 1067YOPC   C1A15087  -0.324  12.405   6.885  0.1088 -0.0434  0.0944
 1067YOPC   D2A15088  -0.036  12.145   7.103  0.0101  0.2163  0.1138
 1067YOPC   C3A15089  -0.178  12.138   7.419  0.5702 -0.1464 -0.0767
 1067YOPC   C4A15090  -0.449  11.966   7.749 -0.1611 -0.0605  0.1488
 1067YOPC   C1B15091  -0.238  12.836   7.139 -0.2316  0.3738 -0.0097
 1067YOPC   C2B15092  -0.347  13.016   7.525  0.1915 -0.0385  0.2320
 1067YOPC   D3B15093  -0.169  12.928   7.872  0.0060 -0.3535 -0.0826
 1067YOPC   C4B15094   0.164  12.655   8.037  0.0545  0.0382  0.0577
 1068YOPC   NC315095   7.515  13.370   5.889 -0.0429 -0.1564 -0.1500
 1068YOPC   PO415096   7.117  13.130   5.633 -0.0404 -0.1137 -0.3135
 1068YOPC   GL115097   7.278  12.960   6.072  0.0325  0.1470  0.0907
 1068YOPC   GL215098   7.217  13.301   6.296 -0.2613  0.0379 -0.0845
 1068YOPC   C1A15099   7.375  12.635   6.425  0.0776 -0.1868 -0.0733
 1068YOPC   D2A15100   7.451  12.366   6.823 -0.0431  0.0851  0.0291
 1068YOPC   C3A15101   7.594  12.519   7.151  0.1962  0.3938 -0.0289
 1068YOPC   C4A15102   7.829  12.625   7.386 -0.0406 -0.3309 -0.2105
 1068YOPC   C1B15103   7.060  13.137   6.654  0.1039  0.1106  0.1444
 1068YOPC   C2B15104   6.692  13.130   7.004  0.0747 -0.2513 -0.5534
 1068YOPC   D3B15105   6.482  12.814   7.307  0.0627  0.0094 -0.3070
 1068YOPC   C4B15106   6.270  12.825   7.714 -0.1569 -0.4116  0.2573
 1069YOPC   NC315107   4.996   6.886   5.330  0.1797  0.0008 -0.1236
 1069YOPC   PO415108   5.052   6.510   5.622 -0.3676  0.0816 -0.1728
 1069YOPC   GL115109   5.275   6.630   6.012  0.0702  0.1465 -0.1646
 1069YOPC   GL215110   5.134   6.572   6.373 -0.1655  0.1308  0.0514
 1069YOPC   C1A15111   5.642   6.770   6.298  0.1811  0.1697 -0.2859
 1069YOPC   D2A15112   5.866   7.182   6.253 -0.3524 -0.2301  0.0031
 1069YOPC   C3A15113   5.925   7.454   6.630  0.1050  0.2273 -0.1119
 1069YOPC   C4A15114   5.894   7.641   7.167 -0.4520  0.0704  0.1737
 1069YOPC   C1B15115   5.007   6.595   6.832 -0.0075 -0.1833 -0.0939
 1069YOPC   C2B15116   4.998   6.188   7.093 -0.0583  0.0438  0.0193
 1069YOPC   D3B15117   4.637   6.118   7.214 -0.3486  0.1524 -0.1008
 1069YOPC   C4B15118   4.622   6.046   7.586  0.0431 -0.0864 -0.0407
 1070YOPC   NC315119   5.384   7.955   5.915 -0.0139 -0.2122 -0.1692
 1070YOPC   PO415120   5.541   7.509   5.961  0.1768 -0.0597  0.0131
 1070YOPC   GL115121   5.457   7.518   6.389 -0.2938  0.2106 -0.0290
 1070YOPC   GL215122   5.253   7.632   6.471  0.0847 -0.1053  0.0166
 1070YOPC   C1A15123   5.485   7.446   6.874 -0.2350  0.1232 -0.0034
 1070YOPC   D2A15124   5.349   7.592   7.253 -0.0954 -0.2692  0.3514
 1070YOPC   C3A15125   5.611   7.339   7.502  0.0149  0.0259  0.0684
 1070YOPC   C4A15126   5.835   7.044   7.854 -0.2452  0.2278  0.0439
 1070YOPC   C1B15127   5.159   7.875   6.828 -0.0683 -0.4551  0.0101
 1070YOPC   C2B15128   4.899   8.117   7.197 -0.0267 -0.2312  0.2137
 1070YOPC   D3B15129   4.872   7.965   7.578 -0.3443  0.2705  0.2511
 1070YOPC   C4B15130   5.108   7.559   7.711 -0.1465  0.1799 -0.1644
 1071YOPC   NC315131   1.205  11.524   6.266  0.1208 -0.2004  0.5398
 1071YOPC   PO415132   1.594  11.273   6.110  0.1770  0.2080 -0.0633
 1071YOPC   GL115133   1.451  10.984   6.443  0.0755  0.0556 -0.2596
 1071YOPC   GL215134   1.394  11.212   6.627 -0.2264  0.1708  0.0158
 1071YOPC   C1A15135   1.403  10.571   6.738 -0.0348 -0.0655 -0.0157
 1071YOPC   D2A15136   1.182  10.475   7.090 -0.1158 -0.1174 -0.2157
 1071YOPC   C3A15137   1.331  10.308   7.471  0.0066  0.1302  0.1223
 1071YOPC   C4A15138   1.165  10.417   7.926  0.0290 -0.1054 -0.2955
 1071YOPC   C1B15139   1.104  11.391   6.943 -0.2442  0.3370 -0.1433
 1071YOPC   C2B15140   0.896  11.247   7.293 -0.0357 -0.2731  0.1868
 1071YOPC   D3B15141   0.712  10.927   7.383 -0.0059 -0.1061 -0.4501
 1071YOPC   C4B15142   0.812  10.535   7.521  0.1995 -0.0062  0.1439
 1072YOPC   NC315143  16.219   5.672   5.955  0.0666  0.1310  0.0812
 1072YOPC   PO415144  15.888   5.361   6.121 -0.1646  0.0330 -0.1192
 1072YOPC   GL115145  15.619   5.473   6.486  0.1195  0.0124 -0.0635
 1072YOPC   GL215146  15.590   5.795   6.468  0.3437 -0.0386  0.1542
 1072YOPC   C1A15147  15.511   5.244   6.862 -0.2116 -0.1318 -0.1766
 1072YOPC   D2A15148  15.543   5.125   7.271 -0.3321 -0.0512 -0.1367
 1072YOPC   C3A15149  15.214   4.995   7.381 -0.3753 -0.0628  0.0894
 1072YOPC   C4A15150  14.854   5.133   7.493 -0.0282  0.0619  0.1069
 1072YOPC   C1B15151  15.704   5.766   6.911  0.0799  0.0022  0.3468
 1072YOPC   C2B15152  15.649   5.732   7.287 -0.0925 -0.4364 -0.1545
 1072YOPC   D3B15153  15.840   5.955   7.634 -0.1094 -0.0837 -0.0774
 1072YOPC   C4B15154  16.210   5.992   7.787 -0.1938  0.0144 -0.2642
 1073YOPC   NC315155  11.303   6.620   5.903  0.0301 -0.3413 -0.1261
 1073YOPC   PO415156  11.007   6.669   6.199 -0.0077  0.0978  0.1837
 1073YOPC   GL115157  11.309   6.450   6.339 -0.1767  0.0520 -0.0120
 1073YOPC   GL215158  11.359   6.571   6.637  0.2552  0.3400 -0.0369
 1073YOPC   C1A15159  11.283   6.094   6.598  0.5164 -0.1926 -0.0315
 1073YOPC   D2A15160  10.870   6.020   6.829 -0.0951 -0.2381  0.0713
 1073YOPC   C3A15161  10.639   5.693   7.098 -0.0332 -0.3298  0.1518
 1073YOPC   C4A15162  10.174   5.832   7.223 -0.0237 -0.2155 -0.3014
 1073YOPC   C1B15163  11.123   6.364   7.045  0.0092 -0.0062 -0.0655
 1073YOPC   C2B15164  10.958   6.022   7.373 -0.1358  0.2542  0.1601
 1073YOPC   D3B15165  10.788   6.157   7.767 -0.2603  0.0243 -0.1026
 1073YOPC   C4B15166  10.447   6.399   8.031  0.1274 -0.0496  0.1661
 1074YOPC   NC315167   1.893  10.895   6.226  0.1863  0.2123 -0.2203
 1074YOPC   PO415168   2.362  10.833   6.076 -0.0673  0.2138 -0.2311
 1074YOPC   GL115169   2.284  10.856   6.552 -0.2050 -0.0583  0.3246
 1074YOPC   GL215170   2.123  10.958   6.680 -0.0385  0.2168  0.0587
 1074YOPC   C1A15171   2.258  10.769   7.131  0.2141  0.2169  0.4305
 1074YOPC   D2A15172   2.199  10.521   7.511  0.1921  0.4020  0.0446
 1074YOPC   C3A15173   1.995  10.817   7.880 -0.3583  0.0087  0.1800
 1074YOPC   C4A15174   2.163  10.787   8.241  0.0113  0.0105  0.0212
 1074YOPC   C1B15175   1.777  10.878   6.854  0.3758 -0.2897  0.1398
 1074YOPC   C2B15176   1.383  10.954   7.034  0.1926 -0.1129  0.0165
 1074YOPC   D3B15177   1.259  10.834   7.417  0.0242  0.1246  0.3072
 1074YOPC   C4B15178   1.052  10.874   7.872 -0.2313 -0.0982  0.1502
 1075YOPC   NC315179  15.311   9.263   6.542  0.0516 -0.3306  0.2119
 1075YOPC   PO415180  14.934   9.343   6.308  0.1165 -0.0642 -0.2634
 1075YOPC   GL115181  14.601   9.266   6.413  0.2137 -0.0356  0.0083
 1075YOPC   GL215182  14.474   9.555   6.332 -0.0365  0.3027  0.2669
 1075YOPC   C1A15183  14.531   9.414   6.807 -0.4509  0.0999  0.0376
 1075YOPC   D2A15184  14.653   9.558   7.220  0.0250 -0.1447 -0.1427
 1075YOPC   C3A15185  14.563   9.251   7.529  0.0611  0.2264 -0.3853
 1075YOPC   C4A15186  14.802   8.924   7.707 -0.4110 -0.0909  0.0734
 1075YOPC   C1B15187  14.651   9.867   6.729  0.0091 -0.1398  0.0385
 1075YOPC   C2B15188  14.508  10.023   7.089 -0.1570 -0.0276 -0.0466
 1075YOPC   D3B15189  14.687  10.307   7.397 -0.1169  0.0987 -0.2157
 1075YOPC   C4B15190  15.190  10.347   7.555 -0.0838 -0.2581  0.0668
 1076YOPC   NC315191   9.237   2.886   6.211 -0.3951  0.0032 -0.2106
 1076YOPC   PO415192   8.828   2.675   5.985  0.0838  0.0069 -0.2516
 1076YOPC   GL115193   8.801   2.612   6.350 -0.0942 -0.0863  0.1793
 1076YOPC   GL215194   9.085   2.613   6.584 -0.0407 -0.1825 -0.2862
 1076YOPC   C1A15195   8.532   2.687   6.723 -0.2342 -0.0631 -0.0513
 1076YOPC   D2A15196   8.357   3.095   6.941  0.0473 -0.0132  0.0200
 1076YOPC   C3A15197   8.519   3.462   6.872 -0.2179 -0.0559  0.1289
 1076YOPC   C4A15198   8.288   3.705   6.647  0.0947 -0.0321 -0.0741
 1076YOPC   C1B15199   9.117   2.809   6.902  0.0429 -0.1161  0.0619
 1076YOPC   C2B15200   8.810   3.022   7.106 -0.3103  0.1976  0.1234
 1076YOPC   D3B15201   8.813   2.965   7.576  0.3366  0.3133 -0.1709
 1076YOPC   C4B15202   8.520   2.972   7.902  0.1295 -0.0593 -0.1552
 1077YOPC   NC315203   7.244  15.157   6.000 -0.2576 -0.2236  0.3891
 1077YOPC   PO415204   7.531  15.171   6.380 -0.1840  0.0831 -0.1733
 1077YOPC   GL115205   7.461  15.130   6.766  0.3354 -0.1451 -0.0241
 1077YOPC   GL215206   7.662  15.252   7.050  0.1397  0.0544 -0.0462
 1077YOPC   C1A15207   7.389  14.808   7.140  0.0970  0.2246 -0.1868
 1077YOPC   D2A15208   6.986  14.670   7.389 -0.1093  0.1579  0.0956
 1077YOPC   C3A15209   7.005  14.407   7.715  0.0391 -0.1765  0.0130
 1077YOPC   C4A15210   7.010  14.057   7.922 -0.0644  0.1299  0.2560
 1077YOPC   C1B15211   7.871  15.588   7.295  0.4524 -0.0263  0.1061
 1077YOPC   C2B15212   8.211  15.889   7.341 -0.1111  0.2600  0.0934
 1077YOPC   D3B15213   8.457  15.878   7.811 -0.1450 -0.0771 -0.1160
 1077YOPC   C4B15214   8.917  15.759   8.036 -0.1489  0.0551  0.3041
 1078YOPC   NC315215  13.608   2.337   6.335  0.3585  0.1021  0.1352
 1078YOPC   PO415216  13.988   2.565   6.509  0.2141  0.1127  0.2882
 1078YOPC   GL115217  14.134   2.817   6.766  0.1368 -0.1728  0.0465
 1078YOPC   GL215218  14.425   2.829   6.725 -0.0209  0.1292  0.1148
 1078YOPC   C1A15219  13.944   3.045   7.081  0.0383  0.0571 -0.0190
 1078YOPC   D2A15220  13.852   3.136   7.517 -0.0171 -0.0520  0.2143
 1078YOPC   C3A15221  13.532   3.099   7.855  0.0295 -0.3509 -0.1090
 1078YOPC   C4A15222  13.496   2.972   8.357  0.0796 -0.2544  0.0105
 1078YOPC   C1B15223  14.475   2.653   7.238  0.3280 -0.0999  0.0005
 1078YOPC   C2B15224  14.582   2.401   7.692  0.2576  0.2848  0.0050
 1078YOPC   D3B15225  14.319   2.447   8.072  0.2115 -0.1672  0.3431
 1078YOPC   C4B15226  14.439   2.637   8.442  0.0051  0.2273  0.0115
 1079YOPC   NC315227  15.886  15.294   6.240 -0.0751 -0.0460  0.1216
 1079YOPC   PO415228  15.659  14.917   6.069 -0.5261  0.1169 -0.6294
 1079YOPC   GL115229  15.726  14.681   6.509  0.1961 -0.1750 -0.0783
 1079YOPC   GL215230  15.358  14.698   6.556  0.0836 -0.1609  0.3537
 1079YOPC   C1A15231  15.656  14.555   6.972 -0.0129  0.0721  0.0488
 1079YOPC   D2A15232  15.662  14.659   7.395  0.1112 -0.2139  0.3043
 1079YOPC   C3A15233  15.424  14.418   7.691  0.0923 -0.3041 -0.0790
 1079YOPC   C4A15234  15.230  14.358   8.067 -0.0598  0.2651 -0.3686
 1079YOPC   C1B15235  15.412  15.004   6.900  0.0584  0.1743  0.0955
 1079YOPC   C2B15236  15.476  15.305   7.304 -0.2089  0.2794  0.0182
 1079YOPC   D3B15237  15.397  15.215   7.658  0.0138 -0.1068 -0.0518
 1079YOPC   C4B15238  15.129  15.331   8.018  0.1814 -0.2142 -0.3046
 1080YOPC   NC315239   7.637   9.329   5.771 -0.2200 -0.2088 -0.0108
 1080YOPC   PO415240   7.825   9.684   5.583 -0.0398  0.0635 -0.1138
 1080YOPC   GL115241   7.890   9.742   5.985  0.2132  0.1976 -0.2793
 1080YOPC   GL215242   7.916  10.079   6.162  0.1188  0.1402 -0.1501
 1080YOPC   C1A15243   8.126   9.649   6.260  0.2601 -0.2011  0.1051
 1080YOPC   D2A15244   8.414   9.433   6.336 -0.0593 -0.1682  0.1294
 1080YOPC   C3A15245   8.672   9.473   6.790 -0.1940  0.2252 -0.4206
 1080YOPC   C4A15246   8.841   9.134   7.050  0.0245 -0.1916  0.1182
 1080YOPC   C1B15247   7.875  10.023   6.670 -0.4237 -0.2562 -0.1220
 1080YOPC   C2B15248   7.802  10.215   7.119  0.2524 -0.1502  0.0031
 1080YOPC   D3B15249   7.869  10.011   7.466  0.0711  0.0138 -0.1036
 1080YOPC   C4B15250   7.880  10.114   7.948 -0.0877 -0.2838 -0.2214
 1081YOPC   NC315251   0.111   7.502   6.338  0.1153  0.2309  0.3665
 1081YOPC   PO415252   0.220   7.918   6.192 -0.0903  0.0633  0.1494
 1081YOPC   GL115253   0.208   7.915   6.638  0.0078  0.1364  0.1792
 1081YOPC   GL215254  -0.047   8.214   6.642 -0.0542  0.0545 -0.2193
 1081YOPC   C1A15255   0.041   7.704   6.955 -0.2643  0.0596 -0.0560
 1081YOPC   D2A15256   0.056   7.511   7.325 -0.1620  0.1920 -0.3211
 1081YOPC   C3A15257   0.118   7.846   7.673  0.0854 -0.1327 -0.0526
 1081YOPC   C4A15258   0.216   8.140   7.979  0.0066  0.3901 -0.1037
 1081YOPC   C1B15259   0.348   8.521   6.752 -0.0688 -0.0408  0.0631
 1081YOPC   C2B15260   0.689   8.797   6.913  0.2254 -0.1694 -0.0242
 1081YOPC   D3B15261   0.568   9.168   7.257  0.1935  0.4625 -0.0084
 1081YOPC   C4B15262   0.440   9.457   7.460 -0.1270  0.2404  0.1006
 1082YOPC   NC315263   5.878   5.986   5.588  0.0581  0.0413  0.0276
 1082YOPC   PO415264   5.537   5.834   5.900  0.1178 -0.1597 -0.3591
 1082YOPC   GL115265   5.512   6.104   6.220 -0.0583 -0.1818  0.0444
 1082YOPC   GL215266   5.117   6.050   6.277 -0.2021 -0.2022  0.0177
 1082YOPC   C1A15267   5.426   6.197   6.607 -0.2340 -0.2049  0.1246
 1082YOPC   D2A15268   5.562   6.353   6.964 -0.1251  0.0558 -0.0681
 1082YOPC   C3A15269   5.383   6.626   7.169 -0.2091 -0.0297 -0.3451
 1082YOPC   C4A15270   5.011   6.700   7.457  0.1825  0.1389 -0.0679
 1082YOPC   C1B15271   4.850   6.189   6.594 -0.2041  0.0402  0.2486
 1082YOPC   C2B15272   4.550   5.957   6.774 -0.0815 -0.0320  0.2207
 1082YOPC   D3B15273   4.186   6.191   6.895  0.3359  0.2059  0.2375
 1082YOPC   C4B15274   3.983   6.563   6.859  0.1017 -0.3638 -0.1705
 1083YOPC   NC315275   6.400  12.707   5.051  0.0580 -0.0281 -0.0008
 1083YOPC   PO415276   6.384  12.442   5.422 -0.1722  0.1350 -0.0451
 1083YOPC   GL115277   6.448  12.254   5.872  0.1314 -0.3404  0.2220
 1083YOPC   GL215278   6.279  12.568   5.944 -0.1412  0.4293 -0.3261
 1083YOPC   C1A15279   6.482  12.258   6.261 -0.1833 -0.0559 -0.0403
 1083YOPC   D2A15280   6.579  12.131   6.662  0.1474 -0.0344  0.4771
 1083YOPC   C3A15281   6.241  11.909   6.954 -0.0434  0.0386 -0.0258
 1083YOPC   C4A15282   5.775  12.040   6.945 -0.1771 -0.1158 -0.0458
 1083YOPC   C1B15283   6.185  12.733   6.345  0.2465 -0.1070  0.0237
 1083YOPC   C2B15284   6.096  12.948   6.799 -0.0188 -0.4569 -0.4580
 1083YOPC   D3B15285   5.959  12.867   7.218 -0.0945 -0.2185  0.2531
 1083YOPC   C4B15286   5.781  12.760   7.621 -0.1143  0.0914  0.0467
 1084ERGO   ROH15287   4.546  15.975  10.116 -0.0882  0.1895  0.0165
 1084ERGO    R115288   4.575  15.864   9.857 -0.1866  0.0090  0.0815
 1084ERGO    R215289   4.366  15.846   9.678 -0.1557  0.2949  0.0158
 1084ERGO    R315290   4.537  15.978   9.514  0.1467 -0.0856  0.0083
 1084ERGO    R415291   4.332  15.866   9.335 -0.1803  0.4346  0.0254
 1084ERGO    R515292   4.549  15.840   9.318 -0.2293 -0.0927 -0.0193
 1084ERGO    C115293   4.473  16.002   8.980  0.0892  0.1586  0.0239
 1084ERGO    C215294   4.372  16.079   8.593  0.0915  0.3065  0.1465
 1085ERGO   ROH15295   4.089   4.569  10.203  0.1139  0.0823 -0.0548
 1085ERGO    R115296   3.949   4.504   9.966  0.0495 -0.0753  0.0252
 1085ERGO    R215297   3.896   4.690   9.769 -0.1941 -0.1556  0.0146
 1085ERGO    R315298   4.018   4.508   9.609 -0.1274 -0.0894 -0.0107
 1085ERGO    R415299   3.837   4.657   9.430 -0.1446 -0.0892 -0.0008
 1085ERGO    R515300   3.846   4.440   9.456 -0.0944 -0.0960 -0.0484
 1085ERGO    C115301   3.918   4.466   9.082 -0.0533  0.0114 -0.0336
 1085ERGO    C215302   3.793   4.434   8.819 -0.0021 -0.1307 -0.0426
 1086ERGO   ROH15303  15.852   0.084   6.813 -0.1016  0.0476  0.0741
 1086ERGO    R115304  15.906   0.250   7.036  0.0046 -0.0697  0.1373
 1086ERGO    R215305  15.888   0.160   7.296  0.1044 -0.2010  0.1006
 1086ERGO    R315306  16.143   0.254   7.311  0.1195 -0.2318  0.0419
 1086ERGO    R415307  16.071   0.189   7.588  0.2178 -0.3220  0.0427
 1086ERGO    R515308  16.148   0.380   7.515  0.2090 -0.3053  0.0838
 1086ERGO    C115309  16.417   0.294   7.772  0.2980 -0.4214 -0.0461
 1086ERGO    C215310  16.529   0.416   8.181  0.2606  0.0965  0.0271
 1087ERGO   ROH15311   5.892   4.778  10.230 -0.3091  0.0047 -0.0486
 1087ERGO    R115312   5.823   4.838   9.962 -0.1626 -0.0543 -0.1007
 1087ERGO    R215313   5.847   5.092   9.856 -0.2690 -0.0387 -0.0917
 1087ERGO    R315314   5.995   4.964   9.667 -0.0409  0.0584  0.0176
 1087ERGO    R415315   5.830   5.154   9.516 -0.1771 -0.1673 -0.1204
 1087ERGO    R515316   5.846   4.940   9.481  0.0715 -0.1633 -0.0458
 1087ERGO    C115317   5.959   5.070   9.141  0.0905 -0.1510 -0.0345
 1087ERGO    C215318   5.911   5.090   8.747 -0.0516 -0.3237 -0.1496
 1088ERGO   ROH15319   9.505   0.533   6.792  0.3087  0.1345 -0.1422
 1088ERGO    R115320   9.585   0.671   7.026  0.0725  0.2899 -0.1500
 1088ERGO    R215321   9.415   0.841   7.164 -0.2428 -0.0278 -0.1316
 1088ERGO    R315322   9.481   0.682   7.375  0.0842  0.0898 -0.1396
 1088ERGO    R415323   9.325   0.900   7.492 -0.1390 -0.0950 -0.0905
 1088ERGO    R515324   9.524   0.835   7.554 -0.0164  0.1754 -0.1887
 1088ERGO    C115325   9.335   0.786   7.881  0.2284 -0.0237 -0.0740
 1088ERGO    C215326   9.188   0.857   8.114 -0.1071 -0.1885  0.1759
 1089ERGO   ROH15327   7.144  15.890   6.693  0.2553  0.0894 -0.1046
 1089ERGO    R115328   7.361  15.966   6.858  0.1400  0.1297  0.0310
 1089ERGO    R215329   7.329  16.121   7.085 -0.0391  0.0626  0.0553
 1089ERGO    R315330   7.460  15.915   7.204 -0.0274  0.0799  0.0716
 1089ERGO    R415331   7.513  16.145   7.376  0.0041  0.1032  0.0245
 1089ERGO    R515332   7.661  16.012   7.288 -0.0135  0.0860  0.0268
 1089ERGO    C115333   7.743  15.966   7.658  0.0402  0.1430  0.0219
 1089ERGO    C215334   7.984  15.774   7.765  0.0243  0.2730 -0.0470
 1090ERGO   ROH15335  13.523   6.137   6.755  0.0950  0.2819 -0.0432
 1090ERGO    R115336  13.521   6.246   7.016  0.0897  0.1665  0.0058
 1090ERGO    R215337  13.309   6.211   7.191  0.0490  0.1598 -0.0441
 1090ERGO    R315338  13.504   6.118   7.356 -0.0089  0.0201 -0.0535
 1090ERGO    R415339  13.311   6.245   7.535 -0.0536 -0.0995 -0.0163
 1090ERGO    R515340  13.524   6.285   7.526 -0.0474 -0.1086  0.0798
 1090ERGO    C115341  13.494   6.176   7.891 -0.1677 -0.3816 -0.0089
 1090ERGO    C215342  13.506   6.051   8.236  0.1241 -0.0586 -0.0780
 1091ERGO   ROH15343   0.032   9.741   6.824 -0.0831  0.2189 -0.0240
 1091ERGO    R115344   0.075   9.672   7.095 -0.0995  0.1990 -0.0264
 1091ERGO    R215345   0.002   9.838   7.304 -0.1261  0.1772 -0.0177
 1091ERGO    R315346  -0.133   9.618   7.389 -0.1187  0.1613 -0.0470
 1091ERGO    R415347  -0.076   9.769   7.634 -0.0907  0.1106 -0.0230
 1091ERGO    R515348  -0.027   9.560   7.596 -0.0968  0.1182 -0.0704
 1091ERGO    C115349  -0.248   9.523   7.906 -0.0630  0.0571 -0.0537
 1091ERGO    C215350  -0.548   9.572   8.150 -0.1482  0.2750 -0.0642
 1092ERGO   ROH15351  13.054   8.585   6.521 -0.1068  0.0288 -0.0888
 1092ERGO    R115352  12.959   8.658   6.777  0.0297  0.1166 -0.0621
 1092ERGO    R215353  12.938   8.477   6.985 -0.0739  0.1371 -0.0591
 1092ERGO    R315354  13.089   8.660   7.117  0.1270  0.0033 -0.0963
 1092ERGO    R415355  13.006   8.469   7.324 -0.0735  0.1130 -0.0594
 1092ERGO    R515356  12.980   8.685   7.329  0.1537  0.1502 -0.0943
 1092ERGO    C115357  13.188   8.637   7.645  0.1152 -0.0268 -0.0945
 1092ERGO    C215358  13.405   8.458   7.916  0.0267 -0.1209 -0.0264
 1093ERGO   ROH15359  17.144  14.751  10.527  0.1635  0.0341 -0.0362
 1093ERGO    R115360  17.052  14.628  10.289  0.1926 -0.0745  0.0078
 1093ERGO    R215361  16.912  14.766  10.095 -0.0029 -0.2195  0.0401
 1093ERGO    R315362  17.107  14.669   9.932  0.0324 -0.0576 -0.0148
 1093ERGO    R415363  16.907  14.780   9.750  0.0119 -0.0055  0.0474
 1093ERGO    R515364  16.989  14.579   9.745  0.0718  0.0247 -0.0772
 1093ERGO    C115365  17.087  14.698   9.396  0.0536  0.2711  0.0001
 1093ERGO    C215366  17.035  14.685   9.019  0.1327 -0.1013 -0.1875
 1094ERGO   ROH15367   6.011   0.609  10.195  0.0805 -0.3378 -0.0622
 1094ERGO    R115368   6.127   0.526   9.950  0.0903 -0.0291 -0.1657
 1094ERGO    R215369   6.003   0.346   9.781  0.1987  0.0209 -0.2887
 1094ERGO    R315370   6.040   0.543   9.597 -0.0054  0.2091 -0.1350
 1094ERGO    R415371   5.977   0.305   9.439  0.2385  0.2468 -0.3211
 1094ERGO    R515372   6.150   0.435   9.414  0.1129  0.4543 -0.2223
 1094ERGO    C115373   5.996   0.466   9.067  0.0702  0.5549 -0.1957
 1094ERGO    C215374   5.966   0.368   8.703  0.0323  0.1593  0.0174
 1095ERGO   ROH15375   7.504  14.888   9.917  0.0833 -0.0253 -0.1316
 1095ERGO    R115376   7.342  14.898   9.685 -0.0701 -0.0916 -0.0292
 1095ERGO    R215377   7.336  15.117   9.517 -0.2349 -0.1091 -0.0530
 1095ERGO    R315378   7.394  14.932   9.327 -0.3084 -0.1165 -0.0673
 1095ERGO    R415379   7.280  15.157   9.178 -0.1648 -0.0391 -0.0563
 1095ERGO    R515380   7.214  14.949   9.170 -0.2750 -0.0013 -0.0911
 1095ERGO    C115381   7.301  15.005   8.803 -0.1930 -0.0053 -0.0716
 1095ERGO    C215382   7.360  15.073   8.459 -0.1016 -0.0574 -0.2971
 1096ERGO   ROH15383  16.592   5.483   6.921  0.0393  0.0509  0.0385
 1096ERGO    R115384  16.502   5.531   7.185  0.0456  0.1001  0.0310
 1096ERGO    R215385  16.537   5.348   7.390  0.1057  0.1655  0.0759
 1096ERGO    R315386  16.655   5.559   7.514  0.0604  0.2288  0.0144
 1096ERGO    R415387  16.560   5.387   7.732  0.2008  0.2100  0.0655
 1096ERGO    R515388  16.517   5.599   7.706  0.1041  0.1918  0.0559
 1096ERGO    C115389  16.684   5.607   8.049  0.2137  0.2953  0.0017
 1096ERGO    C215390  16.743   5.615   8.365  0.1034  0.1673  0.0797
 1097ERGO   ROH15391   9.587  15.286   9.786 -0.1931  0.2779  0.1060
 1097ERGO    R115392   9.670  15.217   9.524 -0.2087  0.1492  0.1339
 1097ERGO    R215393   9.569  15.340   9.298 -0.2157  0.0462  0.0774
 1097ERGO    R315394   9.832  15.385   9.245 -0.2164  0.0108  0.0459
 1097ERGO    R415395   9.693  15.451   8.995 -0.2474  0.1639  0.1071
 1097ERGO    R515396   9.859  15.312   9.018 -0.2765  0.1151  0.0062
 1097ERGO    C115397  10.011  15.557   8.769 -0.2665  0.1992  0.0948
 1097ERGO    C215398  10.258  15.519   8.502  0.1426 -0.2494 -0.0906
 1098ERGO   ROH15399  13.065  12.072  10.086 -0.1498  0.0060 -0.1183
 1098ERGO    R115400  13.198  12.007   9.845 -0.0307  0.1915 -0.1025
 1098ERGO    R215401  13.081  11.855   9.647  0.1798  0.0901 -0.1407
 1098ERGO    R315402  13.146  12.067   9.490 -0.0280  0.1836 -0.1066
 1098ERGO    R415403  13.089  11.849   9.301  0.0805  0.1716 -0.1461
 1098ERGO    R515404  13.270  11.971   9.309 -0.0026  0.3142 -0.1677
 1098ERGO    C115405  13.155  12.046   8.953 -0.1724  0.3068 -0.1170
 1098ERGO    C215406  13.110  12.197   8.590  0.0686 -0.4851 -0.0704
 1099ERGO   ROH15407  14.962   6.961   6.827 -0.1628 -0.2525 -0.1693
 1099ERGO    R115408  14.908   7.043   7.092  0.2975 -0.1882 -0.0880
 1099ERGO    R215409  14.652   7.058   7.195  0.4015  0.5600  0.1210
 1099ERGO    R315410  14.754   6.897   7.388  0.0726  0.1511 -0.0314
 1099ERGO    R415411  14.506   7.000   7.502  0.2907  0.5869  0.0738
 1099ERGO    R515412  14.703   7.009   7.593  0.3262  0.0774  0.0762
 1099ERGO    C115413  14.517   6.814   7.863 -0.0825  0.2187 -0.0968
 1099ERGO    C215414  14.257   6.678   8.034 -0.1398  0.2388  0.0861
 1100ERGO   ROH15415  17.997   6.188  10.513 -0.1146 -0.0202 -0.0753
 1100ERGO    R115416  18.013   6.090  10.248  0.1411  0.0208 -0.0757
 1100ERGO    R215417  17.798   6.096  10.074  0.2151 -0.2627 -0.1643
 1100ERGO    R315418  17.973   6.226   9.913  0.1055 -0.0110 -0.0882
 1100ERGO    R415419  17.775   6.112   9.730  0.1824 -0.0878 -0.1563
 1100ERGO    R515420  17.991   6.087   9.719  0.2190  0.1037 -0.1737
 1100ERGO    C115421  17.926   6.245   9.378  0.0605  0.2503 -0.0801
 1100ERGO    C215422  17.945   6.104   9.091  0.2270  0.0253  0.1434
 1101ERGO   ROH15423   3.162  16.708   6.702  0.4329 -0.3861 -0.0103
 1101ERGO    R115424   3.272  16.907   6.871  0.1348 -0.1717 -0.0602
 1101ERGO    R215425   3.152  16.983   7.109 -0.0585 -0.1820 -0.1486
 1101ERGO    R315426   3.397  16.924   7.213 -0.0344  0.1433 -0.0116
 1101ERGO    R415427   3.231  16.990   7.445 -0.2777 -0.1613 -0.0969
 1101ERGO    R515428   3.423  17.079   7.393 -0.3710  0.1328  0.0506
 1101ERGO    C115429   3.506  16.939   7.738 -0.3827  0.1563  0.0618
 1101ERGO    C215430   3.537  16.953   8.082  0.2245  0.1934 -0.1443
 1102ERGO   ROH15431  17.626   8.062  10.280 -0.1531 -0.0245 -0.2027
 1102ERGO    R115432  17.754   7.998  10.036  0.1003  0.1593 -0.1236
 1102ERGO    R215433  17.622   7.878   9.825  0.4183 -0.0928 -0.1943
 1102ERGO    R315434  17.718   8.091   9.686  0.1443  0.0601 -0.1531
 1102ERGO    R415435  17.590   7.921   9.484  0.2472  0.0095 -0.1654
 1102ERGO    R515436  17.794   7.997   9.479  0.1637  0.2226 -0.2164
 1102ERGO    C115437  17.661   8.147   9.154 -0.1097  0.2127 -0.1100
 1102ERGO    C215438  17.600   8.041   8.758  0.2204  0.1138  0.1482
 1103ERGO   ROH15439  12.201   9.433  10.062 -0.1915  0.2278 -0.0791
 1103ERGO    R115440  12.146   9.264   9.842 -0.1657  0.1183 -0.0010
 1103ERGO    R215441  11.990   9.344   9.629 -0.0507  0.0473 -0.1048
 1103ERGO    R315442  12.207   9.267   9.483 -0.0257 -0.1197  0.0165
 1103ERGO    R415443  12.005   9.342   9.283  0.0625 -0.1379 -0.1006
 1103ERGO    R515444  12.114   9.153   9.295 -0.0138 -0.1846  0.0420
 1103ERGO    C115445  12.217   9.268   8.946  0.1518 -0.4026  0.0158
 1103ERGO    C215446  12.427   9.394   8.681 -0.3199 -0.0614  0.1268
 1104ERGO   ROH15447  14.523  16.792   7.097 -0.0399  0.0073  0.0653
 1104ERGO    R115448  14.602  16.947   7.320 -0.0950  0.0954  0.0267
 1104ERGO    R215449  14.427  17.113   7.456 -0.2010 -0.0489  0.0858
 1104ERGO    R315450  14.510  16.970   7.671  0.0116  0.0301  0.0574
 1104ERGO    R415451  14.474  17.242   7.773 -0.1448  0.0007  0.0558
 1104ERGO    R515452  14.653  17.119   7.791 -0.0467  0.1415 -0.0200
 1104ERGO    C115453  14.579  17.182   8.160  0.0874  0.1041  0.0116
 1104ERGO    C215454  14.553  16.968   8.557  0.4158 -0.0484  0.0950
 1105ERGO   ROH15455  11.561   8.424  10.135  0.1291  0.1148 -0.0368
 1105ERGO    R115456  11.518   8.577   9.901  0.0423  0.0847 -0.0405
 1105ERGO    R215457  11.528   8.468   9.647  0.0140  0.0660 -0.0328
 1105ERGO    R315458  11.280   8.578   9.625 -0.0168  0.0051  0.0101
 1105ERGO    R415459  11.370   8.543   9.349 -0.1886 -0.2552 -0.0117
 1105ERGO    R515460  11.297   8.727   9.439 -0.1592 -0.1770 -0.1512
 1105ERGO    C115461  11.046   8.690   9.155 -0.3356 -0.4993  0.0409
 1105ERGO    C215462  10.953   8.649   8.905 -0.2023  0.0140  0.3086
 1106ERGO   ROH15463   1.148  17.153   6.725 -0.2540  0.0068 -0.0348
 1106ERGO    R115464   1.297  17.152   6.965 -0.1775  0.0537 -0.0814
 1106ERGO    R215465   1.367  17.384   7.098 -0.1392  0.0803 -0.1445
 1106ERGO    R315466   1.246  17.261   7.308 -0.0715  0.1155 -0.0854
 1106ERGO    R415467   1.298  17.533   7.402  0.1162  0.0778 -0.0839
 1106ERGO    R515468   1.358  17.349   7.501  0.0868  0.0389 -0.1421
 1106ERGO    C115469   1.146  17.504   7.777  0.3286  0.1091  0.0069
 1106ERGO    C215470   0.892  17.631   8.004 -0.0568  0.0026  0.0950
 1107ERGO   ROH15471   7.270   4.405   9.817  0.0572  0.0189 -0.2476
 1107ERGO    R115472   7.298   4.554   9.579  0.0651  0.0604 -0.2216
 1107ERGO    R215473   7.459   4.472   9.370  0.0855  0.1042 -0.2263
 1107ERGO    R315474   7.232   4.502   9.225  0.0930  0.1137 -0.2345
 1107ERGO    R415475   7.449   4.531   9.029  0.1035  0.2159 -0.2070
 1107ERGO    R515476   7.285   4.671   9.064  0.0772  0.1759 -0.1734
 1107ERGO    C115477   7.229   4.594   8.695  0.1209  0.2897 -0.2035
 1107ERGO    C215478   7.228   4.598   8.341 -0.0164 -0.0446  0.2681
 1108ERGO   ROH15479  15.942  16.272   6.976 -0.2542 -0.1692 -0.2550
 1108ERGO    R115480  15.764  16.070   7.063 -0.1606 -0.1893 -0.1073
 1108ERGO    R215481  15.821  15.903   7.275 -0.0731 -0.0217  0.0024
 1108ERGO    R315482  15.581  15.992   7.368 -0.1066 -0.0636 -0.0420
 1108ERGO    R415483  15.640  15.754   7.529  0.0251  0.0888  0.1393
 1108ERGO    R515484  15.458  15.792   7.415 -0.0062 -0.0877  0.1273
 1108ERGO    C115485  15.310  15.750   7.765  0.0508  0.1137  0.1773
 1108ERGO    C215486  15.067  15.827   7.996  0.0860  0.2733 -0.2686
 1109ERGO   ROH15487  11.218   0.776   6.889  0.2327  0.0277  0.0180
 1109ERGO    R115488  11.326   0.637   7.111  0.1761  0.0125  0.0371
 1109ERGO    R215489  11.383   0.760   7.351  0.2619  0.0312  0.0131
 1109ERGO    R315490  11.225   0.564   7.453  0.1610  0.1357  0.0574
 1109ERGO    R415491  11.367   0.673   7.685  0.1959  0.1150  0.0318
 1109ERGO    R515492  11.358   0.464   7.625  0.0952  0.1103  0.0870
 1109ERGO    C115493  11.209   0.439   7.975  0.0629  0.2619  0.0842
 1109ERGO    C215494  11.065   0.465   8.273 -0.1058  0.2294  0.1531
 1110ERGO   ROH15495  11.530  10.084   9.963  0.1107  0.0117  0.0458
 1110ERGO    R115496  11.529  10.229   9.720  0.0875  0.0303  0.0573
 1110ERGO    R215497  11.755  10.256   9.562  0.0562 -0.0159  0.0068
 1110ERGO    R315498  11.590  10.157   9.369 -0.0171  0.0396  0.0356
 1110ERGO    R415499  11.763  10.347   9.229  0.2278 -0.2299 -0.0504
 1110ERGO    R515500  11.545  10.344   9.227  0.2167  0.0080 -0.0906
 1110ERGO    C115501  11.614  10.307   8.854  0.2588 -0.3023 -0.0567
 1110ERGO    C215502  11.749  10.180   8.620 -0.1191  0.0193 -0.1482
 1111ERGO   ROH15503   4.310   6.752   9.952 -0.0682 -0.0172 -0.0493
 1111ERGO    R115504   4.161   6.668   9.726 -0.0521 -0.0100 -0.0625
 1111ERGO    R215505   3.972   6.829   9.604  0.0021  0.0180 -0.1096
 1111ERGO    R315506   4.119   6.778   9.381  0.0250 -0.0398 -0.0816
 1111ERGO    R415507   3.846   6.817   9.282  0.0286 -0.0982 -0.1163
 1111ERGO    R515508   3.975   6.646   9.243  0.0486 -0.0987 -0.0506
 1111ERGO    C115509   3.912   6.763   8.886  0.0655 -0.2201 -0.0939
 1111ERGO    C215510   3.925   6.839   8.552  0.2560 -0.0039 -0.1406
 1112ERGO   ROH15511   9.632   9.557   9.943 -0.2491 -0.3721  0.0739
 1112ERGO    R115512   9.683   9.598   9.668 -0.1984 -0.0491  0.1278
 1112ERGO    R215513   9.635   9.404   9.477  0.2714  0.0018 -0.0523
 1112ERGO    R315514   9.489   9.601   9.360 -0.0665 -0.1869  0.0405
 1112ERGO    R415515   9.622   9.466   9.137  0.1685  0.1359 -0.0247
 1112ERGO    R515516   9.626   9.680   9.181 -0.1930  0.1307  0.0742
 1112ERGO    C115517   9.477   9.687   8.830 -0.2084  0.0371  0.0785
 1112ERGO    C215518   9.648   9.742   8.469  0.0472  0.0642 -0.0159
 1113ERGO   ROH15519  12.344  16.812   6.543 -0.1579  0.0062  0.0140
 1113ERGO    R115520  12.538  16.649   6.669 -0.1468  0.0073 -0.0002
 1113ERGO    R215521  12.795  16.736   6.721 -0.1243 -0.0083 -0.0665
 1113ERGO    R315522  12.735  16.660   6.975 -0.0832  0.0394 -0.0434
 1113ERGO    R415523  12.992  16.530   6.917 -0.2456 -0.2222 -0.1672
 1113ERGO    R515524  12.810  16.433   6.988 -0.3113 -0.0381 -0.0890
 1113ERGO    C115525  13.049  16.339   7.270 -0.2777 -0.3019 -0.2041
 1113ERGO    C215526  13.227  16.344   7.507  0.1763  0.0951  0.0895
 1114ERGO   ROH15527  17.423  15.156  10.550 -0.0185  0.2178  0.0448
 1114ERGO    R115528  17.437  15.015  10.305 -0.0470  0.1305  0.0919
 1114ERGO    R215529  17.270  15.071  10.091  0.1463  0.2842 -0.0280
 1114ERGO    R315530  17.504  15.098   9.957  0.2672 -0.0459  0.1094
 1114ERGO    R415531  17.302  15.060   9.747  0.3261  0.3511 -0.0140
 1114ERGO    R515532  17.485  14.944   9.774  0.1257  0.0484  0.0490
 1114ERGO    C115533  17.541  15.078   9.421  0.5442  0.0802  0.1231
 1114ERGO    C215534  17.420  14.982   9.070 -0.1341 -0.0584  0.0523
 1115ERGO   ROH15535   9.010   3.143  10.385 -0.2232  0.1130 -0.1836
 1115ERGO    R115536   9.183   3.216  10.172 -0.1890  0.0723 -0.1701
 1115ERGO    R215537   9.301   3.029  10.007 -0.0434  0.0319 -0.0231
 1115ERGO    R315538   9.186   3.178   9.811 -0.0528 -0.1382 -0.1486
 1115ERGO    R415539   9.383   3.012   9.671  0.1457 -0.0558  0.0260
 1115ERGO    R515540   9.365   3.229   9.661 -0.0103 -0.0713 -0.0762
 1115ERGO    C115541   9.322   3.142   9.292  0.2472 -0.2666 -0.0630
 1115ERGO    C215542   9.406   3.120   8.996  0.1250  0.0332 -0.2481
 1116ERGO   ROH15543   8.137   0.580  10.109  0.0410 -0.2235  0.0989
 1116ERGO    R115544   8.271   0.450   9.897 -0.0410 -0.1324 -0.0115
 1116ERGO    R215545   8.137   0.330   9.687 -0.1280 -0.1034  0.0186
 1116ERGO    R315546   8.296   0.490   9.536 -0.2438 -0.0175 -0.0123
 1116ERGO    R415547   8.230   0.265   9.361  0.0154 -0.1437  0.0676
 1116ERGO    R515548   8.430   0.337   9.408 -0.0695  0.0626  0.0814
 1116ERGO    C115549   8.434   0.377   9.029 -0.0100 -0.0864  0.0672
 1116ERGO    C215550   8.517   0.429   8.799 -0.2831 -0.1291  0.1099
 1117ERGO   ROH15551   3.602   1.960  10.017  0.1324  0.1655  0.0491
 1117ERGO    R115552   3.575   1.818   9.774  0.1792  0.0659  0.1016
 1117ERGO    R215553   3.386   1.883   9.583  0.0504 -0.1666  0.1454
 1117ERGO    R315554   3.603   1.894   9.419 -0.0141 -0.0154  0.0687
 1117ERGO    R415555   3.387   1.784   9.252  0.0414 -0.2989  0.1841
 1117ERGO    R515556   3.584   1.696   9.284  0.1405 -0.0881  0.1542
 1117ERGO    C115557   3.590   1.737   8.904 -0.0244 -0.2340  0.1347
 1117ERGO    C215558   3.568   1.768   8.470  0.1321  0.1360  0.0085
 1118ERGO   ROH15559  16.107   0.985  10.837  0.1731 -0.0154 -0.0143
 1118ERGO    R115560  16.022   0.891  10.584 -0.0186  0.0303  0.0321
 1118ERGO    R215561  15.891   1.053  10.402  0.1242  0.1514  0.0375
 1118ERGO    R315562  16.090   0.972  10.236 -0.0233 -0.1319 -0.0081
 1118ERGO    R415563  15.870   1.045  10.057  0.0069  0.1176  0.0449
 1118ERGO    R515564  15.978   0.855  10.060 -0.2285 -0.0236  0.0455
 1118ERGO    C115565  16.045   0.964   9.700 -0.1996 -0.1680  0.0064
 1118ERGO    C215566  16.011   1.005   9.403 -0.0942  0.0725  0.0484
 1119ERGO   ROH15567   0.261   0.330   6.914  0.0102 -0.2618 -0.0525
 1119ERGO    R115568   0.120   0.324   7.160 -0.0489 -0.1117 -0.0820
 1119ERGO    R215569   0.015   0.091   7.266 -0.0382 -0.0518  0.0524
 1119ERGO    R315570   0.162   0.162   7.484 -0.1057  0.1191  0.0441
 1119ERGO    R415571  -0.060   0.005   7.592  0.1734 -0.3121  0.0368
 1119ERGO    R515572  -0.001   0.205   7.654 -0.1527 -0.2232  0.0986
 1119ERGO    C115573   0.034   0.023   7.987  0.2333 -0.3032  0.0198
 1119ERGO    C215574   0.263  -0.151   8.295  0.1215 -0.3417 -0.0264
 1120ERGO   ROH15575  11.093  17.299  10.203  0.0325  0.1363  0.0531
 1120ERGO    R115576  11.103  17.505  10.009 -0.0393  0.0627 -0.0285
 1120ERGO    R215577  11.309  17.527   9.825 -0.0554  0.0539 -0.0412
 1120ERGO    R315578  11.105  17.526   9.646 -0.0593 -0.0776 -0.0384
 1120ERGO    R415579  11.342  17.600   9.489 -0.0823 -0.0246 -0.0617
 1120ERGO    R515580  11.154  17.709   9.499 -0.1301 -0.0940 -0.0890
 1120ERGO    C115581  11.170  17.641   9.125 -0.1016 -0.1935 -0.0710
 1120ERGO    C215582  11.204  17.693   8.812  0.0862  0.2118  0.0845
 1121ERGO   ROH15583   4.175   5.391  10.139 -0.0595 -0.0079 -0.0399
 1121ERGO    R115584   4.027   5.465   9.909 -0.1251  0.0799  0.0298
 1121ERGO    R215585   4.121   5.648   9.725 -0.1609  0.1217  0.0524
 1121ERGO    R315586   4.073   5.447   9.549 -0.2456  0.1796  0.0087
 1121ERGO    R415587   4.057   5.690   9.388  0.0067  0.2129  0.0309
 1121ERGO    R515588   3.906   5.534   9.402 -0.1199  0.3266 -0.0485
 1121ERGO    C115589   3.975   5.526   9.027  0.0247  0.3204 -0.0225
 1121ERGO    C215590   3.910   5.351   8.681  0.1941 -0.1206  0.0352
 1122ERGO   ROH15591   1.787   5.578  10.645  0.2808  0.0338  0.1140
 1122ERGO    R115592   1.858   5.501  10.382  0.2024 -0.1045  0.1321
 1122ERGO    R215593   1.734   5.292  10.250 -0.0022 -0.0238  0.1900
 1122ERGO    R315594   1.691   5.481  10.059  0.1748 -0.0307  0.1421
 1122ERGO    R415595   1.706   5.229   9.911  0.0764 -0.0623  0.1904
 1122ERGO    R515596   1.822   5.409   9.873  0.1954 -0.1387  0.1991
 1122ERGO    C115597   1.649   5.370   9.535  0.2884 -0.0911  0.1458
 1122ERGO    C215598   1.662   5.428   9.197 -0.0203  0.1012 -0.0336
 1123ERGO   ROH15599   5.092   5.133   9.983  0.0256 -0.1844  0.0018
 1123ERGO    R115600   4.909   5.104   9.769 -0.0359 -0.3572  0.0775
 1123ERGO    R215601   4.962   5.197   9.514 -0.3172 -0.1045  0.1108
 1123ERGO    R315602   4.906   4.941   9.444  0.0765 -0.1610 -0.0255
 1123ERGO    R415603   4.849   5.098   9.203 -0.3551 -0.0791  0.1153
 1123ERGO    R515604   4.714   4.958   9.302 -0.0564 -0.3868  0.1159
 1123ERGO    C115605   4.730   4.799   8.956 -0.0076 -0.1173 -0.0100
 1123ERGO    C215606   4.679   4.779   8.584 -0.2429  0.2340  0.0498
 1124ERGO   ROH15607  15.099  16.869  10.455 -0.1839  0.1879 -0.0933
 1124ERGO    R115608  15.245  16.877  10.212 -0.0831  0.1826 -0.0334
 1124ERGO    R215609  15.279  16.655  10.052 -0.0112  0.1793 -0.0092
 1124ERGO    R315610  15.174  16.816   9.860  0.0663  0.1681 -0.0622
 1124ERGO    R415611  15.366  16.646   9.717 -0.1312 -0.0907 -0.0368
 1124ERGO    R515612  15.359  16.864   9.715  0.0646 -0.0801 -0.1551
 1124ERGO    C115613  15.318  16.794   9.343 -0.1284 -0.2586 -0.1026
 1124ERGO    C215614  15.374  16.854   8.975  0.1769 -0.0678  0.3129
 1125ERGO   ROH15615   6.870   2.236   9.614 -0.0566 -0.0903 -0.0378
 1125ERGO    R115616   6.980   2.093   9.396 -0.1284 -0.1502 -0.0355
 1125ERGO    R215617   6.863   2.090   9.146 -0.0604  0.0130 -0.0726
 1125ERGO    R315618   7.109   2.172   9.065  0.0436 -0.2014  0.0188
 1125ERGO    R415619   6.999   2.027   8.834 -0.0593  0.0249 -0.0742
 1125ERGO    R515620   7.191   1.991   8.932 -0.1159 -0.2215 -0.0519
 1125ERGO    C115621   7.309   2.068   8.577  0.0390 -0.1694  0.0108
 1125ERGO    C215622   7.506   1.969   8.436 -0.1013  0.0708 -0.0757
 1126ERGO   ROH15623  12.222   7.099   6.819  0.2078 -0.1573 -0.0770
 1126ERGO    R115624  12.058   7.057   7.045  0.1078  0.1176 -0.0931
 1126ERGO    R215625  12.060   6.821   7.190 -0.4232  0.0314 -0.1858
 1126ERGO    R315626  12.107   6.988   7.399 -0.0332 -0.1474 -0.1256
 1126ERGO    R415627  11.937   6.776   7.509 -0.4276  0.1613 -0.1701
 1126ERGO    R515628  11.901   6.991   7.520  0.0087  0.2263 -0.0693
 1126ERGO    C115629  11.910   6.906   7.892 -0.0642  0.0690 -0.1045
 1126ERGO    C215630  11.931   7.088   8.149 -0.2045  0.1077  0.0405
 1127ERGO   ROH15631  16.389  13.579   6.762 -0.1977 -0.0910  0.2124
 1127ERGO    R115632  16.541  13.574   7.001 -0.1004 -0.1012  0.1510
 1127ERGO    R215633  16.427  13.604   7.251  0.0052 -0.0796  0.1975
 1127ERGO    R315634  16.555  13.369   7.302 -0.0019 -0.0930  0.1527
 1127ERGO    R415635  16.517  13.491   7.565  0.0094 -0.1361  0.1759
 1127ERGO    R515636  16.705  13.420   7.481  0.0050 -0.1284  0.1578
 1127ERGO    C115637  16.689  13.206   7.795  0.0052 -0.1816  0.1213
 1127ERGO    C215638  16.799  13.029   8.105  0.0492  0.1094  0.2316
 1128ERGO   ROH15639   1.717   8.513  10.280  0.3333 -0.2392  0.0236
 1128ERGO    R115640   1.720   8.652  10.033  0.2090 -0.0643  0.1170
 1128ERGO    R215641   1.927   8.628   9.851  0.1449  0.1029  0.0148
 1128ERGO    R315642   1.726   8.562   9.681  0.0887  0.1819  0.0512
 1128ERGO    R415643   1.948   8.641   9.507  0.1611 -0.1244  0.0062
 1128ERGO    R515644   1.745   8.721   9.502  0.2341  0.0561 -0.0441
 1128ERGO    C115645   1.771   8.588   9.146  0.1178 -0.1826  0.0353
 1128ERGO    C215646   1.671   8.567   8.765  0.0367 -0.0439  0.0868
 1129ERGO   ROH15647  12.468  17.844  10.270  0.2655 -0.4196 -0.0129
 1129ERGO    R115648  12.530  17.709  10.029  0.2785 -0.2950 -0.0787
 1129ERGO    R215649  12.360  17.707   9.811  0.1937 -0.3672 -0.0035
 1129ERGO    R315650  12.579  17.800   9.680  0.0638 -0.1514 -0.0753
 1129ERGO    R415651  12.397  17.713   9.468  0.0443 -0.2929 -0.0202
 1129ERGO    R515652  12.605  17.652   9.494  0.1192 -0.1137 -0.1061
 1129ERGO    C115653  12.624  17.804   9.145 -0.1647 -0.0470 -0.0973
 1129ERGO    C215654  12.602  17.887   8.745  0.2472  0.1167  0.0545
 1130ERGO   ROH15655   9.114  11.121   9.531 -0.0998  0.1005  0.0720
 1130ERGO    R115656   9.184  11.035   9.271 -0.1200  0.0064  0.0972
 1130ERGO    R215657   8.996  10.955   9.085 -0.1375 -0.0244  0.1275
 1130ERGO    R315658   9.116  11.143   8.930 -0.1129 -0.0919  0.0644
 1130ERGO    R415659   9.034  10.933   8.742 -0.2520 -0.0861  0.1182
 1130ERGO    R515660   9.234  11.016   8.764 -0.2128 -0.1601  0.0447
 1130ERGO    C115661   9.170  11.097   8.397 -0.2956 -0.1855  0.0536
 1130ERGO    C215662   9.091  10.957   8.064  0.4356 -0.0676 -0.1586
 1131ERGO   ROH15663   0.730  16.930   6.756  0.3967  0.0139 -0.0867
 1131ERGO    R115664   0.720  16.902   7.037  0.2021 -0.0847 -0.1024
 1131ERGO    R215665   0.927  16.981   7.203  0.1031 -0.1752  0.0658
 1131ERGO    R315666   0.731  17.123   7.326  0.0421 -0.1892 -0.0142
 1131ERGO    R415667   0.912  17.043   7.543 -0.0070 -0.1295  0.0532
 1131ERGO    R515668   0.696  17.009   7.534 -0.0008 -0.1661 -0.0073
 1131ERGO    C115669   0.719  17.212   7.856 -0.1284 -0.1158 -0.0294
 1131ERGO    C215670   0.816  17.125   8.137  0.0780 -0.3701  0.1867
 1132ERGO   ROH15671   5.945   1.947  10.112  0.1802  0.1396 -0.0363
 1132ERGO    R115672   5.868   1.869   9.851  0.1912 -0.0343  0.0106
 1132ERGO    R215673   5.851   2.049   9.641 -0.1314 -0.1065 -0.0311
 1132ERGO    R315674   6.018   1.872   9.520  0.0717  0.0885 -0.0433
 1132ERGO    R415675   5.859   1.986   9.302 -0.0489 -0.0642 -0.0374
 1132ERGO    R515676   5.885   1.774   9.346  0.1847 -0.0428 -0.0578
 1132ERGO    C115677   6.020   1.782   8.990  0.1900  0.1434 -0.0524
 1132ERGO    C215678   6.024   1.839   8.729 -0.1747  0.0745  0.2809
 1133ERGO   ROH15679  11.911  16.546   6.635 -0.3273 -0.0311 -0.0357
 1133ERGO    R115680  11.792  16.386   6.836 -0.2020 -0.0721  0.0063
 1133ERGO    R215681  11.940  16.228   7.007 -0.0846  0.0170 -0.0138
 1133ERGO    R315682  11.805  16.364   7.199 -0.1082 -0.0338  0.0061
 1133ERGO    R415683  11.941  16.148   7.344 -0.0131  0.0085 -0.0157
 1133ERGO    R515684  11.728  16.194   7.350 -0.0300 -0.0655  0.0122
 1133ERGO    C115685  11.814  16.230   7.720  0.0062 -0.0441  0.0019
 1133ERGO    C215686  11.727  16.151   8.085 -0.2845 -0.1125 -0.2330
 1134ERGO   ROH15687   3.010   0.590  10.131  0.0375 -0.0081  0.0308
 1134ERGO    R115688   3.015   0.447   9.887  0.0015 -0.0234  0.0394
 1134ERGO    R215689   2.878   0.532   9.662 -0.0291 -0.0374  0.0555
 1134ERGO    R315690   3.122   0.511   9.545 -0.0472 -0.0473  0.0188
 1134ERGO    R415691   2.931   0.475   9.325 -0.0876 -0.0966  0.0559
 1134ERGO    R515692   3.094   0.340   9.379 -0.0703 -0.0809  0.0543
 1134ERGO    C115693   3.191   0.422   9.019 -0.1386 -0.1405  0.0218
 1134ERGO    C215694   3.120   0.502   8.615  0.0465  0.2223  0.1570
 1135ERGO   ROH15695  15.522   6.988  10.687 -0.0714  0.0600  0.0546
 1135ERGO    R115696  15.451   7.004  10.414 -0.0787  0.2735  0.0669
 1135ERGO    R215697  15.594   7.154  10.231  0.1746  0.0786  0.0992
 1135ERGO    R315698  15.606   6.919  10.096 -0.2638  0.0919  0.0230
 1135ERGO    R415699  15.639   7.125   9.890  0.4885  0.1107  0.1349
 1135ERGO    R515700  15.493   6.964   9.889  0.0716  0.4670 -0.0926
 1135ERGO    C115701  15.676   6.888   9.564  0.2598  0.1418  0.0841
 1135ERGO    C215702  15.730   6.910   9.278 -0.2456  0.1548  0.0998
 1136ERGO   ROH15703   0.339  14.097  10.510 -0.0441 -0.1991  0.0160
 1136ERGO    R115704   0.373  13.936  10.281 -0.1457 -0.2026  0.0027
 1136ERGO    R215705   0.166  13.874  10.109 -0.1771 -0.0226 -0.0260
 1136ERGO    R315706   0.333  13.976   9.921 -0.0770 -0.1326  0.0027
 1136ERGO    R415707   0.105  13.873   9.769 -0.1532  0.0824 -0.0311
 1136ERGO    R515708   0.315  13.824   9.737 -0.1905 -0.0887 -0.0227
 1136ERGO    C115709   0.227  13.967   9.394 -0.0454  0.0402 -0.0071
 1136ERGO    C215710   0.192  13.970   8.939 -0.2270 -0.0061 -0.1655
 1137ERGO   ROH15711   2.694   1.828   6.797 -0.2325  0.0272  0.0589
 1137ERGO    R115712   2.687   1.992   7.028 -0.2002 -0.1334  0.1773
 1137ERGO    R215713   2.626   1.894   7.278  0.1677 -0.3790  0.1852
 1137ERGO    R315714   2.863   2.009   7.346  0.1037 -0.1416  0.0111
 1137ERGO    R415715   2.782   1.862   7.585  0.3199 -0.0161  0.1494
 1137ERGO    R515716   2.836   2.072   7.575  0.1501  0.0126 -0.0313
 1137ERGO    C115717   3.095   1.951   7.827  0.3485  0.4181 -0.0349
 1137ERGO    C215718   3.302   1.818   8.068 -0.2598 -0.0109  0.1529
 1138ERGO   ROH15719   7.458   2.668   6.732 -0.1371 -0.0243 -0.2739
 1138ERGO    R115720   7.289   2.706   6.955 -0.1533 -0.1116 -0.2702
 1138ERGO    R215721   7.170   2.496   7.090  0.0468 -0.1840 -0.1966
 1138ERGO    R315722   7.289   2.610   7.306 -0.0324 -0.0110 -0.2426
 1138ERGO    R415723   7.073   2.446   7.417  0.0509 -0.0690 -0.1776
 1138ERGO    R515724   7.108   2.658   7.455 -0.0670 -0.0331 -0.2812
 1138ERGO    C115725   7.127   2.523   7.811 -0.0211  0.1603 -0.2098
 1138ERGO    C215726   7.318   2.414   8.130  0.1090 -0.0691 -0.2100
 1139ERGO   ROH15727   4.882   9.937   9.963  0.0954  0.1536 -0.0588
 1139ERGO    R115728   4.742   9.905   9.719  0.0474 -0.0072 -0.0127
 1139ERGO    R215729   4.723  10.106   9.530 -0.3410  0.0214  0.0361
 1139ERGO    R315730   4.822   9.914   9.364 -0.0966  0.2082 -0.0397
 1139ERGO    R415731   4.637  10.068   9.197 -0.2795  0.0359  0.0196
 1139ERGO    R515732   4.636   9.852   9.227 -0.0104  0.0256 -0.0680
 1139ERGO    C115733   4.680   9.866   8.848 -0.0144  0.2195 -0.0611
 1139ERGO    C215734   4.730  10.018   8.557 -0.0807 -0.0892 -0.1998
 1140ERGO   ROH15735   5.523   1.932  10.170 -0.4011 -0.0654  0.0458
 1140ERGO    R115736   5.390   1.900   9.922 -0.2620 -0.0255 -0.0346
 1140ERGO    R215737   5.408   2.087   9.719 -0.1015 -0.0211 -0.0153
 1140ERGO    R315738   5.486   1.872   9.573 -0.0623 -0.0311  0.0191
 1140ERGO    R415739   5.440   2.083   9.375 -0.0698 -0.0602 -0.0124
 1140ERGO    R515740   5.353   1.884   9.374 -0.0465 -0.0716  0.0050
 1140ERGO    C115741   5.533   1.879   9.037 -0.0144 -0.0923  0.0216
 1140ERGO    C215742   5.513   1.840   8.741 -0.1429  0.0082  0.1865
 1141ERGO   ROH15743  17.442  10.792  10.513 -0.1298  0.0033  0.0542
 1141ERGO    R115744  17.561  10.857  10.265 -0.0169 -0.1114  0.0767
 1141ERGO    R215745  17.596  10.672  10.063 -0.2589 -0.1239  0.0409
 1141ERGO    R315746  17.461  10.856   9.915  0.0052  0.0980  0.0691
 1141ERGO    R415747  17.579  10.675   9.718 -0.3184 -0.0875  0.0442
 1141ERGO    R515748  17.600  10.892   9.723  0.0281 -0.1169  0.0456
 1141ERGO    C115749  17.443  10.850   9.378 -0.1056  0.1421  0.0727
 1141ERGO    C215750  17.551  10.636   9.100  0.1416  0.4290  0.1955
 1142ERGO   ROH15751   6.429  14.557  10.176 -0.0653 -0.0988 -0.1106
 1142ERGO    R115752   6.322  14.675   9.942 -0.1111 -0.1592 -0.1206
 1142ERGO    R215753   6.477  14.818   9.763 -0.1994  0.0519 -0.0323
 1142ERGO    R315754   6.372  14.643   9.583  0.0526 -0.0222 -0.1114
 1142ERGO    R415755   6.485  14.858   9.420 -0.0395  0.0955 -0.0241
 1142ERGO    R515756   6.281  14.782   9.411  0.0288 -0.0814 -0.1473
 1142ERGO    C115757   6.391  14.718   9.051  0.2901  0.0513 -0.0935
 1142ERGO    C215758   6.380  14.822   8.778 -0.1033 -0.0247  0.1324
 1143ERGO   ROH15759  10.846   9.525   6.436  0.0449  0.0907 -0.0875
 1143ERGO    R115760  10.866   9.492   6.717  0.0205  0.0034 -0.0961
 1143ERGO    R215761  11.096   9.402   6.840  0.0104 -0.0295 -0.1044
 1143ERGO    R315762  11.069   9.630   6.986 -0.0070 -0.0762 -0.0335
 1143ERGO    R415763  11.166   9.430   7.177  0.1140 -0.1044 -0.1188
 1143ERGO    R515764  10.988   9.555   7.199  0.0836 -0.1594 -0.0263
 1143ERGO    C115765  11.181   9.661   7.511  0.1579 -0.1918 -0.0607
 1143ERGO    C215766  11.385   9.739   7.780 -0.2172  0.1719 -0.0094
 1144ERGO   ROH15767   9.598   4.604   9.969 -0.1170  0.0764  0.0192
 1144ERGO    R115768   9.792   4.570   9.765 -0.0719 -0.3546  0.1238
 1144ERGO    R215769   9.783   4.362   9.584 -0.5558 -0.2391 -0.0033
 1144ERGO    R315770   9.795   4.562   9.401  0.1272 -0.1436  0.1195
 1144ERGO    R415771   9.796   4.316   9.242 -0.5195 -0.0636 -0.0258
 1144ERGO    R515772   9.941   4.479   9.231 -0.0244 -0.4710  0.1463
 1144ERGO    C115773   9.816   4.478   8.871  0.1428  0.1283  0.0761
 1144ERGO    C215774   9.826   4.490   8.552 -0.1361  0.2580 -0.3324
 1145ERGO   ROH15775   3.135   8.125  10.207  0.3676  0.1581 -0.2829
 1145ERGO    R115776   3.191   8.059   9.937  0.0805 -0.1806 -0.2654
 1145ERGO    R215777   3.042   7.873   9.797 -0.3729 -0.0208 -0.0218
 1145ERGO    R315778   3.015   8.077   9.619 -0.0803 -0.1074 -0.1732
 1145ERGO    R415779   2.977   7.834   9.460 -0.2865 -0.1723 -0.0222
 1145ERGO    R515780   3.117   7.995   9.418 -0.0924 -0.3545 -0.0805
 1145ERGO    C115781   2.912   8.002   9.097  0.0385 -0.3417 -0.1645
 1145ERGO    C215782   2.849   7.898   8.742 -0.0114  0.2298  0.1777
 1146ERGO   ROH15783  13.740  13.813   6.593  0.0646 -0.2952  0.1710
 1146ERGO    R115784  13.763  14.004   6.801 -0.0124 -0.1802  0.0757
 1146ERGO    R215785  13.557  14.057   6.977 -0.0161 -0.2148  0.0831
 1146ERGO    R315786  13.747  14.002   7.164  0.0476 -0.0149  0.0800
 1146ERGO    R415787  13.561  14.186   7.298  0.0623  0.0808 -0.0338
 1146ERGO    R515788  13.777  14.209   7.280  0.0531  0.0969 -0.1187
 1146ERGO    C115789  13.741  14.210   7.660  0.1676  0.4405 -0.1048
 1146ERGO    C215790  13.679  14.474   7.893  0.0586 -0.4031 -0.0329
 1147ERGO   ROH15791   9.831  16.401  10.256 -0.0280 -0.0286  0.0624
 1147ERGO    R115792   9.672  16.562  10.085 -0.0131 -0.0976 -0.0165
 1147ERGO    R215793   9.769  16.788   9.961 -0.0623 -0.0307  0.0711
 1147ERGO    R315794   9.679  16.665   9.736  0.1429 -0.0529 -0.0015
 1147ERGO    R415795   9.744  16.938   9.651 -0.3776  0.1421  0.1754
 1147ERGO    R515796   9.554  16.834   9.622 -0.1938 -0.2011  0.1299
 1147ERGO    C115797   9.644  16.910   9.259 -0.3684  0.2216  0.1680
 1147ERGO    C215798   9.576  16.979   9.005  0.1263  0.0417  0.0688
 1148ERGO   ROH15799   4.298  17.162   6.559  0.1862  0.0686 -0.0797
 1148ERGO    R115800   4.284  16.987   6.781  0.0635  0.0945 -0.0665
 1148ERGO    R215801   4.155  16.743   6.770  0.0351  0.1129 -0.0978
 1148ERGO    R315802   4.394  16.648   6.858 -0.0172  0.0874  0.0203
 1148ERGO    R415803   4.194  16.462   6.967 -0.0821  0.0073 -0.2227
 1148ERGO    R515804   4.348  16.569   7.080 -0.1697 -0.0387 -0.0532
 1148ERGO    C115805   4.442  16.209   7.164 -0.1994 -0.0780 -0.1845
 1148ERGO    C215806   4.351  15.864   7.361  0.0676  0.3273 -0.0430
 1149ERGO   ROH15807  10.683   7.349  10.105 -0.1169  0.0311 -0.0490
 1149ERGO    R115808  10.796   7.362   9.846 -0.0972  0.0319 -0.0404
 1149ERGO    R215809  10.963   7.166   9.747  0.0426  0.1123  0.0335
 1149ERGO    R315810  10.784   7.164   9.542  0.0665 -0.0632  0.0137
 1149ERGO    R415811  11.048   7.146   9.412  0.1164  0.3993  0.0323
 1149ERGO    R515812  10.891   7.292   9.369 -0.1052  0.1845  0.0855
 1149ERGO    C115813  10.930   7.132   9.025  0.1818  0.4016  0.0130
 1149ERGO    C215814  11.056   6.952   8.617  0.1993 -0.2927 -0.0236
 1150ERGO   ROH15815   7.284   1.509   6.390  0.0790 -0.0843 -0.0001
 1150ERGO    R115816   7.228   1.584   6.657  0.0746  0.0723 -0.0441
 1150ERGO    R215817   6.971   1.602   6.756  0.0745  0.0713 -0.0416
 1150ERGO    R315818   7.067   1.433   6.946  0.1276  0.2153  0.0608
 1150ERGO    R415819   6.800   1.510   7.042 -0.1234 -0.2289 -0.2499
 1150ERGO    R515820   6.988   1.526   7.153 -0.2753  0.0751 -0.0228
 1150ERGO    C115821   6.791   1.299   7.387 -0.1887 -0.2686 -0.2749
 1150ERGO    C215822   6.719   1.401   7.647 -0.1118 -0.0670 -0.0908
 1151ERGO   ROH15823   6.691   3.613  10.041  0.1349  0.0755 -0.0418
 1151ERGO    R115824   6.598   3.629   9.774 -0.0583 -0.1931  0.0025
 1151ERGO    R215825   6.671   3.834   9.603 -0.5964 -0.0599 -0.1034
 1151ERGO    R315826   6.747   3.629   9.442 -0.2338  0.0492 -0.0756
 1151ERGO    R415827   6.693   3.849   9.258 -0.2891  0.0066 -0.0817
 1151ERGO    R515828   6.609   3.650   9.248 -0.0680 -0.0711 -0.1988
 1151ERGO    C115829   6.778   3.665   8.907  0.2302  0.1478 -0.0429
 1151ERGO    C215830   6.662   3.737   8.632  0.0970 -0.1004  0.0819
 1152ERGO   ROH15831   2.325  17.698  10.368 -0.0428 -0.0158  0.0172
 1152ERGO    R115832   2.200  17.716  10.115 -0.0029 -0.0031 -0.0017
 1152ERGO    R215833   2.212  17.945   9.960  0.0420 -0.0029  0.0003
 1152ERGO    R315834   2.306  17.773   9.772  0.0547 -0.0116  0.0148
 1152ERGO    R415835   2.199  17.998   9.618  0.0768 -0.0147 -0.0027
 1152ERGO    R515836   2.149  17.788   9.592  0.0732 -0.0132 -0.0008
 1152ERGO    C115837   2.281  17.868   9.243  0.1090 -0.0296  0.0090
 1152ERGO    C215838   2.455  17.709   8.965  0.0436 -0.1893  0.2789
 1153ERGO   ROH15839   3.091  15.736  10.233 -0.3016  0.0677  0.0320
 1153ERGO    R115840   2.974  15.727   9.975 -0.1210 -0.2455 -0.0436
 1153ERGO    R215841   2.971  15.946   9.806 -0.6222 -0.2323 -0.0235
 1153ERGO    R315842   3.087  15.772   9.632 -0.0189  0.0909  0.0286
 1153ERGO    R415843   2.974  15.982   9.462 -0.5467 -0.2046 -0.0207
 1153ERGO    R515844   2.939  15.768   9.444  0.0752 -0.3272 -0.0507
 1153ERGO    C115845   3.086  15.840   9.099  0.0636  0.1148  0.0298
 1153ERGO    C215846   3.115  15.718   8.815  0.1402 -0.0167 -0.0353
 1154ERGO   ROH15847  16.997   9.929  10.300  0.1769 -0.0470 -0.0030
 1154ERGO    R115848  16.955  10.040  10.043 -0.0048 -0.0724  0.0125
 1154ERGO    R215849  17.123   9.988   9.830  0.0060  0.1228 -0.0356
 1154ERGO    R315850  16.892   9.914   9.707  0.0531 -0.1227  0.0220
 1154ERGO    R415851  17.060  10.020   9.492 -0.2275  0.3303  0.0253
 1154ERGO    R515852  16.857  10.082   9.540 -0.2981 -0.0265  0.1899
 1154ERGO    C115853  16.807   9.969   9.180 -0.3192  0.2206  0.1149
 1154ERGO    C215854  16.901   9.935   8.807  0.1058  0.1169 -0.0739
 1155ERGO   ROH15855  14.792  12.942   6.900 -0.0932  0.1717 -0.1362
 1155ERGO    R115856  14.972  13.058   7.085 -0.1111  0.0865 -0.0654
 1155ERGO    R215857  14.903  13.273   7.245 -0.1327 -0.0028  0.0409
 1155ERGO    R315858  14.985  13.109   7.445 -0.1322 -0.0990 -0.0367
 1155ERGO    R415859  15.067  13.376   7.531  0.0539 -0.1577 -0.0079
 1155ERGO    R515860  15.194  13.200   7.516 -0.0467 -0.2278 -0.1099
 1155ERGO    C115861  15.240  13.282   7.886  0.1631 -0.3383 -0.1092
 1155ERGO    C215862  15.252  13.366   8.159  0.1592 -0.1769 -0.0480
 1156ERGO   ROH15863  12.288   1.887   6.585 -0.1202 -0.0741 -0.1803
 1156ERGO    R115864  12.339   1.935   6.859 -0.1395  0.0184 -0.1925
 1156ERGO    R215865  12.139   2.008   7.037 -0.1447  0.1232 -0.2393
 1156ERGO    R315866  12.231   1.793   7.176 -0.2001  0.1568 -0.1508
 1156ERGO    R415867  12.181   1.997   7.380 -0.3835  0.1678 -0.2072
 1156ERGO    R515868  12.366   1.887   7.350 -0.3404  0.2012 -0.0647
 1156ERGO    C115869  12.291   1.789   7.710 -0.5747  0.2253 -0.1055
 1156ERGO    C215870  12.322   1.627   8.004  0.0791  0.1857  0.0900
 1157ERGO   ROH15871   6.049   2.809   9.843 -0.0760  0.1661 -0.1552
 1157ERGO    R115872   6.034   2.705   9.580  0.0194  0.0709 -0.1241
 1157ERGO    R215873   6.008   2.867   9.358 -0.0087 -0.0145 -0.1841
 1157ERGO    R315874   6.229   2.733   9.273  0.0667  0.0528 -0.0958
 1157ERGO    R415875   6.141   2.886   9.039 -0.0031 -0.1262 -0.1886
 1157ERGO    R515876   6.178   2.671   9.047  0.1099 -0.1031 -0.0642
 1157ERGO    C115877   6.425   2.771   8.774  0.0711 -0.1281 -0.1083
 1157ERGO    C215878   6.617   2.746   8.437  0.1330 -0.2882 -0.2986
 1158ERGO   ROH15879   4.418   0.156  10.492  0.2780 -0.0871  0.0787
 1158ERGO    R115880   4.395   0.214  10.215  0.1842  0.0616  0.1175
 1158ERGO    R215881   4.606   0.312  10.065  0.1990 -0.0805  0.0506
 1158ERGO    R315882   4.550   0.098   9.907 -0.0985  0.0468 -0.0238
 1158ERGO    R415883   4.649   0.302   9.723  0.3922 -0.0824  0.0727
 1158ERGO    R515884   4.461   0.193   9.707  0.1929  0.2581 -0.0627
 1158ERGO    C115885   4.621   0.096   9.375  0.2254  0.0359  0.0157
 1158ERGO    C215886   4.683   0.147   9.137 -0.0762  0.0056 -0.1983
 1159ERGO   ROH15887  10.837  14.104   9.747  0.2155 -0.1545 -0.1970
 1159ERGO    R115888  10.709  14.091   9.495  0.1527 -0.0950 -0.1679
 1159ERGO    R215889  10.698  14.307   9.323  0.0923 -0.0507 -0.1043
 1159ERGO    R315890  10.807  14.131   9.147  0.0593  0.0076 -0.1844
 1159ERGO    R415891  10.705  14.349   8.980  0.2017  0.1671 -0.0773
 1159ERGO    R515892  10.659  14.137   8.958  0.1086  0.1962 -0.2221
 1159ERGO    C115893  10.810  14.209   8.615  0.2345  0.3485 -0.1368
 1159ERGO    C215894  10.778  14.287   8.264  0.1971  0.0987  0.0714
 1160ERGO   ROH15895  18.050   3.292  10.700  0.1040  0.0064 -0.0262
 1160ERGO    R115896  18.026   3.209  10.431 -0.1096  0.1514 -0.0537
 1160ERGO    R215897  17.890   3.356  10.242  0.1598  0.5078  0.0225
 1160ERGO    R315898  18.123   3.337  10.104  0.1090  0.0747 -0.0215
 1160ERGO    R415899  17.915   3.352   9.897  0.0847  0.4397  0.0166
 1160ERGO    R515900  18.070   3.199   9.915 -0.1822  0.1532 -0.0042
 1160ERGO    C115901  18.150   3.333   9.567 -0.0067 -0.0064 -0.0280
 1160ERGO    C215902  17.995   3.339   9.195  0.0491 -0.1861  0.0213
 1161ERGO   ROH15903   6.406   5.637   6.466  0.1490  0.1523 -0.1482
 1161ERGO    R115904   6.500   5.800   6.677  0.0566  0.1561 -0.1102
 1161ERGO    R215905   6.346   5.864   6.897  0.0093  0.0417 -0.1138
 1161ERGO    R315906   6.558   5.764   7.034  0.0461  0.1155 -0.1113
 1161ERGO    R415907   6.372   5.856   7.241  0.0107  0.0662 -0.1127
 1161ERGO    R515908   6.582   5.911   7.222 -0.0024  0.1357 -0.1168
 1161ERGO    C115909   6.587   5.758   7.571  0.0461  0.1497 -0.1096
 1161ERGO    C215910   6.510   5.903   7.877 -0.0560  0.1249  0.1037
 1162ERGO   ROH15911  13.470  12.270   6.527  0.1536  0.1134 -0.1677
 1162ERGO    R115912  13.497  12.030   6.674  0.0175  0.1702 -0.0499
 1162ERGO    R215913  13.696  11.992   6.862  0.0884  0.0958 -0.1421
 1162ERGO    R315914  13.486  11.933   7.025  0.1239  0.3735  0.0118
 1162ERGO    R415915  13.719  11.815   7.158  0.0683  0.0277 -0.1805
 1162ERGO    R515916  13.534  11.713   7.106 -0.1222  0.2920 -0.0525
 1162ERGO    C115917  13.536  11.657   7.483  0.0901  0.2489 -0.0583
 1162ERGO    C215918  13.669  11.608   7.859 -0.0934 -0.1791  0.1246
 1163ERGO   ROH15919   6.765  11.822   5.874 -0.0712 -0.1994  0.0611
 1163ERGO    R115920   6.801  11.810   6.155  0.0069 -0.1911  0.0519
 1163ERGO    R215921   6.979  11.636   6.275  0.1230 -0.1090  0.0012
 1163ERGO    R315922   7.075  11.863   6.389  0.0424 -0.0659 -0.0168
 1163ERGO    R415923   7.125  11.653   6.587  0.1055 -0.0331  0.0051
 1163ERGO    R515924   7.020  11.841   6.621  0.0405 -0.0642 -0.0163
 1163ERGO    C115925   7.301  11.877   6.876  0.0196  0.0516 -0.0096
 1163ERGO    C215926   7.469  11.860   7.234 -0.3488  0.3095 -0.0873
 1164ERGO   ROH15927  13.674   1.930  10.686 -0.1623  0.1281 -0.0098
 1164ERGO    R115928  13.726   1.781  10.451  0.1491  0.1585  0.0373
 1164ERGO    R215929  13.545   1.764  10.243  0.1452 -0.3455  0.0816
 1164ERGO    R315930  13.756   1.851  10.095 -0.0792  0.1000  0.0023
 1164ERGO    R415931  13.568   1.741   9.899  0.1261 -0.4760  0.0869
 1164ERGO    R515932  13.778   1.688   9.921  0.2821  0.0433  0.0842
 1164ERGO    C115933  13.779   1.810   9.560 -0.0958 -0.1337  0.0156
 1164ERGO    C215934  13.684   1.836   9.279  0.1149  0.0195 -0.1387
 1165ERGO   ROH15935   8.225   4.648   9.788  0.1264  0.3625  0.0194
 1165ERGO    R115936   8.343   4.771   9.561  0.1054  0.1745 -0.0994
 1165ERGO    R215937   8.382   4.637   9.323 -0.0283  0.0020 -0.0454
 1165ERGO    R315938   8.244   4.847   9.220  0.0143 -0.0027 -0.1084
 1165ERGO    R415939   8.390   4.735   8.992 -0.1830 -0.1952 -0.1079
 1165ERGO    R515940   8.392   4.943   9.058 -0.0508 -0.1675 -0.2501
 1165ERGO    C115941   8.265   4.989   8.702 -0.2331 -0.3145 -0.2033
 1165ERGO    C215942   8.413   5.105   8.423 -0.0364  0.1079 -0.1605
 1166ERGO   ROH15943   2.312  16.344  10.180 -0.2198  0.0505  0.1557
 1166ERGO    R115944   2.218  16.425   9.925 -0.1468 -0.1184  0.0738
 1166ERGO    R215945   2.386  16.523   9.729 -0.1029 -0.1614  0.0922
 1166ERGO    R315946   2.273  16.327   9.579  0.0293 -0.2826  0.1467
 1166ERGO    R415947   2.376  16.519   9.384 -0.2267 -0.1932  0.0946
 1166ERGO    R515948   2.173  16.443   9.396 -0.1520 -0.3895  0.1747
 1166ERGO    C115949   2.264  16.333   9.042 -0.1748 -0.3257  0.1471
 1166ERGO    C215950   2.410  16.307   8.682 -0.1575 -0.1697 -0.2090
 1167ERGO   ROH15951   4.198   0.968   6.380 -0.1326 -0.0134 -0.0037
 1167ERGO    R115952   4.164   0.869   6.643 -0.0051 -0.1644 -0.0425
 1167ERGO    R215953   4.374   0.771   6.794  0.1265  0.0581 -0.0810
 1167ERGO    R315954   4.287   0.954   6.975 -0.1234 -0.1287 -0.0061
 1167ERGO    R415955   4.482   0.790   7.121  0.3881  0.2861 -0.1762
 1167ERGO    R515956   4.276   0.832   7.181  0.3317 -0.1688  0.0077
 1167ERGO    C115957   4.463   0.972   7.483  0.3058  0.2435 -0.1613
 1167ERGO    C215958   4.584   1.091   7.727 -0.1619  0.0963  0.2162
 1168ERGO   ROH15959   9.796  12.688   9.347  0.1739 -0.0370 -0.2344
 1168ERGO    R115960   9.697  12.595   9.099  0.1542  0.0298 -0.2501
 1168ERGO    R215961   9.456  12.679   8.994  0.1391  0.0344 -0.1895
 1168ERGO    R315962   9.608  12.741   8.778  0.0973  0.1156 -0.1989
 1168ERGO    R415963   9.366  12.620   8.665 -0.0984  0.4676 -0.2108
 1168ERGO    R515964   9.572  12.560   8.625 -0.1651  0.3008 -0.3757
 1168ERGO    C115965   9.457  12.644   8.271 -0.2759  0.7961 -0.2318
 1168ERGO    C215966   9.316  12.575   7.971  0.0648  0.0745  0.1752
 1169ERGO   ROH15967   6.949  13.231   9.854  0.0956  0.1652  0.2115
 1169ERGO    R115968   6.853  13.295   9.596  0.0003 -0.0810  0.1843
 1169ERGO    R215969   7.009  13.418   9.405 -0.1768  0.0621  0.1364
 1169ERGO    R315970   6.935  13.205   9.253  0.1238 -0.1092  0.2192
 1169ERGO    R415971   6.959  13.428   9.063 -0.1744 -0.1384  0.1280
 1169ERGO    R515972   6.786  13.298   9.090 -0.0031 -0.3742  0.1724
 1169ERGO    C115973   6.860  13.235   8.721  0.1093 -0.4161  0.2009
 1169ERGO    C215974   6.803  13.208   8.407 -0.1159  0.1487 -0.0387
 1170ERGO   ROH15975   5.604  16.648   6.585 -0.0080 -0.0046 -0.0167
 1170ERGO    R115976   5.749  16.845   6.728  0.1207 -0.0093 -0.1388
 1170ERGO    R215977   5.721  16.882   7.000  0.1102  0.2076 -0.1689
 1170ERGO    R315978   5.991  16.849   7.000  0.0879  0.0049 -0.1094
 1170ERGO    R415979   5.935  17.005   7.242  0.1451  0.0157 -0.0998
 1170ERGO    R515980   6.076  17.057   7.084  0.2231 -0.0671 -0.0608
 1170ERGO    C115981   6.313  17.047   7.383  0.1445 -0.2863 -0.0037
 1170ERGO    C215982   6.383  17.137   7.722 -0.0427 -0.1856 -0.0550
 1171ERGO   ROH15983   2.674  10.570   6.327 -0.0554  0.0729  0.0188
 1171ERGO    R115984   2.754  10.514   6.593  0.1929  0.1366 -0.0392
 1171ERGO    R215985   2.865  10.705   6.758 -0.1362  0.3205 -0.0213
 1171ERGO    R315986   2.664  10.630   6.926  0.0916 -0.1808  0.0481
 1171ERGO    R415987   2.874  10.735   7.102 -0.1496  0.4890 -0.0348
 1171ERGO    R515988   2.777  10.540   7.117  0.3932  0.2072  0.0660
 1171ERGO    C115989   2.690  10.683   7.460  0.0564  0.1166  0.0224
 1171ERGO    C215990   2.480  10.796   7.774 -0.1937  0.1126  0.1881
 1172ERGO   ROH15991   7.606   9.496   6.277 -0.3332 -0.2335  0.1750
 1172ERGO    R115992   7.627   9.643   6.518 -0.4607 -0.0768  0.0912
 1172ERGO    R215993   7.415   9.677   6.691 -0.4001 -0.4706  0.2404
 1172ERGO    R315994   7.589   9.576   6.873 -0.0245 -0.0072  0.1590
 1172ERGO    R415995   7.388   9.716   7.033 -0.4190 -0.6118  0.2563
 1172ERGO    R515996   7.604   9.745   7.042 -0.4717  0.0250  0.1867
 1172ERGO    C115997   7.536   9.645   7.404 -0.0775 -0.2589  0.1890
 1172ERGO    C215998   7.500   9.775   7.716  0.2690 -0.0026  0.1113
 1173ERGO   ROH15999  10.412  11.593   9.612 -0.3055  0.0031 -0.0446
 1173ERGO    R116000  10.401  11.779   9.398 -0.2408 -0.0799 -0.1226
 1173ERGO    R216001  10.562  11.758   9.174 -0.1188 -0.1272 -0.0366
 1173ERGO    R316002  10.324  11.768   9.043 -0.0559 -0.2363 -0.1585
 1173ERGO    R416003  10.526  11.789   8.832  0.0417  0.2001 -0.0272
 1173ERGO    R516004  10.360  11.925   8.866 -0.1194 -0.0093  0.0284
 1173ERGO    C116005  10.282  11.816   8.509  0.1944  0.2883 -0.1362
 1173ERGO    C216006  10.286  11.744   8.217 -0.1275  0.1326  0.1241
 1174ERGO   ROH16007   8.407  16.276   9.942  0.0045  0.1843  0.0504
 1174ERGO    R116008   8.535  16.294   9.691  0.1075  0.0783  0.0930
 1174ERGO    R216009   8.410  16.226   9.455  0.1974 -0.0101  0.0643
 1174ERGO    R316010   8.484  16.477   9.380  0.2382 -0.0413  0.0013
 1174ERGO    R416011   8.519  16.314   9.139  0.2409 -0.1038  0.0535
 1174ERGO    R516012   8.668  16.443   9.232  0.2453 -0.1012  0.0298
 1174ERGO    C116013   8.651  16.602   8.885  0.3046 -0.1879 -0.0120
 1174ERGO    C216014   8.679  16.701   8.526  0.0403  0.1971  0.1060
 1175ERGO   ROH16015   9.174  16.926   6.739  0.0909 -0.2879 -0.1372
 1175ERGO    R116016   9.187  16.868   7.016  0.1040 -0.2543 -0.1303
 1175ERGO    R216017   9.050  17.015   7.206  0.2503 -0.1192 -0.1226
 1175ERGO    R316018   8.954  16.771   7.277  0.0820 -0.0378 -0.0697
 1175ERGO    R416019   8.958  16.926   7.526  0.3379 -0.0452 -0.0764
 1175ERGO    R516020   9.049  16.731   7.493  0.1558 -0.1191 -0.1208
 1175ERGO    C116021   8.813  16.645   7.781  0.2310  0.0743  0.0002
 1175ERGO    C216022   8.532  16.729   8.029 -0.0855  0.2794 -0.0564
 1176ERGO   ROH16023   2.849   0.743   6.621  0.1358  0.2640  0.0768
 1176ERGO    R116024   2.810   0.533   6.806  0.0846  0.1111 -0.1043
 1176ERGO    R216025   3.006   0.346   6.862  0.1235  0.1559 -0.0929
 1176ERGO    R316026   2.963   0.425   7.119 -0.1058 -0.0492 -0.0648
 1176ERGO    R416027   3.114   0.175   7.143  0.1291  0.0841 -0.1382
 1176ERGO    R516028   2.923   0.221   7.238  0.0255 -0.1661 -0.2174
 1176ERGO    C116029   3.136   0.149   7.547 -0.0830 -0.1502 -0.1380
 1176ERGO    C216030   3.132   0.119   7.913  0.2081 -0.3313  0.2053
 1177ERGO   ROH16031   1.757   9.265   6.604  0.2345  0.1574 -0.1275
 1177ERGO    R116032   1.904   9.371   6.822  0.2567 -0.0682 -0.0293
 1177ERGO    R216033   1.790   9.538   7.010  0.3975  0.1572 -0.1401
 1177ERGO    R316034   1.887   9.354   7.185 -0.0540  0.0031 -0.0369
 1177ERGO    R416035   1.882   9.606   7.336  0.3686  0.0679 -0.1133
 1177ERGO    R516036   2.054   9.474   7.310  0.1269 -0.2877  0.0110
 1177ERGO    C116037   2.027   9.472   7.691 -0.0721 -0.1289 -0.0007
 1177ERGO    C216038   1.780   9.616   7.983 -0.0002 -0.0471  0.0294
 1178ERGO   ROH16039   7.969   6.581   9.816  0.0266  0.2610  0.0985
 1178ERGO    R116040   8.084   6.737   9.610  0.0876  0.0237 -0.0523
 1178ERGO    R216041   8.158   6.631   9.366 -0.2601 -0.1758 -0.0774
 1178ERGO    R316042   7.999   6.828   9.268 -0.0607  0.0197 -0.0172
 1178ERGO    R416043   8.184   6.767   9.049 -0.3384 -0.3554 -0.1624
 1178ERGO    R516044   8.145   6.964   9.136  0.0280 -0.2534 -0.2095
 1178ERGO    C116045   8.049   7.032   8.773 -0.1969 -0.2764 -0.1555
 1178ERGO    C216046   8.177   7.055   8.540  0.0011  0.0565  0.0571
 1179ERGO   ROH16047   5.926  12.233   6.081  0.3100  0.0644  0.1486
 1179ERGO    R116048   5.730  12.378   6.224  0.2458  0.0547  0.0682
 1179ERGO    R216049   5.728  12.394   6.500  0.2058  0.1567  0.0554
 1179ERGO    R316050   5.723  12.661   6.452  0.1201  0.1408 -0.0376
 1179ERGO    R416051   5.672  12.635   6.740  0.2621  0.2196  0.0074
 1179ERGO    R516052   5.550  12.744   6.596  0.1627  0.1435  0.0221
 1179ERGO    C116053   5.635  13.027   6.836  0.2144  0.2412 -0.1078
 1179ERGO    C216054   5.653  13.300   6.981  0.2459  0.1843 -0.2530
 1180ERGO   ROH16055   7.344   3.913   6.459 -0.3668  0.1863 -0.2384
 1180ERGO    R116056   7.419   4.144   6.603 -0.2530  0.1010 -0.1601
 1180ERGO    R216057   7.368   4.400   6.511 -0.1899  0.1510 -0.0379
 1180ERGO    R316058   7.249   4.429   6.754 -0.1161  0.1001  0.0055
 1180ERGO    R416059   7.389   4.683   6.708 -0.4467  0.2759 -0.1845
 1180ERGO    R516060   7.408   4.553   6.883 -0.1981  0.3647 -0.1275
 1180ERGO    C116061   7.290   4.875   7.051 -0.5271  0.3009 -0.2291
 1180ERGO    C216062   7.109   5.140   7.200 -0.0614  0.0732  0.0494
 1181ERGO   ROH16063   9.618   6.230   9.728  0.0009  0.0768  0.0699
 1181ERGO    R116064   9.552   6.207   9.454  0.0914 -0.0489  0.0589
 1181ERGO    R216065   9.609   6.405   9.270 -0.0003 -0.0631  0.0224
 1181ERGO    R316066   9.732   6.202   9.138  0.1790 -0.0125  0.1063
 1181ERGO    R416067   9.731   6.425   8.948  0.1294 -0.0302  0.0720
 1181ERGO    R516068   9.656   6.223   8.912  0.2612 -0.0857  0.0663
 1181ERGO    C116069   9.918   6.246   8.636  0.3733  0.0364  0.1796
 1181ERGO    C216070   9.921   6.302   8.210  0.0411 -0.1485 -0.1491
 1182ERGO   ROH16071   1.112  10.610  10.407 -0.0515 -0.0505  0.0174
 1182ERGO    R116072   1.156  10.507  10.147 -0.0759 -0.0855  0.0267
 1182ERGO    R216073   0.951  10.419   9.985 -0.1068  0.0274  0.0012
 1182ERGO    R316074   1.058  10.595   9.807  0.0197 -0.0394  0.0109
 1182ERGO    R416075   0.905  10.407   9.642 -0.0769  0.0542 -0.0035
 1182ERGO    R516076   1.115  10.460   9.617 -0.0420 -0.0744  0.0183
 1182ERGO    C116077   0.979  10.566   9.277  0.0593  0.0071  0.0028
 1182ERGO    C216078   0.965  10.616   8.898  0.0481  0.1121  0.0652
 1183ERGO   ROH16079   3.587   3.286  10.369  0.3193 -0.2180 -0.0486
 1183ERGO    R116080   3.454   3.286  10.119  0.2658  0.0894 -0.0235
 1183ERGO    R216081   3.552   3.423   9.899  0.4891 -0.0456 -0.0108
 1183ERGO    R316082   3.531   3.180   9.779 -0.0023  0.0104 -0.0614
 1183ERGO    R416083   3.515   3.374   9.559  0.3778  0.0936 -0.0205
 1183ERGO    R516084   3.372   3.214   9.603  0.0548  0.3642 -0.0505
 1183ERGO    C116085   3.474   3.117   9.248 -0.1482  0.2273 -0.0737
 1183ERGO    C216086   3.459   3.082   8.906  0.2014  0.0706 -0.1515
 1184ERGO   ROH16087  16.675  16.315  10.419 -0.0596  0.1292  0.0198
 1184ERGO    R116088  16.730  16.191  10.171  0.1914  0.1304  0.0712
 1184ERGO    R216089  16.531  16.084  10.011  0.3895 -0.2589  0.0686
 1184ERGO    R316090  16.641  16.246   9.822  0.1559 -0.1353  0.0365
 1184ERGO    R416091  16.514  16.030   9.670  0.1326 -0.1345  0.0601
 1184ERGO    R516092  16.722  16.096   9.654  0.0879 -0.0315 -0.0884
 1184ERGO    C116093  16.608  16.151   9.294 -0.2363  0.0537  0.0251
 1184ERGO    C216094  16.624  16.163   8.892  0.0587 -0.2503  0.0750
 1185ERGO   ROH16095   2.786   1.587  10.371  0.1937 -0.1573 -0.1080
 1185ERGO    R116096   2.710   1.481  10.120  0.3477 -0.1738 -0.1459
 1185ERGO    R216097   2.628   1.641   9.910 -0.0409 -0.2208 -0.0208
 1185ERGO    R316098   2.824   1.509   9.775  0.2006  0.2611 -0.1703
 1185ERGO    R416099   2.632   1.590   9.568 -0.4359 -0.5518  0.0147
 1185ERGO    R516100   2.707   1.388   9.605  0.2855 -0.3087  0.1339
 1185ERGO    C116101   2.818   1.436   9.243 -0.4392 -0.2922 -0.1049
 1185ERGO    C216102   2.823   1.302   8.923  0.0027 -0.4359 -0.0737
 1186ERGO   ROH16103   6.742   9.647   9.970 -0.0134  0.1066  0.1380
 1186ERGO    R116104   6.620   9.576   9.725 -0.1243  0.1141  0.1906
 1186ERGO    R216105   6.384   9.691   9.637 -0.0226  0.3112  0.1744
 1186ERGO    R316106   6.532   9.743   9.414 -0.0027  0.0579  0.1246
 1186ERGO    R416107   6.280   9.631   9.313 -0.0939  0.1604  0.2242
 1186ERGO    R516108   6.481   9.562   9.266 -0.1427 -0.0124  0.2530
 1186ERGO    C116109   6.357   9.646   8.915 -0.1168 -0.1650  0.2065
 1186ERGO    C216110   6.220   9.675   8.631  0.1225  0.0352 -0.0133
 1187ERGO   ROH16111   1.170  17.979  10.031  0.0120 -0.0747 -0.0616
 1187ERGO    R116112   1.087  18.029   9.765  0.0957  0.0794 -0.0600
 1187ERGO    R216113   1.242  18.172   9.585  0.3228 -0.1340 -0.0405
 1187ERGO    R316114   1.209  17.950   9.432 -0.0097 -0.0732 -0.0634
 1187ERGO    R416115   1.295  18.157   9.244  0.0137 -0.1077 -0.0927
 1187ERGO    R516116   1.118  18.033   9.226 -0.1165  0.0537  0.0329
 1187ERGO    C116117   1.295  17.941   8.901 -0.4784 -0.0352 -0.1444
 1187ERGO    C216118   1.221  17.999   8.677 -0.0812  0.0791  0.1077
 1188ERGO   ROH16119  12.549   2.454  10.509  0.0446  0.0165 -0.0134
 1188ERGO    R116120  12.505   2.357  10.246  0.0408  0.1052 -0.0471
 1188ERGO    R216121  12.369   2.504  10.054  0.2932  0.2973 -0.0899
 1188ERGO    R316122  12.595   2.460   9.909  0.3076  0.0508  0.0064
 1188ERGO    R416123  12.380   2.465   9.711  0.4084  0.3940 -0.0967
 1188ERGO    R516124  12.527   2.307   9.738  0.1913  0.1935 -0.0740
 1188ERGO    C116125  12.597   2.401   9.375  0.4889  0.2188 -0.0101
 1188ERGO    C216126  12.604   2.530   9.141  0.0646 -0.0418  0.1571
 1189ERGO   ROH16127  11.092   4.173  10.284 -0.1508  0.0006 -0.0608
 1189ERGO    R116128  11.276   4.186  10.069 -0.0874  0.0443 -0.0040
 1189ERGO    R216129  11.345   3.964   9.919 -0.1109  0.0927 -0.0823
 1189ERGO    R316130  11.268   4.121   9.711 -0.0053  0.2076 -0.0369
 1189ERGO    R416131  11.466   3.937   9.597 -0.2190  0.0171 -0.1179
 1189ERGO    R516132  11.469   4.155   9.585  0.0018  0.0209 -0.0824
 1189ERGO    C116133  11.464   4.070   9.213 -0.1829  0.0810 -0.0958
 1189ERGO    C216134  11.439   4.032   8.896  0.3881  0.0571  0.1013
 1190ERGO   ROH16135   8.504   7.762   9.712  0.2779 -0.0983 -0.0854
 1190ERGO    R116136   8.379   7.805   9.462  0.1659 -0.2414 -0.0562
 1190ERGO    R216137   8.349   8.056   9.352 -0.2949 -0.2506  0.0212
 1190ERGO    R316138   8.475   7.943   9.139 -0.1154  0.0304 -0.0262
 1190ERGO    R416139   8.272   8.119   9.021 -0.3646 -0.2114  0.0450
 1190ERGO    R516140   8.300   7.907   8.979 -0.0520 -0.1521 -0.0520
 1190ERGO    C116141   8.346   8.050   8.628 -0.2367  0.0751  0.0144
 1190ERGO    C216142   8.369   8.222   8.362 -0.0943  0.1968  0.0903
 1191ERGO   ROH16143   1.176   1.803   8.311 -0.2084  0.0981 -0.0268
 1191ERGO    R116144   1.018   1.623   8.461  0.1385  0.0431  0.2880
 1191ERGO    R216145   0.837   1.449   8.343 -0.3727  0.3037  0.6513
 1191ERGO    R316146   0.977   1.262   8.482 -0.0361  0.0431  0.0046
 1191ERGO    R416147   0.721   1.133   8.419 -0.3724  0.3154  0.7009
 1191ERGO    R516148   0.812   1.153   8.616  0.3079  0.0383  0.4477
 1191ERGO    C116149   0.784   0.773   8.594 -0.0562  0.0775  0.1225
 1191ERGO    C216150   0.681   0.440   8.561  0.0990 -0.1604 -0.2330
 1192ERGO   ROH16151   3.159   7.449   6.278 -0.1655  0.0973 -0.1656
 1192ERGO    R116152   3.146   7.688   6.429  0.0172  0.0013  0.0070
 1192ERGO    R216153   2.919   7.766   6.565  0.0111  0.1707 -0.1017
 1192ERGO    R316154   3.089   7.779   6.777 -0.1231 -0.1951  0.0378
 1192ERGO    R416155   2.866   7.956   6.849  0.2300  0.3814 -0.1986
 1192ERGO    R516156   3.078   8.008   6.847  0.3751 -0.1351 -0.0371
 1192ERGO    C116157   2.995   8.080   7.213  0.2315  0.1607 -0.1239
 1192ERGO    C216158   3.121   8.212   7.404 -0.0087 -0.0259 -0.2031
 1193ERGO   ROH16159  15.959  15.350  10.506  0.1126  0.0683 -0.0053
 1193ERGO    R116160  15.910  15.215  10.262 -0.1704  0.0211  0.0751
 1193ERGO    R216161  15.726  15.305  10.076  0.0418  0.3257  0.0129
 1193ERGO    R316162  15.939  15.292   9.907  0.0360 -0.2585  0.0263
 1193ERGO    R416163  15.705  15.299   9.731  0.0382  0.6320  0.0032
 1193ERGO    R516164  15.865  15.151   9.729 -0.4271  0.0884 -0.0794
 1193ERGO    C116165  15.892  15.283   9.372  0.0306  0.2619  0.0102
 1193ERGO    C216166  16.015  15.408   9.041 -0.1124 -0.2311 -0.1387
 1194ERGO   ROH16167  17.273   1.947  10.819 -0.2430 -0.2917  0.0581
 1194ERGO    R116168  17.155   1.922  10.563 -0.1538 -0.3486  0.0222
 1194ERGO    R216169  17.006   2.123  10.447 -0.2581 -0.4379 -0.0010
 1194ERGO    R316170  17.182   2.091  10.242 -0.1768 -0.3012  0.0453
 1194ERGO    R416171  16.929   2.163  10.112 -0.1057 -0.1377 -0.0044
 1194ERGO    R516172  17.052   1.989  10.068 -0.1247 -0.1275 -0.0990
 1194ERGO    C116173  17.048   2.155   9.725  0.0592  0.1654  0.0370
 1194ERGO    C216174  17.044   2.186   9.455  0.1096  0.0329 -0.0271
 1195ERGO   ROH16175   7.502   8.334   6.457  0.0554  0.0707  0.1135
 1195ERGO    R116176   7.629   8.534   6.612  0.1727 -0.0312  0.1522
 1195ERGO    R216177   7.880   8.500   6.722  0.2871 -0.0842 -0.1077
 1195ERGO    R316178   7.935   8.731   6.590  0.1259  0.0258  0.0157
 1195ERGO    R416179   8.180   8.671   6.738  0.2291  0.0213 -0.1619
 1195ERGO    R516180   8.068   8.858   6.742  0.1613 -0.0255  0.0244
 1195ERGO    C116181   8.406   8.988   6.622  0.0440  0.1860 -0.0777
 1195ERGO    C216182   8.731   9.018   6.445 -0.2890 -0.1692  0.1005
 1196ERGO   ROH16183  13.594   2.400   6.843  0.0378  0.2091 -0.0753
 1196ERGO    R116184  13.703   2.411   7.104  0.0979  0.1139 -0.0959
 1196ERGO    R216185  13.942   2.537   7.160  0.1024  0.1068 -0.1033
 1196ERGO    R316186  13.793   2.672   7.342  0.1368  0.0266 -0.0143
 1196ERGO    R416187  14.046   2.615   7.480  0.2249  0.1022 -0.1409
 1196ERGO    R516188  13.845   2.567   7.551  0.2751  0.0173 -0.0520
 1196ERGO    C116189  13.965   2.787   7.838  0.3285  0.0242 -0.0791
 1196ERGO    C216190  14.047   3.110   8.000 -0.2136  0.1308 -0.0831
 1197ERGO   ROH16191  13.878  10.852   8.453 -0.2442 -0.2705  0.1222
 1197ERGO    R116192  13.912  10.621   8.292 -0.0287 -0.0740 -0.1221
 1197ERGO    R216193  13.976  10.635   8.024  0.3175  0.2598 -0.0242
 1197ERGO    R316194  14.180  10.471   8.098  0.2307  0.1742  0.0329
 1197ERGO    R416195  14.104  10.379   7.830  0.1696  0.1247  0.0532
 1197ERGO    R516196  14.119  10.257   8.010  0.1046  0.1740  0.1026
 1197ERGO    C116197  14.370  10.076   7.787  0.0020 -0.0343  0.1519
 1197ERGO    C216198  14.484   9.818   7.657 -0.0412 -0.1192  0.0114
 1198ERGO   ROH16199  12.018   8.853   6.589  0.2385  0.0372  0.0297
 1198ERGO    R116200  11.884   8.777   6.826  0.0711  0.0433 -0.0610
 1198ERGO    R216201  11.899   8.522   6.930 -0.0164  0.0421 -0.0544
 1198ERGO    R316202  11.979   8.652   7.154 -0.1607  0.0328  0.0044
 1198ERGO    R416203  11.971   8.369   7.232 -0.1724  0.0225 -0.0260
 1198ERGO    R516204  11.872   8.534   7.333 -0.2515  0.0032 -0.0675
 1198ERGO    C116205  12.088   8.402   7.618 -0.3987  0.0023  0.0457
 1198ERGO    C216206  12.111   8.312   7.992  0.0641 -0.1633  0.1048
 1199ERGO   ROH16207  11.306  10.656   7.950  0.2662  0.2356 -0.0110
 1199ERGO    R116208  11.372  10.391   8.024  0.1279  0.2186  0.0587
 1199ERGO    R216209  11.513  10.221   7.857 -0.1932  0.0104 -0.0138
 1199ERGO    R316210  11.677  10.198   8.072  0.0305 -0.0025 -0.1776
 1199ERGO    R416211  11.795  10.021   7.871 -0.2885 -0.1430 -0.2472
 1199ERGO    R516212  11.741   9.968   8.075 -0.0988 -0.0392 -0.1643
 1199ERGO    C116213  12.113   9.884   8.081 -0.1339 -0.2442 -0.5368
 1199ERGO    C216214  12.439   9.758   8.207 -0.0932 -0.1211 -0.0845
 1200ERGO   ROH16215  15.969   4.393   6.961  0.0503  0.1778 -0.0937
 1200ERGO    R116216  15.881   4.416   7.229  0.0397  0.1000 -0.0899
 1200ERGO    R216217  15.942   4.635   7.387  0.1051  0.0166  0.0039
 1200ERGO    R316218  15.672   4.645   7.420  0.1061  0.0966 -0.0128
 1200ERGO    R416219  15.779   4.827   7.623  0.1478  0.0622 -0.0042
 1200ERGO    R516220  15.642   4.661   7.657  0.0962  0.1029 -0.0149
 1200ERGO    C116221  15.431   4.948   7.792  0.1736  0.1640 -0.0246
 1200ERGO    C216222  15.266   5.229   7.899 -0.2226 -0.2404 -0.1238
 1201ERGO   ROH16223  10.669   3.001  10.440  0.1595  0.1660  0.0511
 1201ERGO    R116224  10.849   2.993  10.222 -0.0054  0.1481 -0.0880
 1201ERGO    R216225  10.886   2.766  10.068  0.0899  0.0411  0.0841
 1201ERGO    R316226  10.828   2.935   9.863 -0.2421 -0.1944 -0.0232
 1201ERGO    R416227  10.947   2.701   9.734  0.0488 -0.1195  0.1079
 1201ERGO    R516228  11.010   2.908   9.710 -0.2633 -0.0424 -0.0744
 1201ERGO    C116229  10.928   2.821   9.348 -0.2867 -0.4341  0.0211
 1201ERGO    C216230  10.890   2.690   9.097 -0.0339 -0.2091  0.1593
 1202ERGO   ROH16231   4.302  10.914  10.264  0.1874  0.0391  0.0284
 1202ERGO    R116232   4.306  11.001   9.995  0.2187  0.0210  0.0237
 1202ERGO    R216233   4.490  10.908   9.810  0.1691 -0.0749  0.0242
 1202ERGO    R316234   4.267  10.849   9.667  0.1366  0.0198  0.0345
 1202ERGO    R416235   4.452  10.963   9.471  0.2634 -0.2856 -0.0235
 1202ERGO    R516236   4.248  11.028   9.509  0.3156 -0.0766 -0.0986
 1202ERGO    C116237   4.220  10.940   9.139  0.2879 -0.3197 -0.0416
 1202ERGO    C216238   4.306  10.850   8.854 -0.2108 -0.0172  0.0332
 1203ERGO   ROH16239  12.613   5.337  10.587  0.0522 -0.1804  0.0351
 1203ERGO    R116240  12.528   5.193  10.358  0.0805 -0.1324 -0.0055
 1203ERGO    R216241  12.357   5.300  10.170 -0.1239 -0.1907  0.1439
 1203ERGO    R316242  12.555   5.230   9.997 -0.1383  0.1065  0.0000
 1203ERGO    R416243  12.322   5.282   9.826 -0.2152  0.1778  0.1292
 1203ERGO    R516244  12.444   5.101   9.829 -0.1191  0.2371 -0.1130
 1203ERGO    C116245  12.488   5.206   9.465 -0.2819  0.6713 -0.0144
 1203ERGO    C216246  12.481   5.223   9.223 -0.0584  0.0981 -0.0312
 1204ERGO   ROH16247  17.092   2.970   7.152 -0.0387 -0.0631  0.0701
 1204ERGO    R116248  17.209   2.956   7.410 -0.0433 -0.3712  0.0577
 1204ERGO    R216249  17.166   3.149   7.603  0.4484 -0.2732  0.0708
 1204ERGO    R316250  17.090   2.935   7.753 -0.0665 -0.1051  0.0712
 1204ERGO    R416251  17.124   3.152   7.946  0.4598 -0.1505  0.0722
 1204ERGO    R516252  17.216   2.955   7.955  0.0005 -0.3934  0.0721
 1204ERGO    C116253  17.027   2.953   8.286 -0.0169  0.0787  0.0735
 1204ERGO    C216254  16.908   2.959   8.621  0.2029 -0.0173  0.0127
 1205ERGO   ROH16255  17.772   8.934  10.337  0.2140 -0.1901  0.0491
 1205ERGO    R116256  17.815   9.023  10.072  0.2171 -0.1066  0.0780
 1205ERGO    R216257  17.955   8.874   9.886  0.1278 -0.0951  0.0045
 1205ERGO    R316258  17.730   8.907   9.737  0.1232  0.0593  0.0429
 1205ERGO    R416259  17.949   8.918   9.543  0.1052 -0.0204  0.0137
 1205ERGO    R516260  17.792   9.067   9.569  0.1885  0.0621  0.0673
 1205ERGO    C116261  17.734   8.974   9.204  0.0880  0.1682  0.0549
 1205ERGO    C216262  17.764   8.883   8.889 -0.0520 -0.3272 -0.1934
 1206ERGO   ROH16263  15.560   1.964   6.514  0.0188  0.2077  0.0705
 1206ERGO    R116264  15.662   1.888   6.767  0.0112  0.2028  0.0718
 1206ERGO    R216265  15.931   1.846   6.811  0.0031  0.1564  0.0669
 1206ERGO    R316266  15.894   2.027   7.011  0.0428  0.1731  0.0596
 1206ERGO    R416267  16.098   1.843   7.114 -0.0388  0.0950  0.0898
 1206ERGO    R516268  15.911   1.898   7.212 -0.0337  0.1667  0.0636
 1206ERGO    C116269  16.160   2.011   7.478 -0.0260  0.0749  0.0962
 1206ERGO    C216270  16.531   1.947   7.492  0.2277  0.1439  0.1618
 1207ERGO   ROH16271  16.271   2.621  10.316 -0.1261 -0.0506  0.0262
 1207ERGO    R116272  16.156   2.656  10.060 -0.0855  0.0079  0.0156
 1207ERGO    R216273  16.258   2.832   9.873 -0.0001 -0.0170  0.0374
 1207ERGO    R316274  16.261   2.612   9.714 -0.0630 -0.0088  0.0249
 1207ERGO    R416275  16.318   2.837   9.533  0.2046 -0.0380  0.0723
 1207ERGO    R516276  16.162   2.686   9.509  0.1113  0.0757 -0.0299
 1207ERGO    C116277  16.357   2.633   9.185  0.2645 -0.0426  0.0809
 1207ERGO    C216278  16.434   2.649   8.757 -0.1983 -0.1054 -0.0863
 1208ERGO   ROH16279   5.760   7.519   9.988  0.2365 -0.0412 -0.0432
 1208ERGO    R116280   5.786   7.422   9.724  0.2552  0.1045 -0.0971
 1208ERGO    R216281   5.572   7.323   9.579  0.3321 -0.2133 -0.0149
 1208ERGO    R316282   5.652   7.507   9.396 -0.0851  0.0077  0.0148
 1208ERGO    R416283   5.526   7.295   9.238  0.3791 -0.2426 -0.0178
 1208ERGO    R516284   5.725   7.377   9.209  0.1983  0.2102 -0.0144
 1208ERGO    C116285   5.574   7.452   8.867  0.0147 -0.0521  0.0083
 1208ERGO    C216286   5.632   7.372   8.505 -0.4541 -0.3964 -0.0034
 1209ERGO   ROH16287   1.593   9.699  10.432 -0.1635 -0.0932 -0.0148
 1209ERGO    R116288   1.546   9.564  10.188 -0.1469 -0.0947 -0.0183
 1209ERGO    R216289   1.325   9.614  10.030 -0.1338 -0.0865 -0.0430
 1209ERGO    R316290   1.511   9.655   9.837 -0.1104 -0.0946 -0.0206
 1209ERGO    R416291   1.264   9.594   9.691 -0.0735 -0.1421 -0.0497
 1209ERGO    R516292   1.457   9.495   9.667 -0.0628 -0.1219 -0.0056
 1209ERGO    C116293   1.404   9.622   9.311 -0.0165 -0.1823 -0.0329
 1209ERGO    C216294   1.309   9.661   9.001  0.2727 -0.4936  0.1761
 1210ERGO   ROH16295  11.337  11.595   9.604 -0.0044  0.2373 -0.0237
 1210ERGO    R116296  11.522  11.548   9.395 -0.0999 -0.0853 -0.0381
 1210ERGO    R216297  11.461  11.395   9.173 -0.4289  0.1224 -0.0851
 1210ERGO    R316298  11.542  11.616   9.038  0.0513  0.0015 -0.0164
 1210ERGO    R416299  11.545  11.401   8.838 -0.4293  0.0350 -0.0888
 1210ERGO    R516300  11.710  11.536   8.888 -0.1207 -0.3294 -0.0493
 1210ERGO    C116301  11.670  11.613   8.516  0.0213 -0.1294 -0.0264
 1210ERGO    C216302  11.649  11.621   8.194 -0.0730 -0.2848 -0.0125
 1211ERGO   ROH16303   6.517   9.253   6.508 -0.0066 -0.1201 -0.0891
 1211ERGO    R116304   6.543   9.074   6.726 -0.1741  0.0040  0.0369
 1211ERGO    R216305   6.787   8.970   6.804 -0.2743 -0.2332  0.0596
 1211ERGO    R316306   6.716   9.072   7.046 -0.1063  0.0360 -0.0008
 1211ERGO    R416307   6.906   8.856   7.108 -0.2637 -0.0588  0.1212
 1211ERGO    R516308   6.705   8.880   7.190 -0.2120  0.1744  0.1735
 1211ERGO    C116309   6.909   8.885   7.512 -0.0998  0.2956  0.1002
 1211ERGO    C216310   7.001   8.767   7.762 -0.0312 -0.0446 -0.3270
 1212ERGO   ROH16311   0.420  15.409   6.609 -0.0810  0.2066 -0.1729
 1212ERGO    R116312   0.524  15.299   6.848 -0.2286  0.0629 -0.1735
 1212ERGO    R216313   0.712  15.430   7.003 -0.0845 -0.1688 -0.1487
 1212ERGO    R316314   0.530  15.389   7.201 -0.1506  0.0289 -0.1656
 1212ERGO    R416315   0.773  15.473   7.341 -0.0745 -0.2270 -0.1424
 1212ERGO    R516316   0.656  15.293   7.380 -0.2707 -0.1037 -0.1502
 1212ERGO    C116317   0.637  15.459   7.723 -0.1307 -0.0755 -0.1546
 1212ERGO    C216318   0.764  15.441   8.115  0.2641  0.2710 -0.0043
 1213ERGO   ROH16319   8.474   3.674   9.644  0.3375 -0.1537  0.0885
 1213ERGO    R116320   8.643   3.675   9.416  0.2649  0.0854  0.0324
 1213ERGO    R216321   8.605   3.503   9.202  0.4483  0.0162  0.0561
 1213ERGO    R316322   8.604   3.734   9.059  0.0587  0.0118  0.0404
 1213ERGO    R416323   8.571   3.524   8.859  0.4453 -0.0715  0.0505
 1213ERGO    R516324   8.722   3.681   8.858  0.1775  0.1979  0.0563
 1213ERGO    C116325   8.551   3.754   8.525  0.0779 -0.1268  0.0326
 1213ERGO    C216326   8.378   3.759   8.312  0.0186 -0.0356 -0.0908
 1214ERGO   ROH16327  12.261  12.904   6.216 -0.0358  0.1260 -0.0356
 1214ERGO    R116328  12.369  13.070   6.418 -0.0462  0.1275 -0.0315
 1214ERGO    R216329  12.324  13.342   6.427 -0.0577  0.1241 -0.0284
 1214ERGO    R316330  12.239  13.286   6.680 -0.0587  0.1184 -0.0297
 1214ERGO    R416331  12.392  13.536   6.705  0.0072  0.0793 -0.0126
 1214ERGO    R516332  12.422  13.352   6.820 -0.0328  0.0580 -0.0329
 1214ERGO    C116333  12.352  13.597   7.104  0.0441  0.0478 -0.0046
 1214ERGO    C216334  12.306  13.678   7.471  0.1010 -0.0661 -0.1270
 1215ERGO   ROH16335   0.488   2.294  10.642  0.1519  0.2804  0.0636
 1215ERGO    R116336   0.460   2.245  10.365  0.2828  0.2450  0.0551
 1215ERGO    R216337   0.233   2.317  10.223  0.1522 -0.1726  0.0268
 1215ERGO    R316338   0.413   2.445  10.064 -0.0597  0.1884  0.0680
 1215ERGO    R416339   0.244   2.296   9.878  0.2993 -0.1695  0.0313
 1215ERGO    R516340   0.461   2.289   9.890  0.3133  0.2754  0.0908
 1215ERGO    C116341   0.420   2.404   9.529  0.1860  0.1711  0.0726
 1215ERGO    C216342   0.284   2.420   9.245  0.0889  0.0266 -0.0005
 1216ERGO   ROH16343   4.574   7.617   9.877 -0.4294 -0.0048 -0.1560
 1216ERGO    R116344   4.675   7.662   9.616 -0.2290  0.1740 -0.0506
 1216ERGO    R216345   4.669   7.469   9.419  0.0874  0.2468 -0.1376
 1216ERGO    R316346   4.542   7.664   9.277  0.0696  0.2111 -0.1711
 1216ERGO    R416347   4.611   7.460   9.078 -0.0922  0.0852 -0.1045
 1216ERGO    R516348   4.660   7.672   9.069 -0.0347  0.0690 -0.2388
 1216ERGO    C116349   4.459   7.638   8.747 -0.2136 -0.0423 -0.1166
 1216ERGO    C216350   4.420   7.625   8.369  0.3929 -0.2228  0.0431
 1217ERGO   ROH16351  16.324   1.399  10.780  0.1036  0.0950  0.0553
 1217ERGO    R116352  16.308   1.270  10.528 -0.0542  0.0787  0.0733
 1217ERGO    R216353  16.163   1.374  10.317  0.0502  0.2139  0.0714
 1217ERGO    R316354  16.399   1.349  10.184  0.0164 -0.0692  0.0562
 1217ERGO    R416355  16.197   1.373   9.973  0.0563  0.6193  0.0662
 1217ERGO    R516356  16.346   1.215   9.993 -0.2464  0.2878 -0.1364
 1217ERGO    C116357  16.439   1.350   9.648  0.0280  0.5896  0.0491
 1217ERGO    C216358  16.362   1.387   9.467 -0.2104 -0.3723  0.1636
 1218ERGO   ROH16359  17.978  12.696  10.553  0.1021 -0.0029  0.0043
 1218ERGO    R116360  17.860  12.646  10.301 -0.0164  0.1511  0.0286
 1218ERGO    R216361  17.811  12.846  10.116  0.2782  0.2060  0.0107
 1218ERGO    R316362  17.955  12.685   9.952 -0.0030 -0.0498  0.0077
 1218ERGO    R416363  17.753  12.807   9.778  0.1487  0.2523  0.0269
 1218ERGO    R516364  17.792  12.594   9.801 -0.1828  0.1840  0.0504
 1218ERGO    C116365  17.853  12.632   9.426 -0.1908  0.0392  0.0335
 1218ERGO    C216366  17.718  12.593   9.123 -0.0506 -0.2569  0.0647
 1219ERGO   ROH16367   9.859  13.660   9.351  0.0750  0.3777  0.1136
 1219ERGO    R116368   9.735  13.791   9.134 -0.1150  0.2358  0.1342
 1219ERGO    R216369   9.630  13.655   8.917  0.1839  0.1211  0.0589
 1219ERGO    R316370   9.405  13.794   8.980 -0.0929 -0.3071  0.0565
 1219ERGO    R416371   9.405  13.782   8.687  0.4308  0.4558 -0.0065
 1219ERGO    R516372   9.389  13.961   8.809  0.0134  0.1326  0.4543
 1219ERGO    C116373   9.063  13.985   8.612  0.3148  0.2487 -0.0469
 1219ERGO    C216374   8.944  13.934   8.347 -0.3840 -0.0625  0.0498
 1220ERGO   ROH16375  10.726  10.340   9.645 -0.0843  0.1003 -0.0480
 1220ERGO    R116376  10.614  10.407   9.394 -0.0137  0.0256 -0.1004
 1220ERGO    R216377  10.697  10.626   9.247  0.0708 -0.0513 -0.1732
 1220ERGO    R316378  10.734  10.441   9.052  0.0708 -0.1414 -0.0881
 1220ERGO    R416379  10.653  10.685   8.910  0.1133 -0.1975 -0.2044
 1220ERGO    R516380  10.561  10.488   8.892  0.0943 -0.1937 -0.1271
 1220ERGO    C116381  10.663  10.546   8.529  0.1381 -0.3673 -0.1426
 1220ERGO    C216382  10.865  10.613   8.334  0.1708 -0.0207 -0.0671
 1221ERGO   ROH16383   5.910   3.601   7.359 -0.0155 -0.1170 -0.1728
 1221ERGO    R116384   5.756   3.663   7.588  0.0526 -0.0607 -0.1426
 1221ERGO    R216385   5.484   3.710   7.577  0.0751  0.0686 -0.0933
 1221ERGO    R316386   5.475   3.515   7.766  0.0116  0.0603 -0.1038
 1221ERGO    R416387   5.210   3.640   7.775  0.0972  0.2504  0.0044
 1221ERGO    R516388   5.346   3.611   7.943  0.1439  0.1433 -0.0469
 1221ERGO    C116389   5.042   3.416   8.068  0.0504  0.3484  0.0513
 1221ERGO    C216390   4.916   3.286   8.385  0.0642  0.1994  0.0921
 1222ERGO   ROH16391  10.639   4.675   6.327  0.2103  0.0437  0.2283
 1222ERGO    R116392  10.645   4.665   6.610  0.1246  0.1990  0.2365
 1222ERGO    R216393  10.500   4.839   6.767 -0.1658  0.0912  0.0952
 1222ERGO    R316394  10.405   4.609   6.878  0.1012  0.0172  0.1789
 1222ERGO    R416395  10.323   4.823   7.063 -0.4200  0.0362 -0.0565
 1222ERGO    R516396  10.434   4.641   7.114 -0.1684  0.2501  0.1863
 1222ERGO    C116397  10.130   4.598   7.340 -0.3174 -0.0653 -0.0662
 1222ERGO    C216398   9.995   4.390   7.657  0.6823 -0.1247  0.1470
 1223ERGO   ROH16399   8.322  11.980   9.750 -0.0805 -0.0585 -0.0788
 1223ERGO    R116400   8.408  12.079   9.499 -0.0854  0.0660 -0.0315
 1223ERGO    R216401   8.475  11.913   9.289  0.0193  0.1696 -0.0764
 1223ERGO    R316402   8.292  12.062   9.154 -0.0234  0.1356 -0.0570
 1223ERGO    R416403   8.389  11.869   8.957  0.0463  0.1921 -0.0869
 1223ERGO    R516404   8.383  12.085   8.935 -0.0199  0.1978 -0.0521
 1223ERGO    C116405   8.167  11.983   8.637  0.0218  0.1733 -0.0749
 1223ERGO    C216406   8.160  11.942   8.338  0.0060 -0.1432 -0.0838
 1224ERGO   ROH16407  15.088  13.112  10.549  0.0093  0.0631 -0.0269
 1224ERGO    R116408  15.195  13.142  10.289 -0.0273  0.1519 -0.0320
 1224ERGO    R216409  15.234  12.928  10.118  0.1424  0.1820 -0.0325
 1224ERGO    R316410  15.085  13.079   9.948  0.0083  0.0586 -0.0268
 1224ERGO    R416411  15.251  12.912   9.774  0.0512  0.1084 -0.0343
 1224ERGO    R516412  15.234  13.130   9.768 -0.0713  0.0983 -0.0824
 1224ERGO    C116413  15.121  13.045   9.413 -0.1278 -0.0504 -0.0300
 1224ERGO    C216414  15.191  13.142   9.070  0.0106  0.1434 -0.0545
 1225ERGO   ROH16415   8.382   2.434  10.219  0.0653  0.4869  0.0025
 1225ERGO    R116416   8.460   2.319   9.973  0.2505  0.2664  0.1585
 1225ERGO    R216417   8.317   2.357   9.739  0.1425 -0.3406  0.1063
 1225ERGO    R316418   8.558   2.441   9.644 -0.0183 -0.0222 -0.0328
 1225ERGO    R416419   8.416   2.341   9.408  0.0809 -0.4722  0.0944
 1225ERGO    R516420   8.614   2.281   9.475  0.2026 -0.0822  0.0972
 1225ERGO    C116421   8.700   2.410   9.126 -0.1058 -0.2499 -0.0433
 1225ERGO    C216422   8.825   2.340   8.848 -0.3842  0.2170  0.0121
 1226ERGO   ROH16423   1.774   4.934   8.483 -0.1131 -0.0785  0.0051
 1226ERGO    R116424   1.673   5.040   8.241 -0.1048 -0.0617  0.0099
 1226ERGO    R216425   1.495   5.251   8.234  0.0506  0.0660  0.0129
 1226ERGO    R316426   1.680   5.362   8.069  0.0813 -0.1066 -0.0721
 1226ERGO    R416427   1.442   5.532   8.041  0.3250  0.3392  0.3206
 1226ERGO    R516428   1.553   5.435   7.879  0.0017  0.2815  0.1157
 1226ERGO    C116429   1.585   5.800   7.773  0.5135  0.3363  0.4200
 1226ERGO    C216430   1.721   6.059   7.679 -0.0456 -0.1907 -0.0327
 1227ERGO   ROH16431   0.274  12.534  10.232  0.0372 -0.0706 -0.0909
 1227ERGO    R116432   0.359  12.606   9.972  0.1337 -0.2254 -0.1041
 1227ERGO    R216433   0.377  12.423   9.766 -0.2612 -0.2642 -0.1170
 1227ERGO    R316434   0.217  12.601   9.637  0.0549  0.0616 -0.0764
 1227ERGO    R416435   0.350  12.451   9.422 -0.3333 -0.2370 -0.1090
 1227ERGO    R516436   0.344  12.668   9.446  0.1250 -0.2189 -0.1284
 1227ERGO    C116437   0.183  12.635   9.101 -0.0787  0.0847 -0.0662
 1227ERGO    C216438   0.066  12.578   8.717  0.1847 -0.2743  0.0754
 1228ERGO   ROH16439   6.981   8.080  10.152  0.1283 -0.0312 -0.0326
 1228ERGO    R116440   6.859   8.203   9.929  0.2911  0.1627 -0.0171
 1228ERGO    R216441   7.005   8.305   9.717  0.4257 -0.2628 -0.1398
 1228ERGO    R316442   6.843   8.144   9.570 -0.0385  0.0407  0.0151
 1228ERGO    R416443   6.940   8.344   9.380  0.2868 -0.2284 -0.1099
 1228ERGO    R516444   6.732   8.292   9.419  0.1864  0.2437  0.0443
 1228ERGO    C116445   6.750   8.215   9.046 -0.2298  0.0766  0.0530
 1228ERGO    C216446   6.673   8.161   8.708 -0.0068  0.1749 -0.0599
 1229ERGO   ROH16447   8.785  10.302   9.743 -0.1560 -0.1636  0.0851
 1229ERGO    R116448   8.792  10.150   9.504 -0.0294 -0.0964  0.0443
 1229ERGO    R216449   8.581  10.143   9.326  0.0143 -0.1428 -0.0111
 1229ERGO    R316450   8.773  10.216   9.147  0.0273 -0.0052  0.0591
 1229ERGO    R416451   8.561  10.097   8.984  0.1698 -0.1327 -0.0221
 1229ERGO    R516452   8.772  10.042   8.983  0.2033  0.0081  0.0466
 1229ERGO    C116453   8.729  10.139   8.617  0.2727  0.0024  0.0373
 1229ERGO    C216454   8.853  10.038   8.313 -0.5537 -0.0854 -0.1023
 1230ERGO   ROH16455   8.870  10.887   5.897  0.3050 -0.0255 -0.0528
 1230ERGO    R116456   8.813  10.615   5.953  0.0544  0.0091 -0.1253
 1230ERGO    R216457   8.989  10.452   6.089 -0.0738 -0.2039 -0.2093
 1230ERGO    R316458   8.774  10.410   6.250 -0.0844 -0.0457 -0.1806
 1230ERGO    R416459   8.997  10.281   6.390 -0.1539 -0.1817 -0.1946
 1230ERGO    R516460   8.807  10.189   6.338 -0.2219 -0.0599 -0.1641
 1230ERGO    C116461   8.800  10.143   6.716 -0.2105 -0.0202 -0.1590
 1230ERGO    C216462   8.745   9.967   7.007 -0.3682  0.1403  0.2907
 1231ERGO   ROH16463  11.163  13.026   9.845  0.1078 -0.0665  0.0371
 1231ERGO    R116464  11.223  13.151   9.598  0.3793 -0.4087 -0.0778
 1231ERGO    R216465  11.279  13.007   9.368 -0.4383 -0.7716 -0.0833
 1231ERGO    R316466  11.079  13.159   9.264  0.0432  0.0286  0.0675
 1231ERGO    R416467  11.225  13.062   9.031 -0.5458 -0.6724 -0.0512
 1231ERGO    R516468  11.177  13.269   9.077  0.3307 -0.4243 -0.0648
 1231ERGO    C116469  11.006  13.236   8.738 -0.1564  0.1366  0.1091
 1231ERGO    C216470  11.095  13.063   8.564  0.0989 -0.1499 -0.1021
 1232ERGO   ROH16471   1.133   0.371   6.724 -0.0659 -0.1803  0.0195
 1232ERGO    R116472   0.991   0.259   6.942 -0.0636 -0.0358  0.0971
 1232ERGO    R216473   1.073   0.028   7.070 -0.1950 -0.0876  0.0925
 1232ERGO    R316474   1.059   0.184   7.292  0.0300 -0.0432  0.0772
 1232ERGO    R416475   1.131  -0.081   7.393 -0.2109 -0.1045  0.0893
 1232ERGO    R516476   0.964   0.042   7.459 -0.0666  0.0751  0.1234
 1232ERGO    C116477   1.152   0.002   7.789 -0.0091 -0.0728  0.0731
 1232ERGO    C216478   1.187  -0.012   8.191 -0.2538 -0.4160  0.0462
 1233ERGO   ROH16479  11.554   6.534  10.058  0.0831 -0.0203  0.1870
 1233ERGO    R116480  11.725   6.505   9.835  0.0679  0.0302  0.1672
 1233ERGO    R216481  11.634   6.421   9.587  0.0817 -0.0921  0.1984
 1233ERGO    R316482  11.753   6.650   9.502 -0.0781 -0.0368  0.1262
 1233ERGO    R416483  11.678   6.509   9.256  0.1408 -0.2279  0.1704
 1233ERGO    R516484  11.876   6.585   9.308  0.0550 -0.0340  0.2114
 1233ERGO    C116485  11.815   6.776   8.984  0.0252 -0.2551  0.0863
 1233ERGO    C216486  11.610   6.828   8.730 -0.2549 -0.1158  0.2649
 1234ERGO   ROH16487   6.544   6.599   9.952  0.1992  0.1038 -0.1217
 1234ERGO    R116488   6.518   6.765   9.725  0.1365  0.0433 -0.1590
 1234ERGO    R216489   6.692   6.753   9.510  0.0642 -0.0282 -0.2119
 1234ERGO    R316490   6.463   6.720   9.368  0.0150 -0.0497 -0.1292
 1234ERGO    R416491   6.662   6.806   9.170 -0.0816  0.0434 -0.1888
 1234ERGO    R516492   6.467   6.897   9.207 -0.0902 -0.0104 -0.0908
 1234ERGO    C116493   6.429   6.805   8.839 -0.2128  0.0649 -0.0978
 1234ERGO    C216494   6.596   6.820   8.534  0.2308  0.3314 -0.1593
 1235ERGO   ROH16495   0.491   6.793   6.739 -0.0382  0.3194 -0.0667
 1235ERGO    R116496   0.523   6.841   7.016  0.0829  0.1634 -0.0520
 1235ERGO    R216497   0.316   6.813   7.197  0.0970  0.2957 -0.0113
 1235ERGO    R316498   0.491   6.648   7.323 -0.0371  0.0559 -0.1316
 1235ERGO    R416499   0.280   6.697   7.521  0.1112  0.2543 -0.0247
 1235ERGO    R516500   0.495   6.727   7.549  0.1595 -0.0050 -0.1130
 1235ERGO    C116501   0.424   6.476   7.828 -0.0065  0.0050 -0.1453
 1235ERGO    C216502   0.388   6.217   8.099  0.0054 -0.1137 -0.0866
 1236ERGO   ROH16503  12.623   0.859   6.753  0.2050 -0.2466 -0.1695
 1236ERGO    R116504  12.636   0.765   7.020  0.2162 -0.1596 -0.1386
 1236ERGO    R216505  12.857   0.805   7.181  0.1639  0.0346 -0.1046
 1236ERGO    R316506  12.675   0.913   7.350  0.0564 -0.0332 -0.1764
 1236ERGO    R416507  12.903   0.844   7.521  0.1748  0.4324 -0.1471
 1236ERGO    R516508  12.696   0.783   7.551  0.2606  0.1927 -0.0508
 1236ERGO    C116509  12.758   0.968   7.879  0.0802  0.6004 -0.2393
 1236ERGO    C216510  12.961   1.050   8.092 -0.1373  0.0327 -0.2309
 1237ERGO   ROH16511  16.642   1.215   6.762 -0.1010 -0.0782  0.1165
 1237ERGO    R116512  16.632   1.144   7.036  0.0062 -0.0489  0.1288
 1237ERGO    R216513  16.858   1.082   7.183  0.0973  0.2536  0.1231
 1237ERGO    R316514  16.764   1.277   7.348 -0.1323  0.1665  0.0986
 1237ERGO    R416515  16.843   1.059   7.527 -0.0798  0.1942  0.1123
 1237ERGO    R516516  16.649   1.158   7.521 -0.1476  0.0603  0.0176
 1237ERGO    C116517  16.746   1.229   7.883 -0.3985  0.0778  0.0830
 1237ERGO    C216518  16.968   1.306   8.161 -0.2062  0.0353 -0.1702
 1238ERGO   ROH16519  12.869   7.835  10.527 -0.2327  0.0316 -0.2046
 1238ERGO    R116520  13.083   7.850  10.343 -0.1087 -0.1422 -0.0776
 1238ERGO    R216521  13.120   7.663  10.143 -0.2005 -0.1201 -0.1178
 1238ERGO    R316522  13.120   7.882   9.982  0.1306 -0.0623 -0.0472
 1238ERGO    R416523  13.256   7.675   9.825 -0.2041 -0.2254 -0.1241
 1238ERGO    R516524  13.332   7.875   9.871  0.1131 -0.3558 -0.0654
 1238ERGO    C116525  13.335   7.889   9.490  0.1047 -0.2325 -0.0613
 1238ERGO    C216526  13.395   7.849   9.140  0.1510 -0.1589  0.0392
 1239ERGO   ROH16527  15.400  12.257   6.755  0.1115 -0.1355  0.2086
 1239ERGO    R116528  15.596  12.210   6.954  0.1016 -0.1653  0.2120
 1239ERGO    R216529  15.611  12.359   7.187  0.1509 -0.1352  0.1921
 1239ERGO    R316530  15.598  12.115   7.305  0.0782 -0.1151  0.2252
 1239ERGO    R416531  15.749  12.280   7.493 -0.0720 -0.0774  0.3095
 1239ERGO    R516532  15.811  12.088   7.411  0.0006 -0.0861  0.3884
 1239ERGO    C116533  15.818  12.005   7.783 -0.2699 -0.0249  0.4089
 1239ERGO    C216534  15.954  11.874   8.034  0.0319  0.1363  0.0425
 1240ERGO   ROH16535   7.856   7.206   6.243 -0.2899  0.0919 -0.0331
 1240ERGO    R116536   7.790   7.188   6.517 -0.3074  0.1396 -0.0339
 1240ERGO    R216537   7.970   7.099   6.708 -0.4339 -0.1884 -0.0591
 1240ERGO    R316538   7.909   7.336   6.828 -0.0537 -0.1097 -0.0084
 1240ERGO    R416539   8.050   7.182   7.034 -0.4412 -0.4538  0.0122
 1240ERGO    R516540   7.854   7.276   7.053 -0.2821 -0.0909 -0.0570
 1240ERGO    C116541   8.039   7.452   7.336 -0.0883 -0.5344  0.1013
 1240ERGO    C216542   8.150   7.517   7.640 -0.1332 -0.1832 -0.3405
 1241ERGO   ROH16543   8.253  17.538   9.234  0.0964 -0.0895  0.0621
 1241ERGO    R116544   8.322  17.442   8.977  0.0288 -0.0794  0.0406
 1241ERGO    R216545   8.193  17.525   8.748  0.0438  0.0135  0.0694
 1241ERGO    R316546   8.445  17.586   8.666  0.0624 -0.0860  0.0494
 1241ERGO    R416547   8.280  17.612   8.425  0.0401  0.0040  0.0655
 1241ERGO    R516548   8.461  17.492   8.446 -0.0045 -0.0769  0.0371
 1241ERGO    C116549   8.567  17.720   8.160  0.0556 -0.0945  0.0444
 1241ERGO    C216550   8.413  17.885   7.961  0.4488 -0.0437  0.2104
 1242ERGO   ROH16551   1.232   1.790  10.386 -0.0535  0.2088  0.0884
 1242ERGO    R116552   1.147   1.669  10.145 -0.1260  0.2204  0.1077
 1242ERGO    R216553   0.954   1.781   9.982 -0.0075  0.3479  0.0528
 1242ERGO    R316554   1.147   1.756   9.792 -0.0014  0.1321  0.0853
 1242ERGO    R416555   0.895   1.757   9.642  0.0156  0.2305  0.0567
 1242ERGO    R516556   1.052   1.606   9.630 -0.0820  0.1197  0.1437
 1242ERGO    C116557   1.041   1.719   9.266  0.0348 -0.0405  0.0895
 1242ERGO    C216558   0.900   1.891   9.036 -0.2723 -0.0281 -0.1020
 1243ERGO   ROH16559  15.604  15.075  10.497  0.0951 -0.0226  0.0378
 1243ERGO    R116560  15.539  14.899  10.285  0.1102 -0.0744  0.0772
 1243ERGO    R216561  15.374  14.972  10.076  0.0359 -0.1635  0.1095
 1243ERGO    R316562  15.585  14.892   9.923  0.0274 -0.1084  0.0661
 1243ERGO    R416563  15.392  15.003   9.732  0.0572  0.0690  0.1292
 1243ERGO    R516564  15.484  14.806   9.724  0.0142  0.0491 -0.0003
 1243ERGO    C116565  15.601  14.946   9.389  0.0615  0.2562  0.0999
 1243ERGO    C216566  15.636  14.820   9.098  0.2904  0.1741 -0.3990
 1244ERGO   ROH16567   4.639   6.929   6.440 -0.0067 -0.0269  0.0821
 1244ERGO    R116568   4.634   6.912   6.723  0.1058 -0.1529  0.0772
 1244ERGO    R216569   4.399   6.925   6.868  0.2015  0.2347  0.1982
 1244ERGO    R316570   4.487   6.690   6.971 -0.2015  0.0043  0.0431
 1244ERGO    R416571   4.293   6.789   7.167  0.1929  0.3921  0.2683
 1244ERGO    R516572   4.498   6.730   7.207  0.1198 -0.0710  0.0486
 1244ERGO    C116573   4.314   6.489   7.439 -0.1904  0.2674  0.1635
 1244ERGO    C216574   4.224   6.283   7.830 -0.1453 -0.0745  0.1335
 1245ERGO   ROH16575   2.050   2.846   6.778 -0.0600 -0.0752 -0.0190
 1245ERGO    R116576   2.021   2.978   7.027 -0.1146 -0.2555  0.0720
 1245ERGO    R216577   2.145   2.889   7.258  0.2828 -0.1202 -0.0800
 1245ERGO    R316578   2.241   3.143   7.266 -0.2356  0.0867 -0.0483
 1245ERGO    R416579   2.267   3.046   7.541  0.4485 -0.0976 -0.1630
 1245ERGO    R516580   2.167   3.228   7.477 -0.0556 -0.2437  0.1554
 1245ERGO    C116581   2.428   3.376   7.712  0.0584  0.1098 -0.1816
 1245ERGO    C216582   2.611   3.454   8.052 -0.1237 -0.1154 -0.2308
 1246ERGO   ROH16583  12.807  13.881  10.054 -0.0205  0.4046  0.0756
 1246ERGO    R116584  12.939  13.866   9.804 -0.0289  0.2336  0.0803
 1246ERGO    R216585  12.816  13.769   9.576 -0.0311  0.0624  0.1535
 1246ERGO    R316586  12.893  14.008   9.471 -0.0497 -0.0066 -0.0216
 1246ERGO    R416587  12.908  13.821   9.247  0.1250 -0.2089  0.1516
 1246ERGO    R516588  13.067  13.952   9.317  0.0494 -0.0966  0.1186
 1246ERGO    C116589  13.034  14.075   8.957  0.1985 -0.4315 -0.0138
 1246ERGO    C216590  13.074  14.067   8.701 -0.0670 -0.0844  0.1412
 1247ERGO   ROH16591  12.915   6.743  10.564 -0.2175  0.0456  0.0388
 1247ERGO    R116592  12.924   6.575  10.337 -0.0765 -0.0148  0.0878
 1247ERGO    R216593  12.713   6.553  10.159 -0.0260 -0.1780  0.0455
 1247ERGO    R316594  12.903   6.618   9.976 -0.0184 -0.1280  0.0708
 1247ERGO    R416595  12.682   6.509   9.818  0.0333 -0.1847  0.0406
 1247ERGO    R516596  12.889   6.444   9.812  0.0502 -0.1300  0.0682
 1247ERGO    C116597  12.841   6.544   9.447  0.0751 -0.1416  0.0617
 1247ERGO    C216598  12.912   6.536   8.996  0.0789  0.1964 -0.2182
 1248ERGO   ROH16599   7.119   2.673   9.906  0.0906  0.1945 -0.0913
 1248ERGO    R116600   7.136   2.718   9.627  0.1225  0.0929 -0.1061
 1248ERGO    R216601   7.369   2.678   9.483  0.0780 -0.1812 -0.1054
 1248ERGO    R316602   7.209   2.519   9.331 -0.0866 -0.0718 -0.0503
 1248ERGO    R416603   7.377   2.663   9.138  0.0431 -0.2801 -0.1020
 1248ERGO    R516604   7.159   2.652   9.138  0.0285 -0.0718 -0.0830
 1248ERGO    C116605   7.232   2.504   8.794 -0.1318 -0.2351 -0.0485
 1248ERGO    C216606   7.407   2.544   8.592  0.2324 -0.0032  0.2103
 1249ERGO   ROH16607   3.531   5.411   6.603 -0.1611 -0.0005 -0.3064
 1249ERGO    R116608   3.501   5.553   6.846 -0.1127 -0.2195 -0.1697
 1249ERGO    R216609   3.449   5.824   6.855  0.2350 -0.1528  0.0870
 1249ERGO    R316610   3.239   5.745   7.010  0.0418 -0.0508 -0.1168
 1249ERGO    R416611   3.385   5.940   7.174  0.0556 -0.2161  0.0751
 1249ERGO    R516612   3.330   5.737   7.231 -0.1486 -0.1975 -0.0410
 1249ERGO    C116613   3.152   5.934   7.505 -0.2302 -0.1572 -0.1232
 1249ERGO    C216614   3.154   6.166   7.787  0.0074  0.0255  0.1410
 1250ERGO   ROH16615   3.186  15.843   6.584  0.6384  0.0760  0.1526
 1250ERGO    R116616   3.254  15.623   6.749  0.3539 -0.0383  0.1209
 1250ERGO    R216617   3.348  15.653   7.006  0.1874 -0.2074  0.2009
 1250ERGO    R316618   3.142  15.487   7.067  0.0183 -0.0820 -0.0098
 1250ERGO    R416619   3.303  15.500   7.313 -0.0632 -0.3981  0.0730
 1250ERGO    R516620   3.241  15.319   7.208 -0.1753 -0.2728 -0.0904
 1250ERGO    C116621   3.083  15.255   7.549 -0.3678 -0.3914 -0.1993
 1250ERGO    C216622   3.138  15.000   7.853 -0.0950 -0.0573  0.1158
 1251ERGO   ROH16623   7.759   5.285   9.479  0.0645 -0.0175  0.0059
 1251ERGO    R116624   7.981   5.276   9.303 -0.0023 -0.0206 -0.0775
 1251ERGO    R216625   7.955   5.300   9.030 -0.0886  0.1468 -0.0515
 1251ERGO    R316626   8.137   5.499   9.062  0.0180  0.0439 -0.0068
 1251ERGO    R416627   8.151   5.430   8.777 -0.1711  0.2354 -0.0717
 1251ERGO    R516628   8.318   5.437   8.917 -0.0870  0.0605 -0.1530
 1251ERGO    C116629   8.437   5.693   8.660 -0.1191  0.1905 -0.0414
 1251ERGO    C216630   8.528   5.722   8.261 -0.1429  0.0277 -0.3402
 1252ERGO   ROH16631   1.465  11.699  10.660  0.0360  0.1860  0.1134
 1252ERGO    R116632   1.543  11.868  10.447  0.2797 -0.0165  0.0397
 1252ERGO    R216633   1.686  11.775  10.229 -0.0799 -0.3805 -0.0466
 1252ERGO    R316634   1.482  11.886  10.088  0.0706  0.0795  0.0772
 1252ERGO    R416635   1.699  11.854   9.893 -0.1259 -0.5138 -0.0812
 1252ERGO    R516636   1.590  12.038   9.937  0.3438 -0.2182 -0.0467
 1252ERGO    C116637   1.514  12.004   9.565 -0.0115 -0.1597  0.0150
 1252ERGO    C216638   1.476  11.845   9.304 -0.2663 -0.0689  0.3145
 1253ERGO   ROH16639   5.901   3.078   6.750  0.2483  0.2768 -0.1491
 1253ERGO    R116640   5.748   3.157   6.974  0.2633  0.2374 -0.1257
 1253ERGO    R216641   5.705   2.992   7.192  0.1551  0.1449 -0.2194
 1253ERGO    R316642   5.805   3.204   7.330  0.2449  0.0227 -0.0921
 1253ERGO    R416643   5.716   3.016   7.537  0.2029 -0.0875 -0.2024
 1253ERGO    R516644   5.659   3.226   7.519  0.2713 -0.0521 -0.0596
 1253ERGO    C116645   5.814   3.229   7.867  0.3152 -0.3375 -0.0729
 1253ERGO    C216646   5.897   3.484   8.159  0.0166 -0.1965 -0.4171
 1254ERGO   ROH16647   5.692  16.749  10.454  0.1729  0.1681 -0.0707
 1254ERGO    R116648   5.688  16.852  10.191 -0.0491  0.1465 -0.0766
 1254ERGO    R216649   5.876  16.781  10.000 -0.0698  0.3160 -0.1526
 1254ERGO    R316650   5.655  16.717   9.855 -0.0740  0.0933 -0.0552
 1254ERGO    R416651   5.878  16.695   9.666 -0.1074  0.2198 -0.1293
 1254ERGO    R516652   5.696  16.813   9.639 -0.2202  0.0700 -0.1009
 1254ERGO    C116653   5.672  16.585   9.334 -0.1332 -0.0451 -0.0243
 1254ERGO    C216654   5.677  16.723   8.908 -0.1624  0.3130  0.2094
 1255ERGO   ROH16655   9.882  15.612   6.578 -0.0656  0.0068 -0.0932
 1255ERGO    R116656   9.897  15.566   6.857 -0.2219 -0.0869 -0.0983
 1255ERGO    R216657   9.781  15.346   6.978 -0.0056 -0.3115 -0.2814
 1255ERGO    R316658  10.032  15.309   7.076 -0.0215  0.0133 -0.1038
 1255ERGO    R416659   9.860  15.149   7.250  0.0814 -0.3596 -0.3419
 1255ERGO    R516660  10.003  15.300   7.313 -0.1993 -0.1767 -0.1322
 1255ERGO    C116661  10.142  14.998   7.500  0.1172 -0.0829 -0.2105
 1255ERGO    C216662  10.157  14.717   7.796  0.2729 -0.0716 -0.0223
 1256ERGO   ROH16663  17.274  14.350   6.716 -0.1617 -0.1716  0.2236
 1256ERGO    R116664  17.495  14.406   6.885 -0.1964 -0.2814  0.3039
 1256ERGO    R216665  17.578  14.663   6.941  0.1811 -0.3294 -0.0274
 1256ERGO    R316666  17.550  14.582   7.199 -0.1464  0.1051  0.0862
 1256ERGO    R416667  17.793  14.746   7.198  0.2113 -0.3859 -0.0328
 1256ERGO    R516668  17.774  14.542   7.273 -0.2576 -0.2542  0.2667
 1256ERGO    C116669  17.892  14.719   7.590 -0.0785 -0.0110  0.0708
 1256ERGO    C216670  18.247  14.781   7.762  0.1921  0.1307 -0.0676
 1257ERGO   ROH16671   9.684   8.588   9.832 -0.0613 -0.2659  0.1920
 1257ERGO    R116672   9.839   8.660   9.606 -0.1886 -0.1054  0.1534
 1257ERGO    R216673  10.057   8.512   9.524 -0.0916  0.0848  0.0655
 1257ERGO    R316674   9.925   8.510   9.286 -0.1636  0.0102  0.1054
 1257ERGO    R416675  10.210   8.490   9.214 -0.1712  0.2184  0.0157
 1257ERGO    R516676  10.066   8.637   9.139 -0.2990  0.1228  0.0714
 1257ERGO    C116677  10.174   8.475   8.811 -0.2852  0.2261  0.0242
 1257ERGO    C216678  10.249   8.301   8.507 -0.3555  0.0935 -0.0661
 1258ERGO   ROH16679   7.389  17.719  10.150 -0.0670 -0.1086 -0.0850
 1258ERGO    R116680   7.470  17.794   9.889 -0.0686 -0.2309 -0.1221
 1258ERGO    R216681   7.487  17.613   9.681 -0.3237 -0.2828 -0.1048
 1258ERGO    R316682   7.324  17.792   9.556 -0.1789 -0.1274 -0.0744
 1258ERGO    R416683   7.417  17.614   9.342 -0.2354 -0.0900 -0.1239
 1258ERGO    R516684   7.430  17.831   9.345 -0.1002 -0.1010 -0.0278
 1258ERGO    C116685   7.224  17.781   9.028 -0.0480  0.1683 -0.1063
 1258ERGO    C216686   7.125  17.752   8.632  0.0328 -0.0678 -0.2939
 1259ERGO   ROH16687   9.240   1.793  10.268 -0.0698  0.2588  0.2063
 1259ERGO    R116688   9.416   1.753  10.050 -0.0300  0.0918  0.2678
 1259ERGO    R216689   9.354   1.589   9.837 -0.0438  0.0256  0.3217
 1259ERGO    R316690   9.410   1.812   9.691  0.0862 -0.0582  0.2408
 1259ERGO    R416691   9.423   1.592   9.498 -0.1787 -0.1155  0.2917
 1259ERGO    R516692   9.578   1.741   9.536 -0.0373 -0.2372  0.1893
 1259ERGO    C116693   9.515   1.802   9.164 -0.1352 -0.2763  0.1982
 1259ERGO    C216694   9.458   1.600   8.778 -0.2946 -0.4157 -0.3021
 1260ERGO   ROH16695  11.639   4.522   6.743 -0.1829  0.0076  0.0216
 1260ERGO    R116696  11.562   4.477   7.012 -0.0195 -0.0648  0.0582
 1260ERGO    R216697  11.744   4.420   7.211  0.1147 -0.0157 -0.0456
 1260ERGO    R316698  11.627   4.632   7.334  0.0888 -0.0827  0.0445
 1260ERGO    R416699  11.780   4.497   7.546  0.1017 -0.1514 -0.0129
 1260ERGO    R516700  11.568   4.549   7.551  0.0977 -0.1796  0.0083
 1260ERGO    C116701  11.690   4.741   7.857  0.0699 -0.2932  0.0907
 1260ERGO    C216702  11.951   4.693   8.175  0.0032 -0.3230  0.0502
 1261ERGO   ROH16703  14.198   5.959  10.452 -0.1734 -0.1310 -0.0678
 1261ERGO    R116704  14.099   5.889  10.196 -0.1475 -0.0613 -0.0981
 1261ERGO    R216705  14.093   6.067   9.985  0.0049 -0.0442 -0.0923
 1261ERGO    R316706  14.230   5.871   9.858 -0.0701 -0.1135 -0.0650
 1261ERGO    R416707  14.120   6.036   9.642 -0.0305 -0.1181 -0.0878
 1261ERGO    R516708  14.097   5.821   9.665 -0.1002 -0.1055 -0.0454
 1261ERGO    C116709  14.265   5.833   9.323 -0.1215 -0.2261 -0.0595
 1261ERGO    C216710  14.143   5.928   9.002  0.0768  0.1121 -0.0425
 1262ERGO   ROH16711  17.553   7.069  10.323  0.0660  0.0107 -0.1439
 1262ERGO    R116712  17.478   7.166  10.068 -0.0274  0.1545 -0.0642
 1262ERGO    R216713  17.647   7.320   9.912 -0.0463  0.1684 -0.0825
 1262ERGO    R316714  17.596   7.128   9.726 -0.2087  0.2652 -0.1379
 1262ERGO    R416715  17.611   7.378   9.573  0.2358  0.2565 -0.0989
 1262ERGO    R516716  17.447   7.234   9.570  0.0346  0.4914 -0.2156
 1262ERGO    C116717  17.542   7.232   9.201  0.2479  0.3987 -0.1606
 1262ERGO    C216718  17.546   7.149   8.817 -0.2300 -0.0744  0.0356
 1263ERGO   ROH16719  14.638   8.032   6.851 -0.1954 -0.0447 -0.0226
 1263ERGO    R116720  14.646   8.032   7.134 -0.1624  0.0360 -0.0233
 1263ERGO    R216721  14.782   8.224   7.279 -0.1624  0.0881 -0.0935
 1263ERGO    R316722  14.541   8.256   7.402 -0.1500  0.1022 -0.0731
 1263ERGO    R416723  14.736   8.378   7.585 -0.1168  0.0504 -0.0677
 1263ERGO    R516724  14.589   8.224   7.635 -0.1356  0.0613 -0.0800
 1263ERGO    C116725  14.484   8.499   7.878 -0.0787  0.0418 -0.0335
 1263ERGO    C216726  14.339   8.647   8.181 -0.0624 -0.2087  0.0485
 1264ERGO   ROH16727   9.289   8.690   6.386 -0.1076  0.0189  0.1146
 1264ERGO    R116728   9.186   8.719   6.648  0.0068 -0.0281  0.1651
 1264ERGO    R216729   9.278   8.571   6.861  0.1078 -0.0573  0.0984
 1264ERGO    R316730   9.315   8.815   6.975  0.1459 -0.0745  0.1255
 1264ERGO    R416731   9.373   8.622   7.190  0.0525 -0.1123  0.1234
 1264ERGO    R516732   9.231   8.789   7.198  0.0906 -0.0747  0.1072
 1264ERGO    C116733   9.462   8.882   7.488  0.0562 -0.1606  0.1634
 1264ERGO    C216734   9.474   8.698   7.881  0.1033 -0.1649 -0.0584
 1265ERGO   ROH16735  10.958  17.412   6.415  0.1303 -0.1520  0.0214
 1265ERGO    R116736  11.057  17.468   6.674  0.1886  0.0673 -0.0461
 1265ERGO    R216737  11.092  17.272   6.866 -0.0641  0.2679  0.2166
 1265ERGO    R316738  11.345  17.371   6.874  0.0620 -0.0325  0.0896
 1265ERGO    R416739  11.306  17.244   7.135 -0.1888  0.5422  0.3487
 1265ERGO    R516740  11.371  17.449   7.099  0.0835  0.3967 -0.0525
 1265ERGO    C116741  11.669  17.320   7.300 -0.1429  0.4193  0.3064
 1265ERGO    C216742  11.779  17.237   7.644 -0.0554 -0.0431  0.0202
 1266ERGO   ROH16743  11.084   8.228   6.844  0.1149  0.1072  0.0156
 1266ERGO    R116744  10.905   8.436   6.914 -0.0906 -0.0091 -0.1531
 1266ERGO    R216745  10.635   8.393   6.952 -0.0144 -0.2940  0.1067
 1266ERGO    R316746  10.683   8.511   7.192  0.0253  0.1134 -0.0925
 1266ERGO    R416747  10.390   8.497   7.171  0.0124 -0.5404  0.2582
 1266ERGO    R516748  10.510   8.676   7.212 -0.3089 -0.2227 -0.1071
 1266ERGO    C116749  10.291   8.669   7.525  0.0653 -0.3015  0.1595
 1266ERGO    C216750  10.020   8.843   7.694 -0.1216  0.1440 -0.1120
 1267ERGO   ROH16751  16.383   9.407   6.607 -0.3902  0.0409 -0.1499
 1267ERGO    R116752  16.384   9.591   6.822 -0.3032  0.0305 -0.1415
 1267ERGO    R216753  16.342   9.513   7.084 -0.0966  0.0033 -0.1157
 1267ERGO    R316754  16.578   9.641   7.126 -0.1096  0.0814 -0.2714
 1267ERGO    R416755  16.418   9.701   7.364  0.1247 -0.2082 -0.0302
 1267ERGO    R516756  16.517   9.845   7.234 -0.0926 -0.0422 -0.0187
 1267ERGO    C116757  16.685   9.930   7.566  0.2415 -0.2580 -0.1265
 1267ERGO    C216758  16.675  10.077   7.929 -0.0246 -0.2087 -0.3004
 1268ERGO   ROH16759  10.502  10.413   5.986 -0.1725  0.2324  0.0114
 1268ERGO    R116760  10.431  10.496   6.247 -0.0776  0.1436  0.0659
 1268ERGO    R216761  10.381  10.316   6.451 -0.0287  0.0733  0.0170
 1268ERGO    R316762  10.570  10.461   6.582  0.0299  0.0055  0.0079
 1268ERGO    R416763  10.374  10.391   6.788  0.0571  0.0077  0.0336
 1268ERGO    R516764  10.446  10.591   6.740  0.0913  0.0011  0.0594
 1268ERGO    C116765  10.547  10.570   7.108  0.1620 -0.0943  0.0349
 1268ERGO    C216766  10.583  10.404   7.417  0.1555 -0.0950  0.0880
 1269ERGO   ROH16767  15.316  10.967  10.458  0.1803 -0.0226  0.0234
 1269ERGO    R116768  15.284  10.823  10.217  0.1339  0.0609 -0.0217
 1269ERGO    R216769  15.042  10.806  10.084  0.0604 -0.0462  0.1143
 1269ERGO    R316770  15.187  10.899   9.874 -0.1252  0.1495  0.0703
 1269ERGO    R416771  14.982  10.729   9.753 -0.0168 -0.0061  0.1194
 1269ERGO    R516772  15.197  10.714   9.722 -0.0200  0.2053  0.0138
 1269ERGO    C116773  15.083  10.771   9.363 -0.2360  0.2009  0.0811
 1269ERGO    C216774  15.187  10.740   9.031  0.1902 -0.1688  0.5002
 1270ERGO   ROH16775  12.691  12.978  10.093 -0.1294  0.4918  0.0225
 1270ERGO    R116776  12.745  13.091   9.839 -0.0274  0.3397 -0.0249
 1270ERGO    R216777  12.903  12.965   9.650 -0.0848  0.1493  0.0507
 1270ERGO    R316778  12.685  12.999   9.491 -0.0459  0.2147  0.0113
 1270ERGO    R416779  12.914  13.016   9.309 -0.0143  0.0482  0.0373
 1270ERGO    R516780  12.754  13.162   9.331  0.0572  0.1345 -0.0260
 1270ERGO    C116781  12.715  13.078   8.961  0.0634  0.0507 -0.0075
 1270ERGO    C216782  12.871  13.140   8.597 -0.2290 -0.0738  0.0241
 1271ERGO   ROH16783  17.558   2.934   7.106  0.0208  0.2220 -0.1212
 1271ERGO    R116784  17.677   2.945   7.363 -0.0052  0.4097 -0.1162
 1271ERGO    R216785  17.603   3.130   7.554 -0.3796  0.2332 -0.0869
 1271ERGO    R316786  17.566   2.909   7.708  0.0505  0.1256 -0.1244
 1271ERGO    R416787  17.599   3.129   7.899 -0.4440  0.1874 -0.0868
 1271ERGO    R516788  17.712   2.942   7.895 -0.0456  0.4123 -0.0916
 1271ERGO    C116789  17.563   2.921   8.245 -0.0776  0.0597 -0.1220
 1271ERGO    C216790  17.448   2.788   8.555 -0.2236 -0.0657  0.0672
 1272ERGO   ROH16791  17.611  11.714   6.616 -0.0000 -0.1076  0.0988
 1272ERGO    R116792  17.686  11.696   6.888  0.1065 -0.1156  0.0699
 1272ERGO    R216793  17.503  11.715   7.094  0.2259  0.2171  0.1544
 1272ERGO    R316794  17.611  11.478   7.169 -0.0717  0.0854  0.1809
 1272ERGO    R416795  17.594  11.633   7.417  0.2240  0.1752  0.1441
 1272ERGO    R516796  17.771  11.536   7.337  0.0661 -0.0901  0.1105
 1272ERGO    C116797  17.748  11.362   7.676 -0.0564  0.0272  0.1631
 1272ERGO    C216798  17.771  11.119   7.994  0.1012  0.0229 -0.0342
 1273ERGO   ROH16799   9.569  14.776   9.614  0.1895  0.0009  0.1379
 1273ERGO    R116800   9.535  14.777   9.333  0.1903  0.2028  0.1384
 1273ERGO    R216801   9.685  14.938   9.166  0.6348 -0.1286  0.2068
 1273ERGO    R316802   9.740  14.703   9.042  0.0006 -0.2442  0.1095
 1273ERGO    R416803   9.701  14.895   8.824  0.5319 -0.0193  0.1871
 1273ERGO    R516804   9.599  14.704   8.848 -0.0029  0.2300  0.0990
 1273ERGO    C116805   9.761  14.650   8.507 -0.1233 -0.0641  0.0843
 1273ERGO    C216806   9.880  14.708   8.269 -0.1813  0.3225 -0.2476
 1274ERGO   ROH16807  17.348   9.019  10.210  0.2432  0.1536 -0.0504
 1274ERGO    R116808  17.225   9.033   9.955  0.2090  0.0837 -0.0380
 1274ERGO    R216809  17.343   9.159   9.739  0.1374  0.1078 -0.0626
 1274ERGO    R316810  17.301   8.920   9.618  0.2134  0.0807 -0.0363
 1274ERGO    R416811  17.308   9.113   9.398  0.0427  0.0769 -0.0493
 1274ERGO    R516812  17.150   8.969   9.439  0.1262 -0.0001  0.0126
 1274ERGO    C116813  17.249   8.862   9.086  0.0590  0.0335 -0.0167
 1274ERGO    C216814  17.247   8.983   8.831 -0.0522 -0.0365 -0.0160
 1275ERGO   ROH16815  13.002  17.993   6.722 -0.0789 -0.2449  0.3297
 1275ERGO    R116816  13.102  18.063   6.977  0.0415 -0.0824  0.2404
 1275ERGO    R216817  13.369  18.036   7.045  0.0752 -0.0405  0.1338
 1275ERGO    R316818  13.346  18.299   7.111  0.1064  0.0029 -0.0241
 1275ERGO    R416819  13.553  18.194   7.290 -0.0325  0.0456  0.1594
 1275ERGO    R516820  13.373  18.302   7.349 -0.0380  0.1275 -0.0095
 1275ERGO    C116821  13.639  18.533   7.495 -0.0658  0.1365  0.0262
 1275ERGO    C216822  13.787  18.567   7.769 -0.3048  0.3213  0.1049
 1276ERGO   ROH16823   5.047   0.054   6.837  0.2003  0.0067  0.0143
 1276ERGO    R116824   4.891  -0.043   7.052  0.0834 -0.0336 -0.0884
 1276ERGO    R216825   5.003  -0.141   7.284 -0.0415 -0.1704 -0.0889
 1276ERGO    R316826   4.841   0.043   7.402 -0.0266 -0.1689 -0.0690
 1276ERGO    R416827   4.928  -0.131   7.622 -0.1263 -0.2750 -0.1034
 1276ERGO    R516828   4.722  -0.081   7.570 -0.1037 -0.2030 -0.1435
 1276ERGO    C116829   4.733   0.047   7.929 -0.1618 -0.3347 -0.0933
 1276ERGO    C216830   4.920   0.228   8.202 -0.1810  0.1171 -0.1952
 1277ERGO   ROH16831  12.400  11.164   9.779 -0.1143  0.0240 -0.1113
 1277ERGO    R116832  12.338  11.184   9.503 -0.0697  0.0133 -0.1223
 1277ERGO    R216833  12.532  11.227   9.310 -0.0411  0.0354 -0.0913
 1277ERGO    R316834  12.425  11.003   9.199  0.0053  0.0201 -0.1046
 1277ERGO    R416835  12.549  11.145   8.975  0.0304  0.0236 -0.0846
 1277ERGO    R516836  12.343  11.075   8.986  0.0379  0.0014 -0.1218
 1277ERGO    C116837  12.459  10.886   8.676  0.1158  0.0026 -0.0931
 1277ERGO    C216838  12.564  10.738   8.442  0.1168 -0.1600 -0.1150
 1278ERGO   ROH16839   6.058  15.683  10.389 -0.3587  0.3423 -0.0308
 1278ERGO    R116840   6.011  15.761  10.121 -0.1098  0.2252 -0.1096
 1278ERGO    R216841   6.213  15.773   9.932  0.0227 -0.0765  0.0197
 1278ERGO    R316842   6.046  15.611   9.791 -0.0344 -0.0034 -0.0022
 1278ERGO    R416843   6.196  15.759   9.587  0.1600 -0.1458  0.0134
 1278ERGO    R516844   5.979  15.743   9.603  0.1318  0.0052 -0.0663
 1278ERGO    C116845   6.030  15.598   9.254  0.1863 -0.1175 -0.0107
 1278ERGO    C216846   5.934  15.685   8.934 -0.0608 -0.1960  0.1352
 1279ERGO   ROH16847   0.859   3.225   6.831 -0.0316  0.3943 -0.0496
 1279ERGO    R116848   0.853   3.306   7.103 -0.1634  0.0902  0.0427
 1279ERGO    R216849   0.906   3.132   7.311  0.1182 -0.0614 -0.1465
 1279ERGO    R316850   1.089   3.320   7.379 -0.1812  0.1674  0.0538
 1279ERGO    R416851   1.048   3.164   7.624 -0.0295 -0.0813 -0.0766
 1279ERGO    R516852   1.032   3.380   7.604 -0.3459 -0.0853  0.0831
 1279ERGO    C116853   1.304   3.360   7.871 -0.3966  0.1217  0.1520
 1279ERGO    C216854   1.556   3.520   8.136 -0.1969  0.0530  0.1419
 1280ERGO   ROH16855   7.249  10.826   9.941  0.0771  0.1768 -0.0113
 1280ERGO    R116856   7.332  10.838   9.670  0.1647 -0.1885 -0.0047
 1280ERGO    R216857   7.263  10.646   9.485 -0.2376 -0.1574  0.1118
 1280ERGO    R316858   7.172  10.861   9.344  0.2781 -0.0308 -0.0529
 1280ERGO    R416859   7.276  10.677   9.141 -0.3035 -0.5484  0.0695
 1280ERGO    R516860   7.331  10.886   9.167  0.2885 -0.6455 -0.1622
 1280ERGO    C116861   7.199  10.896   8.809  0.1421 -0.6573 -0.1099
 1280ERGO    C216862   7.049  10.934   8.429  0.1963  0.1732 -0.2470
 1281ERGO   ROH16863   5.631  10.539  10.002  0.0469 -0.1063 -0.0046
 1281ERGO    R116864   5.736  10.435   9.760  0.0951  0.2065 -0.1236
 1281ERGO    R216865   5.613  10.230   9.621  0.4196 -0.0070 -0.1082
 1281ERGO    R316866   5.626  10.407   9.415 -0.1060  0.1102 -0.0531
 1281ERGO    R416867   5.556  10.152   9.289  0.5550 -0.0561 -0.1204
 1281ERGO    R516868   5.722  10.282   9.235  0.2010  0.4230 -0.1171
 1281ERGO    C116869   5.534  10.273   8.903  0.1404  0.0252 -0.0759
 1281ERGO    C216870   5.516  10.209   8.550 -0.2771  0.1611  0.2455
 1282ERGO   ROH16871   9.695  13.823   6.299  0.2073  0.0554 -0.0691
 1282ERGO    R116872   9.726  14.004   6.515  0.1314 -0.0932  0.0689
 1282ERGO    R216873   9.517  14.156   6.613  0.1177 -0.0857  0.0356
 1282ERGO    R316874   9.588  14.042   6.849 -0.0695 -0.2652  0.0069
 1282ERGO    R416875   9.432  14.278   6.925  0.1448 -0.1455  0.0660
 1282ERGO    R516876   9.632  14.227   6.994  0.0719 -0.3773  0.1059
 1282ERGO    C116877   9.449  14.241   7.329 -0.0151 -0.3490  0.0567
 1282ERGO    C216878   9.282  14.068   7.541  0.0726 -0.0515  0.4296
 1283ERGO   ROH16879   4.141  11.142   6.487 -0.0850 -0.1885  0.1258
 1283ERGO    R116880   4.261  10.934   6.638  0.1450  0.0391  0.2656
 1283ERGO    R216881   4.454  10.981   6.829 -0.0794  0.4058  0.4093
 1283ERGO    R316882   4.284  10.842   6.989  0.0227  0.1563  0.3063
 1283ERGO    R416883   4.551  10.775   7.089  0.0815  0.2658  0.2412
 1283ERGO    R516884   4.396  10.634   7.029  0.1760  0.2007  0.1340
 1283ERGO    C116885   4.448  10.524   7.390  0.2711 -0.0497  0.0466
 1283ERGO    C216886   4.379  10.554   7.699  0.1892  0.1493  0.0589
 1284ERGO   ROH16887  16.154   9.667  10.132  0.0745  0.2392 -0.1630
 1284ERGO    R116888  16.015   9.617   9.891  0.0823  0.2697 -0.1729
 1284ERGO    R216889  15.982   9.810   9.695  0.3568  0.2033 -0.2840
 1284ERGO    R316890  16.092   9.620   9.535  0.1816 -0.0110 -0.1571
 1284ERGO    R416891  15.965   9.808   9.350  0.2868 -0.0506 -0.2811
 1284ERGO    R516892  15.934   9.592   9.358  0.1214 -0.0274 -0.1050
 1284ERGO    C116893  16.058   9.628   8.999  0.0816 -0.3994 -0.1603
 1284ERGO    C216894  16.112   9.617   8.611 -0.0920  0.1305  0.1428
 1285ERGO   ROH16895  17.550   1.559   6.740  0.2023  0.0317  0.0010
 1285ERGO    R116896  17.675   1.529   6.992  0.1906  0.0639  0.0130
 1285ERGO    R216897  17.812   1.735   7.116  0.0988  0.1182  0.0483
 1285ERGO    R316898  17.644   1.681   7.321  0.0918  0.0305  0.0163
 1285ERGO    R416899  17.849   1.853   7.438  0.1062 -0.0804  0.1192
 1285ERGO    R516900  17.787   1.658   7.512  0.0751 -0.1030  0.0044
 1285ERGO    C116901  17.712   1.870   7.820  0.1036 -0.2785  0.1305
 1285ERGO    C216902  17.751   1.977   8.132 -0.4994  0.2026 -0.1346
 1286W        W16903  13.284  14.956  16.692  0.0649 -0.3339  0.0817
 1287W        W16904  16.638   6.281  16.245 -0.1430 -0.1800 -0.0685
 1288W        W16905   5.899   0.923   2.617 -0.0509 -0.2077 -0.0853
 1289W        W16906  13.465  13.832   0.742 -0.0626 -0.0098  0.1243
 1290W        W16907  15.561   8.702   0.138  0.2116  0.3441 -0.1355
 1291W        W16908   1.762  11.398  14.933 -0.0467  0.0464 -0.1147
 1292W        W16909  12.415   1.260  13.953 -0.3383 -0.1951  0.2734
 1293W        W16910   5.094   0.452   2.864 -0.0211  0.0542 -0.0063
 1294W        W16911  12.199   5.805  15.671 -0.0883  0.0533 -0.0438
 1295W        W16912   2.815   5.814   2.213 -0.1144 -0.4912  0.1032
 1296W        W16913   4.558   1.831  11.637 -0.3450  0.2984 -0.0170
 1297W        W16914  13.140   5.852  12.367  0.0963 -0.0403 -0.0037
 1298W        W16915  13.534   1.181   2.969  0.0733 -0.1372  0.3245
 1299W        W16916  11.896   0.787  16.318 -0.0161  0.0303  0.0948
 1300W        W16917  16.548  11.620   0.644 -0.0634 -0.0798  0.1905
 1301W        W16918  10.610  14.995   0.789 -0.0802 -0.0505 -0.1715
 1302W        W16919  15.261  12.983  15.471  0.3069 -0.1027  0.1785
 1303W        W16920   8.612  10.706   0.673  0.2645 -0.0095 -0.0606
 1304W        W16921   9.770   8.146  16.447 -0.3927  0.1477 -0.1887
 1305W        W16922  14.785  14.818   2.531  0.2691 -0.2167  0.1262
 1306W        W16923   3.762  13.563   4.139  0.2081  0.1585  0.2938
 1307W        W16924   7.146   2.313  14.695  0.3861 -0.0609  0.1637
 1308W        W16925   4.674   2.199   0.331  0.0810  0.2191 -0.3304
 1309W        W16926  14.681  14.411  12.800  0.4431 -0.0924  0.0279
 1310W        W16927  12.257   5.243  14.936 -0.2748 -0.1072  0.3043
 1311W        W16928   8.751  12.937  11.279  0.1801  0.2210 -0.0648
 1312W        W16929   9.492  10.866  16.410  0.2093 -0.1218  0.1768
 1313W        W16930   0.045   3.160  14.453 -0.0883  0.2050  0.2386
 1314W        W16931  14.992   6.616   1.951  0.5201 -0.0336 -0.3510
 1315W        W16932   1.997  13.236  14.111  0.0426 -0.1935 -0.2356
 1316W        W16933   3.562   1.212  13.479  0.0950 -0.4274 -0.0565
 1317W        W16934  12.696  10.071  15.870  0.0788  0.0549 -0.2223
 1318W        W16935  15.211  16.847  16.103  0.0232  0.0145  0.2954
 1319W        W16936   1.595   7.860   0.733  0.0453 -0.2128  0.1850
 1320W        W16937   1.575   8.568   4.310  0.0841 -0.0559 -0.3090
 1321W        W16938  12.139  12.924   2.121  0.4755 -0.1641  0.0523
 1322W        W16939  11.027   9.877   4.416  0.0864  0.0152 -0.0591
 1323W        W16940   4.419  12.373  13.542 -0.2938 -0.1555  0.0725
 1324W        W16941  17.804   3.478   2.134  0.0413 -0.0290  0.3440
 1325W        W16942  14.621   2.502   3.204  0.2240  0.0186 -0.0124
 1326W        W16943  17.074   3.251   3.017 -0.0636 -0.2430  0.2097
 1327W        W16944  14.323  10.358   4.287  0.1674  0.0733  0.1404
 1328W        W16945  12.863   7.260   0.002  0.1901 -0.4217  0.2488
 1329W        W16946  12.335   7.850  15.892 -0.0104  0.1687  0.1624
 1330W        W16947   2.173  11.891   2.679 -0.2769 -0.0164  0.3596
 1331W        W16948  13.435  17.888   2.489 -0.0486 -0.0360 -0.1672
 1332W        W16949   8.475   8.710  11.927  0.1306 -0.1516 -0.0184
 1333W        W16950   8.435  17.976  14.682  0.0200  0.0902 -0.0119
 1334W        W16951   6.936  12.015   1.573  0.2163 -0.1743  0.2147
 1335W        W16952  14.510   8.868  13.894 -0.3126 -0.1709 -0.0660
 1336W        W16953   6.362  10.319  11.415  0.0188  0.0453 -0.0932
 1337W        W16954  16.439  14.938   1.954 -0.2055  0.0760 -0.0416
 1338W        W16955   6.227  12.902  10.599  0.3248  0.1872  0.0577
 1339W        W16956  15.910  13.203   4.263 -0.2090 -0.1315 -0.0620
 1340W        W16957   6.628   9.282  12.512 -0.0766  0.2104 -0.0689
 1341W        W16958  11.092  16.088  15.524 -0.0030  0.1126 -0.0010
 1342W        W16959   4.387  14.060   2.961  0.0993  0.2101 -0.0207
 1343W        W16960   7.176   2.025   6.152  0.2564 -0.1937  0.2054
 1344W        W16961   6.219  15.775   0.877  0.3081 -0.1788  0.2652
 1345W        W16962   9.990  12.346   2.752  0.1969  0.0357  0.3754
 1346W        W16963  14.402   4.563   2.131 -0.0197 -0.2509 -0.0101
 1347W        W16964   1.027  16.317   3.522  0.3696  0.2463 -0.0533
 1348W        W16965  16.828   5.387   5.372 -0.1920 -0.0125 -0.0635
 1349W        W16966   5.893   7.372  14.096 -0.4265  0.0723  0.0414
 1350W        W16967  15.110   0.752  11.941  0.0542 -0.1481 -0.3278
 1351W        W16968  17.095  15.171  11.883  0.1756 -0.0887 -0.1677
 1352W        W16969  16.597   3.982   4.865  0.0639  0.0553  0.0609
 1353W        W16970   4.707   8.914   3.078 -0.4394  0.1795 -0.0718
 1354W        W16971  16.329   4.370  15.604  0.1456  0.5156  0.0278
 1355W        W16972  10.854   7.520   0.084  0.1047  0.0343 -0.0419
 1356W        W16973  17.750  13.453   3.892 -0.2761 -0.4622 -0.0273
 1357W        W16974  11.899  14.795  14.966 -0.0389  0.0769 -0.0078
 1358W        W16975   9.676   7.210  12.496 -0.2467  0.0358  0.0899
 1359W        W16976  13.008   8.227   0.031 -0.1713  0.0897  0.1003
 1360W        W16977  11.091   5.876  16.041  0.1653  0.4434  0.0913
 1361W        W16978   1.750  15.110   4.293  0.0449  0.2898  0.1785
 1362W        W16979  17.772   8.310   1.920 -0.0986 -0.0416  0.1617
 1363W        W16980  13.967  11.003  13.385  0.1196  0.1908 -0.0212
 1364W        W16981  17.518  15.015   4.430 -0.4231  0.3337 -0.0057
 1365W        W16982   1.436   5.249  16.473 -0.0816 -0.0797  0.0419
 1366W        W16983   2.751   2.767   1.128 -0.2514 -0.3943  0.1002
 1367W        W16984   6.761  13.269   3.285  0.4309 -0.0421  0.3988
 1368W        W16985   8.013   6.620  15.421  0.1136 -0.2011  0.0083
 1369W        W16986  10.750  15.025  11.420  0.0180  0.1743 -0.1646
 1370W        W16987  12.120  13.148   3.592  0.0274 -0.3920  0.0824
 1371W        W16988   5.317  17.611   1.261  0.0058  0.1544 -0.1328
 1372W        W16989   3.308   1.742   4.357 -0.2562 -0.2526 -0.1702
 1373W        W16990  11.521  13.324   5.305 -0.0647  0.5687 -0.0456
 1374W        W16991   9.644   7.941   0.091  0.0621 -0.1039 -0.0121
 1375W        W16992  13.923   6.710   5.050 -0.1321  0.3974  0.0483
 1376W        W16993  10.909   1.341  14.387  0.0904 -0.1177  0.3321
 1377W        W16994  17.620   3.251  14.593 -0.0874  0.0496  0.1669
 1378W        W16995  14.138   7.094  12.964 -0.1315 -0.0736  0.0078
 1379W        W16996  13.165  16.560   1.809  0.0756  0.2080  0.1142
 1380W        W16997   7.391  13.254   3.168 -0.0366  0.2864  0.0891
 1381W        W16998  11.906   6.619  14.208  0.0600  0.3596  0.0726
 1382W        W16999   7.457  14.291   5.737 -0.0737 -0.2615 -0.0320
 1383W        W17000   0.555  11.956  15.699  0.0828  0.5195 -0.3192
 1384W        W17001   4.406  10.599  14.776  0.0710 -0.1349 -0.1805
 1385W        W17002   8.201   1.548  12.354 -0.0654 -0.0825  0.1561
 1386W        W17003  14.733  11.943  16.028 -0.2687 -0.3631 -0.3362
 1387W        W17004   7.084   8.289  12.379 -0.0994  0.0557 -0.0765
 1388W        W17005   5.514   1.992  12.245 -0.2939  0.1313  0.2302
 1389W        W17006   1.672  16.590   2.527 -0.2735  0.0895 -0.0552
 1390W        W17007  16.785   4.035   0.134 -0.1691 -0.0893 -0.0759
 1391W        W17008   2.371  12.080   2.128 -0.2338  0.3445  0.2577
 1392W        W17009  13.070  15.704   0.747 -0.1206  0.0325 -0.1693
 1393W        W17010  11.996   7.467   6.599 -0.4196 -0.1065 -0.1238
 1394W        W17011   8.157  18.023   4.703 -0.1144 -0.0287  0.2944
 1395W        W17012  15.702   6.911  12.102 -0.0995  0.0135 -0.3274
 1396W        W17013   4.824   8.242   0.496 -0.0682  0.2270 -0.1763
 1397W        W17014   2.348   0.775  13.024 -0.1117  0.1478  0.1053
 1398W        W17015   5.749  16.557   2.686 -0.0400 -0.4908  0.2933
 1399W        W17016  14.808   7.590  12.664  0.3158 -0.0465  0.1064
 1400W        W17017   8.912   0.556  16.120 -0.2559  0.2123 -0.1979
 1401W        W17018  10.612  13.188  14.700  0.2078  0.0633  0.1967
 1402W        W17019  11.048   5.762   2.485  0.1865  0.0248 -0.0774
 1403W        W17020  16.043   3.670  14.297  0.0109 -0.0266  0.1607
 1404W        W17021  14.089  10.921  14.066  0.1808 -0.0901  0.1355
 1405W        W17022   9.351  16.778   1.679  0.2278  0.0324 -0.1015
 1406W        W17023  15.157   0.771   2.422  0.1030 -0.0593 -0.0896
 1407W        W17024  13.701  16.526  16.775 -0.2202  0.1921  0.3495
 1408W        W17025   9.076   0.122   1.149  0.0591 -0.0720  0.0227
 1409W        W17026  10.783  12.263   5.929 -0.0951  0.0215 -0.3401
 1410W        W17027   6.434   3.952  15.508  0.1753 -0.1389  0.3262
 1411W        W17028   5.005   9.735   2.228 -0.2054 -0.1586  0.3439
 1412W        W17029   6.915  15.601   0.907 -0.2660 -0.3050  0.2239
 1413W        W17030  10.254   3.465   1.542 -0.4445 -0.2584  0.2341
 1414W        W17031  12.222  15.147   4.215 -0.1364  0.2068 -0.1433
 1415W        W17032  11.624   1.795  15.042 -0.0845  0.0897 -0.1433
 1416W        W17033  16.029   5.906  13.163  0.3945 -0.0178 -0.0257
 1417W        W17034  15.257  15.718   3.712 -0.1106 -0.2953 -0.0525
 1418W        W17035   1.152  12.843   5.095  0.1379 -0.3401  0.1170
 1419W        W17036   6.309   3.397  14.107  0.1512 -0.0712  0.0726
 1420W        W17037  14.661   2.754  13.647 -0.2073  0.0545  0.3957
 1421W        W17038  16.808  11.702   2.573  0.1520 -0.0557 -0.0912
 1422W        W17039   9.535  16.929  15.133  0.0659  0.0598 -0.4371
 1423W        W17040   4.379  18.021  14.246  0.1305  0.1543 -0.1184
 1424W        W17041   1.748  17.673   4.998  0.1041 -0.0400  0.3040
 1425W        W17042  10.357   2.276   2.654  0.1479  0.0161  0.0285
 1426W        W17043   4.972  10.946   5.000  0.2675  0.0878 -0.0645
 1427W        W17044   2.964   1.424   3.220  0.0170  0.0494  0.0316
 1428W        W17045   0.643  13.023   5.089  0.1113 -0.0044  0.1467
 1429W        W17046   1.612   1.071  11.109 -0.0422 -0.0870  0.1667
 1430W        W17047  17.571  16.185  15.622 -0.1167 -0.0004 -0.0754
 1431W        W17048   5.733   2.134  14.710  0.0077  0.0284  0.2477
 1432W        W17049  15.565  14.608   3.786 -0.1323  0.0584  0.0554
 1433W        W17050  14.659   8.526   2.802 -0.2369 -0.3077  0.1305
 1434W        W17051   6.246   0.611   1.424  0.1899  0.1275 -0.1322
 1435W        W17052   9.701   6.566   3.527  0.0659 -0.2358  0.3086
 1436W        W17053   2.776   7.214  16.722 -0.1333 -0.1271 -0.1021
 1437W        W17054   4.732   2.012   3.905  0.1449 -0.1341  0.2592
 1438W        W17055  12.896   2.491   2.956  0.0743 -0.0289 -0.1250
 1439W        W17056  16.188   8.478   4.083  0.1637 -0.0648 -0.0022
 1440W        W17057  10.426   7.177  14.368  0.4196 -0.1817  0.2113
 1441W        W17058   7.226  12.083  11.448  0.1360 -0.0134 -0.2399
 1442W        W17059  10.082   2.672   2.849 -0.2445  0.2981 -0.0977
 1443W        W17060   6.083  12.060  13.486  0.2934  0.2081  0.0531
 1444W        W17061   8.553  16.273   1.572  0.1102  0.3099  0.1826
 1445W        W17062  11.969   4.704   4.192 -0.2528 -0.3312 -0.1908
 1446W        W17063   7.265   7.710   1.763 -0.0728  0.1767  0.1957
 1447W        W17064   2.929  10.174   3.315 -0.2708  0.3202  0.0143
 1448W        W17065  11.819   9.054  13.956 -0.0715 -0.1645 -0.2293
 1449W        W17066  14.140  13.138  14.725  0.0385 -0.0606  0.4064
 1450W        W17067  16.812   3.632   5.753 -0.3059  0.1594 -0.0044
 1451W        W17068  17.938   2.862  16.393  0.2549  0.4655  0.1787
 1452W        W17069  12.368   7.832   5.042  0.3695  0.3089 -0.4284
 1453W        W17070  12.482   0.285  15.822  0.0211  0.4940 -0.2181
 1454W        W17071  13.273   5.593   1.266  0.0992  0.3054  0.0086
 1455W        W17072   5.189  11.334  11.177 -0.0515 -0.2635 -0.1378
 1456W        W17073   3.363  12.425   4.740  0.0533  0.2436  0.1574
 1457W        W17074   9.861   0.874  12.363  0.2056 -0.2301  0.0449
 1458W        W17075   1.709   1.859   0.772  0.1970  0.0772 -0.1549
 1459W        W17076  12.858   2.328  12.620  0.0521 -0.0139 -0.3725
 1460W        W17077  16.971  11.546  15.895  0.1868 -0.3623  0.0909
 1461W        W17078  14.113  16.737   2.124 -0.0191  0.0224  0.0176
 1462W        W17079   5.687   2.497  16.785  0.1012  0.1854 -0.0838
 1463W        W17080   3.014   8.508   2.097  0.0711 -0.3597 -0.4873
 1464W        W17081  14.529   6.759  13.038  0.0639 -0.0153 -0.1918
 1465W        W17082  12.921   7.192  12.138  0.0047 -0.1893  0.1864
 1466W        W17083  17.936   0.516   1.926  0.0808 -0.1231  0.0998
 1467W        W17084  10.430  10.601  12.527  0.2912 -0.0595  0.0624
 1468W        W17085  11.039   6.880   1.691  0.1217 -0.0993  0.2170
 1469W        W17086   3.932   1.624  14.333 -0.0483 -0.3296  0.3418
 1470W        W17087  17.006   4.855  16.559 -0.1921 -0.2093  0.2323
 1471W        W17088   6.543  10.559   2.755  0.2749  0.0139 -0.1248
 1472W        W17089  11.212  15.786   5.077  0.0195 -0.1242 -0.0372
 1473W        W17090  14.004  11.783  16.627 -0.2047  0.0221 -0.2231
 1474W        W17091  14.135   1.275   6.043  0.0973 -0.3127  0.1500
 1475W        W17092  11.402  10.144   4.179  0.3171  0.0516  0.0655
 1476W        W17093  16.897   6.062  13.679 -0.1622 -0.0214  0.1871
 1477W        W17094   3.150  12.267  12.662  0.1156  0.1450  0.0193
 1478W        W17095   5.176   5.567   5.765 -0.0272 -0.2703 -0.0554
 1479W        W17096  13.932   0.357  12.301 -0.0942 -0.1366  0.0563
 1480W        W17097  18.024   9.315  12.138  0.2247 -0.0567  0.1891
 1481W        W17098   7.657  12.636   2.321  0.0622  0.0055 -0.0103
 1482W        W17099  10.469   0.176   4.551 -0.1854 -0.1123  0.1507
 1483W        W17100   4.481  16.644  15.979  0.0248  0.0990 -0.0002
 1484W        W17101  14.741   3.473  15.909  0.3175  0.0313  0.2660
 1485W        W17102  16.126  13.166   3.765 -0.5211  0.2617 -0.1317
 1486W        W17103   7.689   0.177  14.977  0.0386 -0.0228  0.0866
 1487W        W17104   3.359   2.979   2.079 -0.2484  0.0054  0.0301
 1488W        W17105  10.960   6.279   1.595 -0.1095 -0.0055 -0.2492
 1489W        W17106  13.795  13.853  14.443 -0.1514 -0.2314  0.4434
 1490W        W17107  14.772   1.819   4.378  0.2392 -0.0060 -0.2515
 1491W        W17108   1.198  13.102   6.092  0.1487  0.1678 -0.2178
 1492W        W17109  12.459  15.485   1.562  0.2577  0.0199 -0.2518
 1493W        W17110   6.230   0.921   1.033 -0.3284  0.0726 -0.1244
 1494W        W17111  15.391  17.087   0.200 -0.0130  0.0358  0.0729
 1495W        W17112   7.434  10.412  12.276 -0.1199  0.3657 -0.0656
 1496W        W17113   2.759   0.238  11.989 -0.2595  0.1063 -0.1941
 1497W        W17114   6.523   6.084   3.534 -0.0802 -0.1232 -0.0773
 1498W        W17115   0.435   2.198   2.704  0.1314  0.0510  0.0073
 1499W        W17116   0.436  12.800   0.032 -0.0167 -0.2073 -0.1745
 1500W        W17117  10.460   1.539  15.054  0.1155  0.0217 -0.2274
 1501W        W17118   2.355   6.838  13.775  0.0173  0.1227 -0.4733
 1502W        W17119  13.283  15.378  11.430  0.1250  0.1471  0.1042
 1503W        W17120   9.574  12.352   4.038 -0.0244 -0.1472  0.0528
 1504W        W17121   8.273   3.554  11.379  0.2059  0.3034  0.0894
 1505W        W17122  12.426   9.460  14.670 -0.1053  0.0931  0.0871
 1506W        W17123   0.259   5.140   0.949 -0.3649 -0.0378  0.0845
 1507W        W17124  11.049  12.868   0.610 -0.0524  0.1491 -0.2384
 1508W        W17125   8.540   3.668  10.133 -0.1318 -0.0699  0.3031
 1509W        W17126  13.268   7.358   4.125 -0.4032  0.2807  0.4239
 1510W        W17127  10.868  13.191  16.637  0.0447  0.2375  0.2944
 1511W        W17128  18.047  17.645   6.307 -0.0995 -0.0377  0.2019
 1512W        W17129   4.896  16.341  13.860  0.1814 -0.0902 -0.0660
 1513W        W17130  11.642   9.954  16.251  0.6057  0.2278 -0.1380
 1514W        W17131   2.150   3.278  12.381 -0.0224  0.1839  0.0378
 1515W        W17132   8.378   7.265   4.179 -0.2189 -0.0647  0.1705
 1516W        W17133   0.787  12.113  13.255 -0.2246 -0.0061 -0.0287
 1517W        W17134  17.605   1.885  14.391  0.0505 -0.2226 -0.2185
 1518W        W17135  14.780   3.656  13.114 -0.2937 -0.1781  0.3476
 1519W        W17136   3.468   8.802  11.640  0.3376  0.1602  0.0866
 1520W        W17137   5.102   3.266   1.071  0.0463 -0.3342  0.4714
 1521W        W17138  10.703   8.828   4.228  0.1400  0.1450  0.2305
 1522W        W17139  13.997   7.823   0.585  0.2981 -0.0533  0.0971
 1523W        W17140  15.288  10.105  15.186  0.2111 -0.2310  0.0486
 1524W        W17141   7.271  11.811   0.057  0.4459 -0.2264  0.1071
 1525W        W17142  16.343  16.041  14.450 -0.0200  0.2082  0.1041
 1526W        W17143  17.348   8.329  11.548 -0.1499 -0.0968  0.3542
 1527W        W17144  13.678  11.653   1.307  0.1110  0.0260 -0.2575
 1528W        W17145   8.547   6.522  16.285  0.1426  0.0459 -0.0842
 1529W        W17146   5.060   2.874  13.764 -0.1504  0.1113 -0.1075
 1530W        W17147   7.106  17.749  13.745  0.1438 -0.1054 -0.0163
 1531W        W17148  15.559   8.105  15.247  0.1201 -0.0738 -0.1743
 1532W        W17149   8.140   2.726  13.233  0.0939  0.2698  0.0938
 1533W        W17150   3.946  13.682  15.049 -0.1126 -0.3620 -0.1357
 1534W        W17151  13.015  16.879  12.395  0.2842 -0.0404  0.1043
 1535W        W17152  16.021   9.069  12.500 -0.0483 -0.0779  0.2828
 1536W        W17153  15.790  11.623   0.698 -0.3296  0.1944  0.0577
 1537W        W17154   9.676   1.498   5.705  0.0738  0.1779  0.2022
 1538W        W17155   6.356   8.799  12.647 -0.1411 -0.3135 -0.0236
 1539W        W17156  17.704  15.719   1.400  0.1762  0.0527  0.2065
 1540W        W17157  15.094   6.054   4.869  0.2839  0.2110 -0.2399
 1541W        W17158   4.330  11.394  12.756 -0.0585 -0.1832 -0.2803
 1542W        W17159  11.673  13.149  10.905  0.0839  0.5104  0.2520
 1543W        W17160  12.724   4.082   1.018  0.2294  0.0126 -0.1152
 1544W        W17161   5.567  14.309   0.004  0.0108  0.2801 -0.1278
 1545W        W17162   0.060  13.063   2.794  0.0601 -0.1252  0.1227
 1546W        W17163   9.738   8.118  11.584  0.0989  0.1116 -0.0973
 1547W        W17164  12.303   9.904  12.397  0.1958  0.0305  0.1238
 1548W        W17165  12.997  17.849  14.467 -0.2340  0.0262  0.0910
 1549W        W17166   8.948   1.966   2.593  0.4358  0.1172 -0.3239
 1550W        W17167  17.415   0.840   2.974 -0.2851 -0.2510 -0.0099
 1551W        W17168  11.311   4.279   1.038  0.1500 -0.1902 -0.1987
 1552W        W17169   4.325  17.197  11.912  0.2945  0.1083 -0.2347
 1553W        W17170  13.169  15.709  13.323  0.0524 -0.1629 -0.1339
 1554W        W17171   9.804  16.786  11.845  0.2046  0.0017  0.0970
 1555W        W17172  13.815   7.031   0.133  0.2345  0.0902  0.1988
 1556W        W17173   5.350   1.199  12.749  0.2905  0.0118 -0.1420
 1557W        W17174   9.178   7.875  14.391 -0.0598  0.3628  0.1527
 1558W        W17175   1.185   9.592   3.813 -0.0131 -0.1195  0.1348
 1559W        W17176   4.966   9.208   0.677 -0.1845  0.1462 -0.3435
 1560W        W17177   3.967   0.085  15.289 -0.2835 -0.3582  0.0962
 1561W        W17178   5.456   0.565   4.793  0.2152  0.5672 -0.2017
 1562W        W17179   6.582   0.406   0.590 -0.3372 -0.0541  0.1092
 1563W        W17180  16.099   5.421   5.084 -0.0032  0.3073  0.2354
 1564W        W17181  17.261   6.365  12.839 -0.0795 -0.0935  0.2025
 1565W        W17182  16.060  12.330   3.588 -0.0995  0.2122  0.2936
 1566W        W17183   8.401   8.212  11.067  0.2290 -0.1602 -0.2109
 1567W        W17184  10.944   3.475  15.437  0.1327  0.1777  0.0607
 1568W        W17185   1.412   8.982  16.134  0.0664  0.1284 -0.5076
 1569W        W17186   2.062  10.236   0.255  0.0853 -0.1534  0.2584
 1570W        W17187   7.565   6.563   5.821 -0.1565 -0.0320  0.0405
 1571W        W17188   9.460   0.627   2.467 -0.0061 -0.2246 -0.2672
 1572W        W17189  16.685   6.061   5.914 -0.1403 -0.2943 -0.0573
 1573W        W17190   0.092  12.472  11.790 -0.2986  0.0791  0.1477
 1574W        W17191  12.806   0.497  12.476  0.0599 -0.2530 -0.0797
 1575W        W17192   0.114  17.929   1.241  0.0313 -0.1912  0.1668
 1576W        W17193  13.578  11.183  13.673  0.1393  0.0696  0.0634
 1577W        W17194   7.231   0.731  15.992 -0.3045  0.0356  0.3307
 1578W        W17195   1.393   4.163  16.254 -0.1928 -0.3118 -0.2452
 1579W        W17196   4.954  12.437  11.241 -0.1447 -0.1824 -0.0580
 1580W        W17197   4.174   7.027  12.890  0.0058  0.0593 -0.1008
 1581W        W17198   5.588   6.086   3.535  0.0826  0.0528  0.1236
 1582W        W17199   2.291   6.761  15.302  0.0171 -0.1887  0.1999
 1583W        W17200  11.324   0.741   2.602 -0.0704  0.0929  0.2415
 1584W        W17201   6.409   1.792  14.167 -0.0002  0.2876 -0.2554
 1585W        W17202   2.970   2.676   3.565  0.0026 -0.0951 -0.1839
 1586W        W17203   4.106   1.217   5.389 -0.2569 -0.0647 -0.0422
 1587W        W17204   8.134  13.993   2.022  0.4016  0.0449 -0.0715
 1588W        W17205   1.873   8.141  15.032 -0.1178 -0.2868 -0.3899
 1589W        W17206  17.930  15.840  14.703  0.3193 -0.2545 -0.4859
 1590W        W17207  14.741   9.070  13.296  0.1160  0.1058  0.1758
 1591W        W17208  10.086   0.465  11.458  0.2233  0.4152  0.0235
 1592W        W17209   7.721  12.471   0.603  0.2852  0.2295 -0.1444
 1593W        W17210  17.457  11.645   5.744  0.1714  0.3163 -0.0739
 1594W        W17211  17.072  13.039   0.577 -0.3226  0.0589  0.0217
 1595W        W17212  17.180  17.249  13.480  0.1296  0.0770  0.1219
 1596W        W17213   4.954   7.745   4.664 -0.0897 -0.0234 -0.0357
 1597W        W17214   9.774   8.572  13.553  0.1683 -0.1101  0.0635
 1598W        W17215   5.414  16.376  10.606 -0.2212  0.0686  0.0187
 1599W        W17216  10.557   4.734  13.856  0.0253  0.0927  0.0279
 1600W        W17217  12.375  10.765  16.317  0.0880 -0.0829 -0.2963
 1601W        W17218  12.642   3.619   6.163  0.0066 -0.2346 -0.0881
 1602W        W17219  13.914  13.533  12.159 -0.0449  0.2098 -0.0325
 1603W        W17220   8.772   6.396  16.776 -0.3103 -0.1665  0.0886
 1604W        W17221  16.006   3.509  11.541  0.0468  0.0912 -0.2267
 1605W        W17222   1.884  13.483   1.614  0.0046 -0.1071  0.0452
 1606W        W17223  17.395  15.400  15.847  0.0775 -0.0345  0.0788
 1607W        W17224  17.215   3.312  14.896 -0.3769  0.0921 -0.1188
 1608W        W17225   4.146   7.093   3.971 -0.1492 -0.1415  0.1983
 1609W        W17226   3.532  16.956  11.939 -0.0272 -0.1001  0.2275
 1610W        W17227  12.433  14.020   0.078  0.1283  0.0895 -0.1564
 1611W        W17228   1.484   2.225  16.516 -0.0910  0.2176  0.1147
 1612W        W17229   5.608  10.928   2.744 -0.1476  0.1973  0.5379
 1613W        W17230  17.811  15.110   0.237  0.3163 -0.0405 -0.1196
 1614W        W17231  14.291   7.513   5.489 -0.1956  0.1663  0.2471
 1615W        W17232  15.513   3.783   3.871 -0.2233  0.1417  0.1639
 1616W        W17233  14.407   4.197  11.708 -0.0790  0.1115  0.2497
 1617W        W17234   3.528  17.907   5.093 -0.1717  0.0885  0.0401
 1618W        W17235  11.913  11.776  16.784  0.0991 -0.0019  0.0844
 1619W        W17236   0.835  11.229  14.655  0.2308  0.0902 -0.1501
 1620W        W17237   1.697   2.064  13.413 -0.3733  0.1502 -0.2124
 1621W        W17238  11.952   8.599  14.070  0.1444  0.0201 -0.3613
 1622W        W17239  11.039  13.218  14.195 -0.0570  0.2028 -0.0417
 1623W        W17240   1.592   6.299  13.004  0.0630  0.0853  0.0991
 1624W        W17241  13.153   2.079  14.704  0.1980  0.4080  0.0378
 1625W        W17242   3.735   1.561  12.424  0.2124  0.0024 -0.1900
 1626W        W17243  13.746   1.129  13.279 -0.0703 -0.0477  0.2995
 1627W        W17244   5.534  16.409  11.904 -0.1143 -0.0276  0.4154
 1628W        W17245   1.038  10.030  12.814 -0.5116 -0.1991  0.3134
 1629W        W17246  10.242  16.341  14.150  0.0757 -0.0496  0.0526
 1630W        W17247   1.068  13.322  16.136 -0.3504 -0.0208 -0.2390
 1631W        W17248  16.537   5.768  13.854  0.1475  0.2449  0.0544
 1632W        W17249   5.426  10.943   5.246 -0.2024  0.0459  0.0946
 1633W        W17250  11.704   8.135   2.066 -0.1966 -0.0621  0.2673
 1634W        W17251   2.318   6.471  14.821  0.0995  0.3158 -0.2359
 1635W        W17252   8.943   1.577  11.648  0.2540 -0.1184  0.1877
 1636W        W17253  11.876  14.468  13.024  0.2119  0.1139  0.3225
 1637W        W17254  16.494   3.461   0.744 -0.1218  0.1833 -0.3274
 1638W        W17255  11.929   5.771   0.501 -0.0051 -0.3598  0.4529
 1639W        W17256   2.824   1.416  16.160  0.0985 -0.0838  0.2281
 1640W        W17257  17.626   2.113  11.879 -0.1078  0.2767 -0.3201
 1641W        W17258  10.894   5.528   0.178 -0.2367 -0.4696 -0.3322
 1642W        W17259  13.753  14.177   5.784 -0.3577 -0.2975  0.0910
 1643W        W17260   5.824  14.932  12.068 -0.2032  0.0228 -0.1161
 1644W        W17261  11.736  17.174  13.750  0.0699 -0.0277 -0.1971
 1645W        W17262  13.475   3.317  14.250  0.0490  0.1175 -0.1320
 1646W        W17263   8.613   8.110  12.035 -0.0824 -0.0584 -0.1328
 1647W        W17264   1.410  13.263   5.112 -0.0963  0.0159 -0.1773
 1648W        W17265  11.450   7.974   2.576 -0.1459  0.0382  0.0996
 1649W        W17266   7.495  17.097  12.089  0.0814  0.1968 -0.0524
 1650W        W17267  11.600   4.856   5.282  0.0570 -0.0962  0.0616
 1651W        W17268  11.362   9.666   0.629  0.2301 -0.0717  0.2245
 1652W        W17269  12.218  13.817   4.534 -0.0772 -0.0994 -0.0080
 1653W        W17270  10.232   3.701  13.702  0.1032  0.0554  0.0391
 1654W        W17271   2.717   3.992  13.598  0.4998 -0.2229 -0.1050
 1655W        W17272  11.976   9.030  13.406  0.1592  0.0931 -0.0757
 1656W        W17273   6.401  12.909  11.227 -0.3121  0.0520  0.1210
 1657W        W17274  13.326   9.721   5.448 -0.1489  0.2252  0.1102
 1658W        W17275  12.522   6.009   0.316 -0.2311  0.0936  0.1756
 1659W        W17276   7.988   8.574  13.501 -0.2836 -0.1566  0.0727
 1660W        W17277   7.046   7.232  16.387  0.1093  0.0686  0.1334
 1661W        W17278  10.094  17.737  13.066 -0.0949 -0.1276  0.3743
 1662W        W17279   2.811   0.727  12.892 -0.1548  0.0432 -0.0518
 1663W        W17280   8.891  16.700  12.952 -0.0917 -0.1493 -0.0106
 1664W        W17281   7.942   6.311  12.216  0.0910  0.0289 -0.1338
 1665W        W17282   9.719   1.441  16.361  0.0417  0.0622 -0.2865
 1666W        W17283   7.853  12.065   1.360  0.1246 -0.0988 -0.0148
 1667W        W17284  17.540   8.692  13.193  0.1901 -0.0394  0.0593
 1668W        W17285   8.452   7.261   1.877  0.1818  0.4086 -0.0708
 1669W        W17286   8.071  11.024  15.494  0.1264  0.0616  0.0983
 1670W        W17287  14.251   3.045  13.691 -0.1187 -0.1398  0.0711
 1671W        W17288  11.343  10.814  13.562  0.2359 -0.1032  0.0543
 1672W        W17289  12.626  12.117   2.390 -0.0920 -0.3303  0.2779
 1673W        W17290   3.419  16.069   2.431  0.0900  0.0921  0.1366
 1674W        W17291  10.673   9.265   1.242 -0.1922 -0.0563 -0.0883
 1675W        W17292  10.238   7.241   2.806  0.1459 -0.0059  0.0333
 1676W        W17293   8.444  16.865   2.785 -0.0766 -0.0537  0.1950
 1677W        W17294  14.905  13.343  16.372  0.1128 -0.1633 -0.1688
 1678W        W17295   8.064  11.452  14.950 -0.0424  0.4698 -0.2735
 1679W        W17296   4.945   7.297   3.532 -0.0948 -0.1745 -0.2926
 1680W        W17297   7.388  13.677  15.675 -0.2041  0.0961  0.2574
 1681W        W17298  14.819  12.815  13.802  0.0994 -0.0078  0.0706
 1682W        W17299   8.779  15.526  12.327 -0.1239 -0.0706  0.3192
 1683W        W17300  17.602  12.290  13.575 -0.1457 -0.1628  0.1945
 1684W        W17301   3.107  13.408   0.387  0.0007 -0.0607  0.0073
 1685W        W17302  11.481  11.392   1.674 -0.0316  0.0406  0.1992
 1686W        W17303  14.396   9.151  16.605 -0.1574 -0.1282 -0.0575
 1687W        W17304  10.003   1.755  12.277  0.3904  0.0999 -0.2452
 1688W        W17305   4.172  14.541   2.947  0.0891 -0.3177  0.0300
 1689W        W17306   3.321  15.100   2.974 -0.3203  0.2957 -0.1429
 1690W        W17307  11.792  17.258   3.898 -0.0218  0.2487 -0.0620
 1691W        W17308  11.458  14.302   2.443 -0.0131  0.3135 -0.3664
 1692W        W17309  12.903   9.621  16.315 -0.3276  0.0684  0.0962
 1693W        W17310   7.400   2.737   2.266 -0.1031  0.4246 -0.0894
 1694W        W17311   9.298   5.380  11.492 -0.2472 -0.0149 -0.2879
 1695W        W17312   3.166   0.566  12.038 -0.1324  0.0319 -0.1278
 1696W        W17313  13.722  13.095  13.194 -0.0931  0.0766 -0.1241
 1697W        W17314   7.210  17.995  12.716  0.0519 -0.0833 -0.0570
 1698W        W17315   8.148  10.239  14.836  0.0500  0.0457  0.1332
 1699W        W17316  14.461   4.194   4.212 -0.1026 -0.2159 -0.0126
 1700W        W17317  12.550   4.993   5.644  0.0112 -0.1473 -0.1034
 1701W        W17318   8.021  17.111   4.491  0.2705  0.0192 -0.0468
 1702W        W17319   5.570  16.785   5.214  0.1660 -0.0372 -0.0850
 1703W        W17320   4.998   5.022   4.919 -0.3457 -0.1053 -0.0648
 1704W        W17321   4.754   1.897  15.543 -0.2202  0.1852 -0.1767
 1705W        W17322  10.852   5.568  14.408 -0.0697 -0.1778  0.0291
 1706W        W17323   1.208   7.227  15.198  0.1451  0.0640 -0.1519
 1707W        W17324   7.145   2.450   3.303  0.1410  0.0812  0.1784
 1708W        W17325   4.599   7.787  16.014 -0.3876 -0.1037  0.3045
 1709W        W17326  12.293   6.252  11.815  0.2705  0.3310  0.1050
 1710W        W17327  13.511   2.576  14.958  0.1135  0.0785  0.0738
 1711W        W17328  17.542   7.682   1.865 -0.0501  0.0488  0.1660
 1712W        W17329   3.646  14.757   4.414 -0.2840 -0.1998 -0.1198
 1713W        W17330  17.891   0.592   2.679 -0.0848  0.0073  0.0898
 1714W        W17331  14.688  17.804  14.011  0.1472 -0.1862 -0.0035
 1715W        W17332  11.630   2.874   1.840  0.2227 -0.0908 -0.1458
 1716W        W17333  11.856  17.991   2.772 -0.2476  0.1437 -0.1823
 1717W        W17334   6.114   0.070   6.272 -0.2290 -0.0735 -0.0901
 1718W        W17335   8.689  17.531   1.989  0.1801 -0.1801  0.3367
 1719W        W17336  10.666   0.565  12.986  0.0572 -0.0828  0.1014
 1720W        W17337   9.438  13.921  16.308 -0.0698  0.3044 -0.0867
 1721W        W17338  13.095   1.045   5.374  0.0585 -0.0366 -0.3484
 1722W        W17339  16.038   2.449   3.488 -0.1582  0.1287 -0.0087
 1723W        W17340   4.689   8.920  12.890 -0.1547 -0.1392  0.0613
 1724W        W17341   7.229  17.997  16.400  0.1406 -0.0079 -0.3455
 1725W        W17342   6.483  10.680   5.059  0.2614  0.3093  0.3392
 1726W        W17343   1.684   7.778  13.850  0.0157 -0.2298  0.2391
 1727W        W17344  15.166  15.582   2.235  0.0838 -0.1730 -0.0253
 1728W        W17345  12.724   0.226   1.566  0.0308 -0.1894 -0.2634
 1729W        W17346   6.236  13.397   4.173 -0.2081  0.0015  0.0689
 1730W        W17347   9.597   2.981  12.787 -0.3541 -0.2067  0.0419
 1731W        W17348  17.808  13.095   5.736  0.0997 -0.1222  0.2476
 1732W        W17349   8.893  10.828  11.793 -0.1923  0.2387 -0.1175
 1733W        W17350   4.100   1.342  16.331  0.1036  0.0881  0.2671
 1734W        W17351   2.081  16.572  16.051 -0.1356  0.3810  0.0684
 1735W        W17352   1.097   0.174  12.990  0.1919  0.2427 -0.1719
 1736W        W17353   6.909  14.996   0.230  0.0270  0.0958 -0.0457
 1737W        W17354   1.441   9.838  10.946 -0.0808  0.3438  0.1622
 1738W        W17355  12.341  17.176   5.656 -0.2538 -0.1029  0.0030
 1739W        W17356   9.436  16.384   2.359 -0.0438  0.4632 -0.1796
 1740W        W17357  11.498   2.960   4.772 -0.0161 -0.0272  0.0346
 1741W        W17358  17.462  16.541  11.624 -0.3920 -0.0837  0.0337
 1742W        W17359   8.668   1.221   2.991 -0.0082  0.0305  0.4328
 1743W        W17360   6.856  17.609   3.242 -0.2717  0.5046  0.1236
 1744W        W17361   2.024  14.550  14.731 -0.0657 -0.4624 -0.0712
 1745W        W17362  11.240   5.415   4.261  0.2885 -0.2706 -0.0851
 1746W        W17363   7.317   2.494   6.204 -0.2472  0.1167 -0.3053
 1747W        W17364   7.286  15.666   3.044  0.2010 -0.0293  0.0209
 1748W        W17365   0.598  15.453  13.901 -0.2502 -0.0806  0.4245
 1749W        W17366  12.142  13.717  14.038 -0.0598  0.0397 -0.1222
 1750W        W17367   4.971  14.225  15.715 -0.0909  0.0001 -0.0963
 1751W        W17368   9.023   0.447   2.007  0.1651 -0.3985  0.0064
 1752W        W17369  10.017  17.171  15.995 -0.1105  0.2891  0.1854
 1753W        W17370   7.775  17.220  11.046  0.0160  0.2129  0.1117
 1754W        W17371   1.160   6.038   5.161  0.1040 -0.0734  0.0163
 1755W        W17372   4.508   3.933  14.379 -0.3206  0.1921  0.0460
 1756W        W17373  16.163  12.658   4.714 -0.0252 -0.0284 -0.1090
 1757W        W17374   7.059   2.163   0.265  0.3341 -0.2956 -0.0743
 1758W        W17375  16.518   6.297   5.059  0.2024 -0.0456  0.0370
 1759W        W17376   8.366   2.925  15.006  0.0518 -0.0421 -0.1105
 1760W        W17377   0.583  16.040   1.753  0.0017  0.2575  0.2122
 1761W        W17378   4.984   2.295   4.287 -0.1611  0.1133  0.0360
 1762W        W17379   8.273  12.442  12.067  0.1619  0.1070 -0.4579
 1763W        W17380  16.267   1.022   3.485 -0.3314  0.3514 -0.2883
 1764W        W17381  15.185   1.497   3.333 -0.0857 -0.1490  0.0810
 1765W        W17382   2.653  11.971   2.652  0.3090  0.1659 -0.2403
 1766W        W17383   5.449   9.437   2.280  0.0767 -0.1388 -0.2520
 1767W        W17384  13.928  12.616   0.880  0.2794  0.1777 -0.0351
 1768W        W17385  10.821   6.613   0.014 -0.0457 -0.0006 -0.1108
 1769W        W17386   6.594   8.438  16.444  0.0242  0.0750 -0.0692
 1770W        W17387  17.170  15.149  13.440  0.0705 -0.6121 -0.0056
 1771W        W17388   5.067  13.172  12.876 -0.0512 -0.1123  0.1773
 1772W        W17389   1.438   6.422  12.408 -0.2218  0.0946  0.2003
 1773W        W17390   8.262  17.526  10.418 -0.1105  0.0023 -0.1427
 1774W        W17391   2.838   9.184   1.955 -0.0737  0.3549 -0.1062
 1775W        W17392   3.895  11.379  12.437 -0.0162  0.0822  0.0544
 1776W        W17393  18.031  11.648  11.998  0.1736 -0.1738 -0.1517
 1777W        W17394  13.471   1.511  13.469  0.1167 -0.0745  0.2638
 1778W        W17395  14.512  17.976   3.949  0.3387 -0.0653 -0.4975
 1779W        W17396   8.870   9.635   3.132 -0.2527 -0.2967 -0.0111
 1780W        W17397   2.029   7.488  12.586 -0.5372  0.1081 -0.0133
 1781W        W17398  12.397   8.187  16.322 -0.2401  0.1455 -0.0442
 1782W        W17399  15.989  16.770  13.853  0.1999 -0.1717  0.2197
 1783W        W17400  17.737   9.387   2.556  0.1434 -0.1261 -0.0033
 1784W        W17401   5.476   2.379   1.967 -0.1198 -0.1736  0.0375
 1785W        W17402  13.348   1.731   4.590 -0.1428 -0.0279 -0.0070
 1786W        W17403   4.720   7.051  13.671 -0.2081  0.2686 -0.1030
 1787W        W17404   9.032  16.605  15.701  0.1228  0.2191 -0.3702
 1788W        W17405   8.648  16.839  16.494 -0.0163 -0.0774  0.0397
 1789W        W17406  15.782  16.278  11.299  0.2522 -0.2718 -0.2514
 1790W        W17407  15.521  17.234   4.960  0.2357 -0.0552  0.0811
 1791W        W17408   7.452  13.381   4.138  0.1696  0.0223 -0.0964
 1792W        W17409  10.312  11.068  12.410  0.0163 -0.3112  0.2446
 1793W        W17410  10.607   7.288  11.994 -0.1982  0.0718  0.1030
 1794W        W17411   2.064  17.163  16.757 -0.0157  0.1278 -0.2336
 1795W        W17412  12.076   1.149   2.652 -0.1532  0.2971  0.0556
 1796W        W17413  14.455  13.102   2.888  0.0386 -0.0628 -0.0305
 1797W        W17414  14.296   1.799   3.540 -0.0109  0.1691  0.0416
 1798W        W17415   9.365  11.677  14.666  0.4527 -0.0935  0.0143
 1799W        W17416  11.575  17.369  11.960  0.1115  0.2030  0.0378
 1800W        W17417  12.597  14.939  13.218  0.0114  0.2166  0.0608
 1801W        W17418  14.957   3.328  14.794 -0.0567 -0.0178  0.1916
 1802W        W17419   6.078  16.819   2.440 -0.1740 -0.1702  0.2791
 1803W        W17420   7.712   5.427   6.030  0.0360 -0.1428 -0.1432
 1804W        W17421   8.744  16.720  14.858 -0.3959 -0.0428  0.0206
 1805W        W17422   8.397   8.791  15.215 -0.1959  0.3301 -0.0143
 1806W        W17423  10.498   4.858  13.318  0.1887  0.4428  0.0902
 1807W        W17424  14.493   9.105   1.685  0.0833  0.0670  0.0081
 1808W        W17425   7.264   8.237  13.688  0.0054  0.1092  0.1496
 1809W        W17426   2.006  12.771  15.103 -0.3347 -0.2082  0.0912
 1810W        W17427   6.752   5.232   2.177  0.1111 -0.0217 -0.1992
 1811W        W17428   9.573   0.195  12.239 -0.1001 -0.1243  0.0392
 1812W        W17429   9.370   3.604  11.334 -0.0400 -0.1117  0.0647
 1813W        W17430  17.388  13.693  16.724 -0.0633  0.0879  0.3505
 1814W        W17431  13.170  16.452   0.090 -0.1174  0.3030 -0.1862
 1815W        W17432  18.007  13.416  16.090 -0.3186 -0.1538  0.0389
 1816W        W17433  16.622   9.597   1.787  0.0074  0.1077 -0.1883
 1817W        W17434  15.540  14.960   1.019  0.1557  0.0756 -0.2166
 1818W        W17435  12.500  14.504  12.902 -0.0181 -0.1621 -0.2997
 1819W        W17436  11.236  11.658   4.169  0.0751  0.0925 -0.0643
 1820W        W17437   4.107   7.617   2.609  0.1662 -0.2203  0.1547
 1821W        W17438   3.072  17.127  15.661  0.2509 -0.1145  0.1158
 1822W        W17439   3.233   1.501   1.950 -0.1794  0.0262 -0.3785
 1823W        W17440  16.128   9.890  12.536  0.1022  0.0818  0.1641
 1824W        W17441  10.029  15.373   4.309  0.2374  0.4324 -0.6233
 1825W        W17442   7.719   6.001   1.380  0.0589 -0.1395  0.0781
 1826W        W17443   9.199   6.912   2.952 -0.0469  0.0352  0.0250
 1827W        W17444   8.321   3.564   3.950 -0.5214 -0.1833 -0.0841
 1828W        W17445   1.637   8.473  15.775  0.5130  0.0207  0.0700
 1829W        W17446   5.494   3.193   4.614 -0.0074  0.0167  0.1097
 1830W        W17447   1.308  13.217  11.841  0.3092 -0.0727  0.1789
 1831W        W17448  16.102   5.127   1.230 -0.0546  0.0922 -0.1004
 1832W        W17449   2.452   6.380   3.494 -0.0009  0.2808 -0.3730
 1833W        W17450   7.476  13.429  14.652  0.0455 -0.1255  0.1557
 1834W        W17451  16.749   9.927  13.168  0.2470 -0.2054  0.1293
 1835W        W17452   2.976  10.021   5.544  0.1392  0.2858 -0.2401
 1836W        W17453   5.853  15.502  13.956  0.0303  0.0499 -0.0948
 1837W        W17454   9.377   7.318   5.198  0.3207  0.0785  0.0809
 1838W        W17455   0.913   1.255  14.683  0.3017 -0.0435 -0.1404
 1839W        W17456  14.590  10.351  15.502 -0.0691  0.2422  0.1116
 1840W        W17457   4.476  15.879  15.783 -0.2262  0.0237 -0.2614
 1841W        W17458  12.038   4.836   0.629 -0.0465 -0.3249 -0.2014
 1842W        W17459   8.517   8.641   1.577 -0.0420 -0.1783  0.0488
 1843W        W17460   0.466   3.346  16.416 -0.1943  0.0343  0.0374
 1844W        W17461  11.786  12.770  15.767 -0.2797  0.0910 -0.0098
 1845W        W17462  12.744  17.615   3.599  0.3886  0.0891  0.1777
 1846W        W17463  17.584   2.943  14.237  0.1498 -0.0122  0.1558
 1847W        W17464  10.002  17.234  12.948  0.0867 -0.1730  0.0767
 1848W        W17465   1.106   6.633   1.307  0.1122 -0.1514  0.0055
 1849W        W17466   9.021  14.590   9.662 -0.2735  0.1682  0.0718
 1850W        W17467   4.014  17.627   5.111  0.4187  0.1896 -0.2660
 1851W        W17468  12.347  11.199  14.550  0.1473  0.0232  0.1186
 1852W        W17469  13.410   9.201  15.811  0.1529 -0.0399  0.0970
 1853W        W17470  16.991   1.298  15.888  0.0348  0.0145  0.1146
 1854W        W17471  12.315   1.903   6.050  0.1881  0.5276  0.0096
 1855W        W17472  10.575   3.362  15.095 -0.1072 -0.0742  0.2991
 1856W        W17473  11.977  17.749   6.326 -0.0487 -0.1795  0.1784
 1857W        W17474  11.260  11.405   2.634 -0.2087  0.2859 -0.2937
 1858W        W17475   6.484  16.988   2.839 -0.1247  0.2766  0.0977
 1859W        W17476  15.750  11.553  13.537 -0.0572  0.2775  0.0115
 1860W        W17477  10.469  11.988   4.224 -0.0200 -0.1241 -0.1219
 1861W        W17478  11.923   1.114   0.832  0.1497 -0.2632 -0.0653
 1862W        W17479   8.910  12.421   2.733  0.0213 -0.2674  0.0295
 1863W        W17480   9.669  10.680  13.175  0.1911  0.1282  0.1655
 1864W        W17481  13.998   2.689   2.636 -0.2889 -0.1080 -0.1381
 1865W        W17482   1.053  16.256  16.724  0.0987 -0.2077  0.1104
 1866W        W17483  11.349   8.485  12.197 -0.0887 -0.3314  0.1118
 1867W        W17484  16.595   4.999  14.573  0.0599 -0.1087 -0.0122
 1868W        W17485   4.085  15.896   1.161  0.0070  0.0740  0.2404
 1869W        W17486   0.737  16.682  13.057  0.1851  0.3501  0.1188
 1870W        W17487   7.592   1.840  15.302 -0.0316 -0.1630  0.0314
 1871W        W17488   7.120  16.866   0.843 -0.2767  0.0058 -0.2244
 1872W        W17489   1.286  14.103   2.230  0.1254 -0.1940 -0.1101
 1873W        W17490  11.687  15.202  16.410  0.5222  0.1069  0.1424
 1874W        W17491  17.302   9.085   3.804  0.0750 -0.0771  0.2338
 1875W        W17492   5.847  11.486   3.584  0.0663  0.0675  0.0808
 1876W        W17493   7.091  10.231  14.882 -0.1824 -0.2407 -0.0574
 1877W        W17494   4.488  16.508  13.633  0.0798 -0.0483 -0.3016
 1878W        W17495   9.976  15.188   2.749 -0.3113  0.1871 -0.0520
 1879W        W17496   8.594   9.765  13.527  0.2144 -0.3281 -0.1299
 1880W        W17497  15.951   1.235   0.315  0.2084 -0.1387  0.1860
 1881W        W17498  18.001  17.798  15.153  0.0236  0.1989 -0.1969
 1882W        W17499   6.912  10.169  12.180  0.3576  0.2055  0.1833
 1883W        W17500  16.652  11.922  15.710  0.2098  0.2142 -0.0026
 1884W        W17501  14.467  14.269   3.880  0.0141 -0.3871 -0.1190
 1885W        W17502  13.167  11.635   5.256  0.0221  0.2827  0.0662
 1886W        W17503   5.430  11.081   4.576  0.1970  0.0607  0.0655
 1887W        W17504   7.495   3.033  14.287 -0.0439 -0.0405  0.3598
 1888W        W17505   7.805  16.715  16.466  0.3679 -0.1015  0.3013
 1889W        W17506  16.573  11.307   2.806  0.0507 -0.3168 -0.0532
 1890W        W17507   0.640  12.684   5.528  0.3139 -0.1682  0.0891
 1891W        W17508   2.114  17.001   1.880 -0.0180 -0.2853  0.1535
 1892W        W17509   5.442  13.313  16.486 -0.0479  0.1062  0.0423
 1893W        W17510   8.100   7.750   1.076  0.1646 -0.2734  0.0199
 1894W        W17511  12.683  11.059  15.965 -0.1095  0.0344 -0.1199
 1895W        W17512  11.875  17.189   2.141  0.0726  0.2014  0.1577
 1896W        W17513   2.581   8.621  14.984 -0.3057  0.2716 -0.1002
 1897W        W17514  15.908  15.163  12.427  0.4448 -0.3570  0.0635
 1898W        W17515   6.204   1.605   3.893  0.2159  0.1448  0.1509
 1899W        W17516  13.251  16.548   3.896 -0.1070  0.0285  0.0595
 1900W        W17517   3.002  14.607   0.178 -0.0505  0.3754  0.1302
 1901W        W17518  17.604  15.668   3.395  0.2741  0.0488 -0.1982
 1902W        W17519   7.120  17.790  13.258 -0.2199  0.0326 -0.0528
 1903W        W17520   6.203  17.787   4.733 -0.2040 -0.7230 -0.1468
 1904W        W17521  13.414  14.305   1.503  0.0828  0.2258  0.3169
 1905W        W17522  15.443  12.180   1.185  0.2578 -0.0379 -0.0593
 1906W        W17523  12.803   4.116  13.911 -0.0635  0.1340 -0.0595
 1907W        W17524  12.028   3.491  15.812  0.1994  0.0071  0.3331
 1908W        W17525   5.271  14.157   1.390 -0.1039  0.2288  0.2754
 1909W        W17526   1.600   8.106   1.931  0.0423 -0.2268 -0.0467
 1910W        W17527  13.696   6.047   1.463 -0.0396 -0.1022 -0.0845
 1911W        W17528   6.798  16.616   4.771 -0.0259  0.0759 -0.1574
 1912W        W17529   6.923  16.641   2.905 -0.3198  0.0848  0.0779
 1913W        W17530   0.782  16.537   0.645 -0.2046  0.3447 -0.1434
 1914W        W17531   8.369  17.262   3.159  0.0972  0.0687 -0.0142
 1915W        W17532   4.505  14.040  11.805  0.5793 -0.2579  0.3482
 1916W        W17533  15.519  10.185  12.813  0.0488 -0.0319  0.0108
 1917W        W17534   1.666  16.162   4.192 -0.2151  0.1956 -0.3138
 1918W        W17535   4.155   5.776   5.938 -0.0205 -0.2047  0.3828
 1919W        W17536  12.167   2.941  16.266  0.1382  0.1330 -0.3704
 1920W        W17537  17.564  13.001   2.854  0.0269 -0.2679 -0.0030
 1921W        W17538   4.759   6.410   6.131 -0.0304 -0.0942 -0.1190
 1922W        W17539   5.817   6.082  12.279 -0.2180 -0.0176 -0.3601
 1923W        W17540   3.662  15.471  12.289  0.0354  0.0365  0.1041
 1924W        W17541  16.108  12.811   0.176  0.1367  0.0801  0.1299
 1925W        W17542  16.202   7.445   3.078  0.1652 -0.0731  0.1289
 1926W        W17543   3.656  13.277  14.798 -0.0379 -0.1255  0.4619
 1927W        W17544   3.284  16.522  14.560  0.3912 -0.0738  0.4031
 1928W        W17545  11.180   6.394  16.028 -0.1288 -0.1104  0.0585
 1929W        W17546  10.166  16.955  12.196  0.3210 -0.0383 -0.1901
 1930W        W17547  10.285   3.801   1.983  0.0179 -0.3286  0.0191
 1931W        W17548  13.947  15.460   1.228 -0.1199  0.0185 -0.1020
 1932W        W17549  15.681  13.026   5.416  0.2756  0.0904 -0.2467
 1933W        W17550   0.705  11.677  14.834  0.1185  0.0515 -0.3431
 1934W        W17551  14.566   4.234   3.403 -0.0147 -0.1069 -0.2715
 1935W        W17552   5.995   0.137   4.143 -0.0916  0.3693  0.1118
 1936W        W17553  11.519  12.997  11.686 -0.0519  0.1086 -0.0055
 1937W        W17554  10.823  13.594  11.411 -0.1436 -0.2928 -0.0132
 1938W        W17555   6.861   3.123  11.445  0.1429  0.2258  0.2184
 1939W        W17556   4.083  17.150  15.428  0.1211  0.4579  0.1630
 1940W        W17557   6.373   1.402  11.581 -0.2305 -0.1159 -0.1090
 1941W        W17558   9.602   7.061   3.439 -0.1007  0.2822  0.3770
 1942W        W17559  16.091   7.202  13.341 -0.1640  0.0764  0.0153
 1943W        W17560  12.253  14.369   5.288  0.3642  0.0878 -0.1696
 1944W        W17561  10.389  12.912  13.512 -0.2479 -0.0535  0.0863
 1945W        W17562   2.548  10.889   5.058  0.0169  0.1716 -0.0379
 1946W        W17563  13.740   9.710  13.165  0.1997  0.3821  0.2337
 1947W        W17564  17.404   9.339   1.414 -0.0182 -0.1413  0.5836
 1948W        W17565  14.200  12.525   1.293  0.3510 -0.0925  0.1879
 1949W        W17566  12.972   6.940   2.458 -0.1513  0.0156 -0.0507
 1950W        W17567   4.202  14.210  15.158 -0.2141  0.1513 -0.0873
 1951W        W17568   5.303   7.475   5.026 -0.3308  0.0154 -0.0559
 1952W        W17569  10.787  14.649  13.922  0.0478 -0.0118 -0.1131
 1953W        W17570  13.330  17.857  13.982  0.0517  0.3688  0.1286
 1954W        W17571   7.564   9.836  11.405  0.1615  0.0717  0.3363
 1955W        W17572  11.203  18.030   0.409  0.2341 -0.0291  0.0223
 1956W        W17573   3.785   7.961   1.470 -0.0842  0.0834  0.1302
 1957W        W17574   7.207   6.190  14.435  0.2901  0.2034 -0.0218
 1958W        W17575   8.546   2.035  15.333  0.4544 -0.1008  0.0269
 1959W        W17576   1.853  13.598  11.113  0.0399  0.2197  0.1163
 1960W        W17577   9.869  12.440  12.715 -0.0824  0.0374 -0.1457
 1961W        W17578  17.594  16.533  12.177 -0.1795  0.2931 -0.0312
 1962W        W17579  16.891  11.564   5.331 -0.0765 -0.1589 -0.0646
 1963W        W17580   3.003  15.865   5.670  0.1891 -0.1774  0.0899
 1964W        W17581  15.720   2.804   3.693  0.1100 -0.1954 -0.0725
 1965W        W17582  16.247  16.388  11.574  0.1148 -0.1848  0.3575
 1966W        W17583   9.592   8.449   5.124  0.1925 -0.0962 -0.1121
 1967W        W17584   4.868   7.685  14.139  0.2370 -0.3065  0.0885
 1968W        W17585   4.217  13.549  16.005  0.0470  0.3675  0.0087
 1969W        W17586  17.592  10.849   0.896 -0.1180 -0.0981 -0.2037
 1970W        W17587  14.647  12.440  12.270 -0.2501 -0.0415  0.1237
 1971W        W17588   9.381  16.735  13.853 -0.2229 -0.0667  0.0562
 1972W        W17589  12.123   5.775   2.294 -0.0730  0.0004  0.0081
 1973W        W17590   3.129   8.561   3.352 -0.1686  0.1534  0.0002
 1974W        W17591   1.064   6.892   4.863 -0.0577 -0.1332 -0.1386
 1975W        W17592   2.876   1.052  15.138  0.2645  0.1302  0.0313
 1976W        W17593   7.812   2.877   2.007 -0.0494  0.2520  0.1464
 1977W        W17594  17.250  16.496  14.266 -0.1990 -0.0966 -0.0956
 1978W        W17595  13.446  10.173  13.460  0.0160  0.0974 -0.5287
 1979W        W17596   1.071   4.070   4.482  0.2625 -0.2156  0.1215
 1980W        W17597   9.262   3.159  14.882 -0.0879  0.1529  0.0018
 1981W        W17598  13.980  11.383  12.099  0.0880  0.2048  0.0213
 1982W        W17599   2.515   7.034   5.664  0.0759  0.0642 -0.3487
 1983W        W17600  11.768   9.952  14.312 -0.0335 -0.1523 -0.0273
 1984W        W17601  11.877   3.468   2.876 -0.0785 -0.0624 -0.1434
 1985W        W17602  13.468   6.275  14.445  0.0126  0.0395  0.2623
 1986W        W17603   2.796  11.005   3.576 -0.1249  0.0010  0.0485
 1987W        W17604   3.149   4.379   1.008  0.5307  0.2343 -0.1032
 1988W        W17605   6.548   6.936  10.918  0.1273  0.1171  0.1209
 1989W        W17606  17.510   9.402  15.712 -0.0508  0.0616 -0.0430
 1990W        W17607  12.825   5.533  15.883 -0.0635  0.2588  0.1558
 1991W        W17608   7.612  11.821   1.745 -0.2057  0.3857  0.3709
 1992W        W17609   1.035   0.897   0.917 -0.0804  0.0041  0.2992
 1993W        W17610   2.856   3.886  11.625 -0.0189  0.1709  0.0914
 1994W        W17611   8.147   8.029   3.479  0.0708  0.0140  0.1578
 1995W        W17612   0.673   8.634   5.678  0.1694 -0.0150 -0.1124
 1996W        W17613   6.447   6.882  11.495  0.1036  0.1594 -0.2306
 1997W        W17614   0.193   8.340  12.331  0.0623 -0.0290 -0.0946
 1998W        W17615   8.617  13.304  13.754  0.1496  0.0013  0.0375
 1999W        W17616   2.745   7.222  12.802  0.2423 -0.0447 -0.1436
 2000W        W17617  15.817  14.706   1.445  0.1640 -0.0734 -0.1926
 2001W        W17618   8.156   9.792   2.516  0.0472 -0.0172 -0.2437
 2002W        W17619  13.352   0.970  11.802  0.1368 -0.0550  0.0647
 2003W        W17620   6.826  11.187  14.651 -0.1003 -0.0827 -0.0443
 2004W        W17621  11.744  15.501  11.649  0.0251  0.1615 -0.1374
 2005W        W17622   4.449   0.964   1.917 -0.4041 -0.2407 -0.3968
 2006W        W17623  15.525  15.970  12.635  0.0244 -0.1855  0.0179
 2007W        W17624  14.988  14.294   5.736 -0.2784 -0.0420  0.0929
 2008W        W17625   0.172  14.114  11.856  0.2907  0.1025 -0.0870
 2009W        W17626  17.900  12.492   1.598  0.2702  0.2705 -0.1317
 2010W        W17627  17.946  10.095   4.533 -0.2213 -0.1882  0.0545
 2011W        W17628   3.612  10.002   2.174  0.1409 -0.1866  0.1433
 2012W        W17629  11.211   6.350   4.954 -0.1489 -0.0092 -0.0038
 2013W        W17630  17.792   5.422   6.024 -0.1427  0.0007 -0.1792
 2014W        W17631   2.061  11.268   0.773 -0.1061  0.0068 -0.0194
 2015W        W17632  13.968  12.080   0.422  0.1619  0.0005  0.2367
 2016W        W17633  13.975   6.612  12.988  0.2210 -0.1671 -0.0575
 2017W        W17634   3.694  17.709   4.163  0.0633  0.1930 -0.1224
 2018W        W17635  13.513   1.762   0.553  0.1561  0.3754 -0.0146
 2019W        W17636   7.059   0.280   0.450 -0.1421  0.0247 -0.2708
 2020W        W17637  16.229  16.968  12.410 -0.0528 -0.0206  0.1144
 2021W        W17638   3.552  10.607  15.815  0.5139 -0.2357 -0.1745
 2022W        W17639   3.796  11.027   5.082  0.0585 -0.4025 -0.2950
 2023W        W17640   0.060   9.195  14.628  0.0901  0.1122  0.1531
 2024W        W17641   6.546   3.464   0.884  0.1657  0.6047 -0.0999
 2025W        W17642  16.588   2.521   4.113 -0.1322 -0.0926  0.1039
 2026W        W17643   3.706   5.738  13.100  0.1972  0.0226 -0.2669
 2027W        W17644   3.391  15.893   1.347  0.1166 -0.0950  0.3434
 2028W        W17645  10.546   9.033  14.142 -0.1697 -0.0393  0.4041
 2029W        W17646   6.470   3.087  16.718  0.3591 -0.2020  0.0205
 2030W        W17647   5.980   3.085   5.539  0.1950 -0.3793  0.0625
 2031W        W17648   8.642   7.539   2.274  0.0449  0.0410  0.1813
 2032W        W17649   7.915  12.891  14.695  0.2617 -0.1022 -0.5365
 2033W        W17650   4.036  10.239  13.298  0.2107  0.1828  0.0644
 2034W        W17651  11.075   5.678  11.889 -0.1268  0.0089  0.2693
 2035W        W17652  10.498  17.680   4.216  0.1649 -0.0524 -0.1824
 2036W        W17653   5.508  10.524  15.702 -0.4046  0.3720 -0.1626
 2037W        W17654  11.596  15.869  15.623  0.0335 -0.1216 -0.2760
 2038W        W17655   0.141   1.104  15.190 -0.1019 -0.1361  0.0556
 2039W        W17656   7.884   8.101  12.643  0.0677  0.1117 -0.3719
 2040W        W17657   4.644   2.023  11.185 -0.0628 -0.1938  0.3366
 2041W        W17658   4.279   3.485   0.385  0.0090 -0.0252 -0.1085
 2042W        W17659   5.890   6.878   0.144  0.3428 -0.2420  0.1114
 2043W        W17660  17.589  10.230  16.694  0.0119  0.0194  0.3807
 2044W        W17661  17.490   7.326   2.217 -0.0636  0.0820  0.1642
 2045W        W17662  14.643   8.788  14.733  0.0479  0.2023  0.3778
 2046W        W17663   0.340  11.938   2.159 -0.1717  0.1400 -0.2963
 2047W        W17664  17.043  14.037   1.131  0.1341 -0.0184 -0.0576
 2048W        W17665   8.028   9.810  13.443  0.0439  0.0610 -0.2656
 2049W        W17666   3.213   9.042  12.423  0.1716  0.0701 -0.0222
 2050W        W17667   8.715  14.297  11.434 -0.0712 -0.0978 -0.1946
 2051W        W17668  11.484   8.502   0.152 -0.1143  0.0130 -0.3232
 2052W        W17669   5.708   8.174  13.654 -0.0473 -0.3461  0.0625
 2053W        W17670   1.245  17.497  16.797  0.0010 -0.0996 -0.2186
 2054W        W17671   5.712   6.034  12.873 -0.0609  0.0420  0.0106
 2055W        W17672   1.018  12.514  14.591 -0.0570 -0.3828  0.0652
 2056W        W17673   9.514  11.507  13.687 -0.1869  0.1313 -0.2170
 2057W        W17674   4.495   7.159  14.479  0.0891 -0.1339 -0.0058
 2058W        W17675  17.428  14.818   2.828 -0.1461 -0.0363 -0.0591
 2059W        W17676   6.675   4.165  16.411 -0.2258 -0.1707  0.4443
 2060W        W17677   2.286   9.833   5.323 -0.1027  0.1413  0.1147
 2061W        W17678   9.519   8.394  15.479  0.0595  0.3269 -0.0870
 2062W        W17679   0.135   6.823   3.405 -0.0880  0.0478 -0.0664
 2063W        W17680   5.996  11.512  13.514  0.6018 -0.0561 -0.3527
 2064W        W17681  12.248  12.266   4.051  0.2411 -0.2277  0.0720
 2065W        W17682  15.691  13.444  15.860  0.3121  0.0172  0.1348
 2066W        W17683   7.019  14.989   6.396 -0.1014 -0.2174  0.1471
 2067W        W17684  15.456   6.142   3.180 -0.2181 -0.0722 -0.0039
 2068W        W17685  13.646   6.593  15.698  0.0160 -0.0467 -0.0855
 2069W        W17686  14.505   8.932  11.634 -0.2686  0.3829 -0.1344
 2070W        W17687   1.888   7.513   4.325  0.2419 -0.2034 -0.0580
 2071W        W17688   1.514   0.866  16.632 -0.2501 -0.2473  0.2048
 2072W        W17689   1.766  12.173   2.796 -0.1199  0.0990  0.3075
 2073W        W17690   2.203   1.191   1.124 -0.1286 -0.0193  0.0410
 2074W        W17691   3.662  17.266   0.105 -0.1740  0.0899 -0.4365
 2075W        W17692  16.859  12.222   3.058  0.0283  0.1674  0.0769
 2076W        W17693   4.320   9.601   2.986  0.2834 -0.3037  0.0983
 2077W        W17694  12.233   9.495   5.603 -0.4117 -0.1498  0.1778
 2078W        W17695  11.943  15.909   5.654 -0.1996 -0.0185  0.1038
 2079W        W17696  16.410  10.377   4.489  0.0754  0.1777 -0.1482
 2080W        W17697   3.489   7.480  14.854 -0.0673  0.0631 -0.0854
 2081W        W17698   4.938   4.754   5.298 -0.0328 -0.0742  0.1403
 2082W        W17699  15.591   6.074  15.861 -0.0840 -0.1230  0.0988
 2083W        W17700   4.657  13.899   6.110 -0.2340 -0.0213  0.0896
 2084W        W17701   8.957   2.186  14.168 -0.0103  0.1023 -0.2398
 2085W        W17702   8.298  15.645   3.597 -0.1820 -0.0214  0.0128
 2086W        W17703  12.406   4.117  14.805 -0.2234  0.0636 -0.0759
 2087W        W17704  15.065   3.971   3.493  0.2455  0.1496  0.1134
 2088W        W17705  12.952   6.735  15.144 -0.0112 -0.2372 -0.2269
 2089W        W17706   1.598  12.330  10.781 -0.0140  0.2123 -0.2598
 2090W        W17707  16.824   2.519   0.368 -0.0366  0.0071  0.2457
 2091W        W17708  14.777  17.421   3.493  0.2375  0.2578  0.1503
 2092W        W17709   7.220   1.626   4.818 -0.1078 -0.1839 -0.0487
 2093W        W17710   8.479  14.638  14.339  0.0518 -0.2846  0.0527
 2094W        W17711  11.530   2.848   0.092  0.3989  0.3007  0.2688
 2095W        W17712  14.741  12.357   2.460 -0.1910 -0.0631  0.0509
 2096W        W17713   5.940   8.985   0.446 -0.1009  0.1867 -0.0545
 2097W        W17714   5.435  11.484   3.300 -0.2983  0.2177 -0.1012
 2098W        W17715   4.711  10.689   2.401  0.3692  0.1267  0.0860
 2099W        W17716   4.314  12.918  12.924  0.3362 -0.0243  0.4248
 2100W        W17717  12.610   1.149   1.303  0.2377  0.0551 -0.2339
 2101W        W17718  12.515   0.913   2.929  0.0453 -0.1170  0.0744
 2102W        W17719  17.670  16.982  14.257 -0.0803  0.0210  0.0218
 2103W        W17720   0.833  11.077   1.461  0.0767 -0.2813 -0.0702
 2104W        W17721   5.049  16.355  12.028 -0.3719  0.1553  0.0853
 2105W        W17722  11.567  16.849   4.185 -0.0147 -0.0612 -0.0438
 2106W        W17723  15.404   7.081   5.758 -0.0285  0.2386  0.0253
 2107W        W17724  13.507  10.155  14.735 -0.2782 -0.4579  0.1420
 2108W        W17725   7.107   8.095   4.664  0.2108  0.0374  0.3267
 2109W        W17726  17.260  12.970   3.928  0.1009 -0.3217  0.1700
 2110W        W17727  13.002   3.674   0.781 -0.3756 -0.4618  0.1093
 2111W        W17728   1.963  17.752   5.795  0.1989 -0.2136 -0.1188
 2112W        W17729  11.982   1.012  15.395 -0.0554 -0.4336 -0.0776
 2113W        W17730   2.672   9.782  16.023  0.0221  0.0050 -0.1923
 2114W        W17731   6.898  17.437   2.193  0.1666 -0.2363 -0.3771
 2115W        W17732  11.114   3.091   4.386 -0.2440  0.0696 -0.0353
 2116W        W17733  14.283   7.309   1.434 -0.0707 -0.1224  0.1748
 2117W        W17734   7.984  17.095  12.283 -0.1064  0.3696 -0.2912
 2118W        W17735  16.980   6.636  14.350  0.2035 -0.1122 -0.0154
 2119W        W17736   4.884   7.287  11.498  0.1532  0.3229 -0.3739
 2120W        W17737  17.726  12.892   3.715  0.0234  0.0379 -0.3360
 2121W        W17738  15.535   7.396   4.138 -0.0514  0.0773 -0.2385
 2122W        W17739   8.231   9.307   4.072 -0.2370  0.1186  0.2483
 2123W        W17740   1.985   0.723   2.411  0.0885 -0.3667 -0.0837
 2124W        W17741  11.872  11.120   6.132  0.2097 -0.1060 -0.1097
 2125W        W17742   3.660   6.715  15.991 -0.0598 -0.0911  0.2065
 2126W        W17743   6.574   6.653  13.076  0.0248 -0.0353  0.1466
 2127W        W17744   3.943   9.810   5.665  0.2495  0.0881  0.2219
 2128W        W17745  15.074  17.587   5.118 -0.1608  0.4734 -0.1131
 2129W        W17746   5.035   5.160   1.829  0.3554 -0.1376  0.2408
 2130W        W17747   0.974  11.157  13.273  0.1596 -0.0013  0.2939
 2131W        W17748   3.476  16.347  15.598 -0.2081  0.0634 -0.3281
 2132W        W17749  15.402   3.142   4.702  0.0052  0.0675 -0.0370
 2133W        W17750  13.668  15.682   2.521  0.3085 -0.2936 -0.0630
 2134W        W17751   2.562   2.373   0.968 -0.1826  0.0199  0.1292
 2135W        W17752   4.497  16.191  15.376  0.0282 -0.1508  0.3766
 2136W        W17753  15.486   3.958  16.554 -0.2349 -0.0270 -0.1797
 2137W        W17754  11.514   5.690  15.804 -0.1576  0.0716  0.5057
 2138W        W17755   7.680   8.317   0.131 -0.0908  0.0917  0.0118
 2139W        W17756   8.815  16.489   0.863  0.2387  0.0498  0.0960
 2140W        W17757   1.454   9.753   4.922  0.0465 -0.1325  0.4233
 2141W        W17758  11.641  10.125  14.740 -0.0341  0.1871  0.3322
 2142W        W17759   9.993  14.180  13.370  0.1500  0.1201  0.1130
 2143W        W17760  14.450  10.204  16.098  0.0289  0.3306  0.2426
 2144W        W17761  11.982   0.655   5.330  0.2013  0.2462  0.0248
 2145W        W17762   9.055   8.703  16.581 -0.0538  0.4120  0.0539
 2146W        W17763   0.925   8.531  11.594 -0.3076  0.0890 -0.2922
 2147W        W17764  16.593  14.912  12.727  0.2034 -0.0867 -0.0142
 2148W        W17765   1.732  12.431   4.952  0.0800 -0.2345  0.2336
 2149W        W17766  17.075   6.515   2.843  0.0751 -0.1162 -0.0835
 2150W        W17767   4.098   8.198   4.081 -0.2048  0.2819  0.1009
 2151W        W17768  16.269   0.663  13.181 -0.0758  0.2656 -0.0700
 2152W        W17769   3.618  13.461   1.205  0.3102 -0.2114 -0.1316
 2153W        W17770   2.911   9.317   0.703  0.1843  0.2186 -0.0511
 2154W        W17771   4.532  11.681   4.177  0.0807 -0.0245  0.1537
 2155W        W17772   2.752   2.996   2.011  0.0658  0.1688  0.3502
 2156W        W17773  14.006  12.294  14.444 -0.1549 -0.2490 -0.1293
 2157W        W17774  13.511   7.991  14.830 -0.3941  0.2356  0.0936
 2158W        W17775   2.201   6.184   5.931  0.2839  0.1958  0.0797
 2159W        W17776   8.974  11.075  12.371 -0.0021 -0.2333  0.0439
 2160W        W17777  15.380   7.173  14.486  0.2337 -0.1734 -0.0343
 2161W        W17778   4.745  15.742   1.621  0.0197 -0.0628  0.0733
 2162W        W17779   9.978  17.128   2.076  0.0512 -0.2231  0.0542
 2163W        W17780   4.561   8.428  16.071 -0.1409  0.1015  0.0648
 2164W        W17781   5.042  13.115   1.975 -0.0170 -0.1949  0.0823
 2165W        W17782   2.174  17.531  15.877  0.1387  0.1307  0.1580
 2166W        W17783  14.133   2.506   4.642  0.0240 -0.0792 -0.0618
 2167W        W17784   6.864  12.042   4.153 -0.0715 -0.0236 -0.1727
 2168W        W17785   3.567   2.056  11.463 -0.0101 -0.0899  0.0276
 2169W        W17786   2.141   6.761  11.740 -0.2070 -0.0012  0.1282
 2170W        W17787   6.294   7.449   3.710  0.1740  0.2487  0.1231
 2171W        W17788   8.658  13.362  16.177  0.1430 -0.2592 -0.2960
 2172W        W17789   4.061  16.410  13.027  0.1079  0.1902  0.0874
 2173W        W17790   9.871  14.942   5.035  0.2317  0.0504 -0.1460
 2174W        W17791  16.664   8.416   6.031  0.3608  0.1422 -0.2260
 2175W        W17792  15.736  12.375  16.083 -0.0182 -0.1517 -0.1646
 2176W        W17793  15.088   5.957   3.529 -0.1571  0.0668  0.1211
 2177W        W17794   1.610  15.787  16.650 -0.1883  0.3640 -0.4907
 2178W        W17795  16.246   1.029   5.066 -0.0017 -0.1017  0.1227
 2179W        W17796   5.117   3.669   5.759  0.1911  0.1347  0.1402
 2180W        W17797  12.926   6.760   4.638  0.1765 -0.0591 -0.1756
 2181W        W17798   1.689  12.328   3.575 -0.0220 -0.0197 -0.0965
 2182W        W17799   3.498  13.349   3.608  0.0735  0.2833 -0.0253
 2183W        W17800   9.847  14.248  15.552 -0.0091 -0.0551 -0.0063
 2184W        W17801  11.418   3.349   3.089 -0.0443 -0.0943 -0.2580
 2185W        W17802   5.070   6.641  15.886 -0.3480 -0.0133  0.1407
 2186W        W17803  15.016   4.514  15.368 -0.1299  0.2972 -0.0331
 2187W        W17804   6.497   3.185   1.818 -0.0866 -0.0510  0.0301
 2188W        W17805   4.942   8.529   0.020  0.2313  0.0852  0.2506
 2189W        W17806   0.237   5.945  15.790 -0.3131  0.0760  0.0284
 2190W        W17807   2.072  13.397   6.084 -0.0138 -0.1694 -0.2812
 2191W        W17808  13.729   7.992   2.623 -0.0222  0.2586 -0.0761
 2192W        W17809  16.430  12.145   2.090  0.1782 -0.0451  0.2656
 2193W        W17810  16.763   0.230   5.299 -0.3915 -0.0189  0.2201
 2194W        W17811   1.668   9.839  11.674  0.1340 -0.0232 -0.2060
 2195W        W17812   0.517   8.727   2.330  0.2629  0.0191 -0.0378
 2196W        W17813   3.117   1.484  14.037  0.2553 -0.1774 -0.1422
 2197W        W17814   8.352  11.770   4.537 -0.0701  0.1377 -0.0352
 2198W        W17815   8.837   2.628   1.725 -0.0812 -0.0619  0.1432
 2199W        W17816  15.288  15.368  12.828  0.2753 -0.2514 -0.2014
 2200W        W17817   6.853   9.255  13.473  0.0321 -0.1059  0.1380
 2201W        W17818   2.570   3.065  12.519  0.3461  0.1575  0.2624
 2202W        W17819   0.224  16.442  16.103  0.0346  0.0975  0.1258
 2203W        W17820   4.859   6.137   1.064 -0.1694  0.0207  0.3383
 2204W        W17821   3.456  16.265  12.776 -0.2020 -0.0958 -0.2586
 2205W        W17822  16.587  16.186  15.117  0.0569  0.3212 -0.0258
 2206W        W17823   8.523   1.040  14.912  0.0228  0.0950 -0.0160
 2207W        W17824   6.664  12.658   3.218  0.0228  0.0434  0.0402
 2208W        W17825   8.859  15.011  13.360  0.1185 -0.1699  0.0385
 2209W        W17826   9.731   8.481   0.154  0.0211  0.2539 -0.0809
 2210W        W17827   6.295   7.663  13.934  0.0189 -0.2147  0.1462
 2211W        W17828   1.256  10.433   1.086  0.2835 -0.0503  0.0891
 2212W        W17829  16.412  13.967  16.728 -0.1858 -0.0932  0.2188
 2213W        W17830   0.481  14.428   0.121  0.5913 -0.0367  0.2064
 2214W        W17831  16.019  10.917   4.482 -0.1420  0.1410  0.1078
 2215W        W17832   6.884   6.358   0.573  0.1476  0.1341  0.0900
 2216W        W17833   0.140  12.325  15.127 -0.0183 -0.0536 -0.1129
 2217W        W17834  14.695  12.049   2.069 -0.0867  0.2702  0.3569
 2218W        W17835   0.423   6.165  12.175 -0.0591  0.1938 -0.0697
 2219W        W17836  16.785  12.535   3.447 -0.0054 -0.2246  0.1317
 2220W        W17837   4.681  10.119   2.341  0.1249 -0.1757  0.2890
 2221W        W17838   0.048   1.132   0.821  0.0354  0.0930  0.0221
 2222W        W17839  13.694   6.611  13.650 -0.0260  0.1031  0.0282
 2223W        W17840   9.938   1.728   4.335 -0.2018 -0.0707 -0.0886
 2224W        W17841   1.279   3.372   3.086 -0.1744 -0.2526  0.0796
 2225W        W17842   4.354   4.581   4.486  0.0493 -0.1270 -0.0074
 2226W        W17843   3.602   3.705   6.279 -0.1091 -0.2850  0.2078
 2227W        W17844   1.824  10.329   1.211  0.1908 -0.1347  0.2904
 2228W        W17845   8.803  11.968   2.887 -0.2771 -0.2324 -0.1096
 2229W        W17846  12.925  15.394  16.388  0.1456 -0.1788  0.1088
 2230W        W17847   8.645   3.358   0.376  0.0410  0.0452  0.1277
 2231W        W17848   0.925  15.345  13.059  0.0229  0.1480 -0.2375
 2232W        W17849   0.667  12.951  16.018  0.0682 -0.0625  0.0073
 2233W        W17850  16.405   1.889   6.105 -0.0747  0.1502 -0.2963
 2234W        W17851   8.611   8.987   1.019 -0.2564  0.1122 -0.1800
 2235W        W17852  17.387  10.385  14.802  0.0441 -0.0137  0.1509
 2236W        W17853  17.241   1.073  14.034 -0.0040  0.0917  0.1160
 2237W        W17854   2.405   8.738   2.023  0.1170  0.2936 -0.1919
 2238W        W17855   7.182   4.948   0.763  0.0169  0.3437  0.2378
 2239W        W17856   5.272  14.710  14.598  0.0678  0.2635  0.0727
 2240W        W17857   8.533  14.736   4.366  0.0121 -0.1400 -0.1468
 2241W        W17858  12.114   3.824  11.825 -0.3054  0.1068  0.0744
 2242W        W17859  15.236   1.374   5.152 -0.0044 -0.0772  0.0372
 2243W        W17860  14.292  11.032  12.354  0.1532  0.1113  0.1749
 2244W        W17861   7.094  11.468  14.145  0.1476  0.0464  0.3619
 2245W        W17862  17.920   1.530   4.017 -0.1101  0.0785 -0.3294
 2246W        W17863   2.308   0.389  14.948 -0.1981 -0.0739  0.1822
 2247W        W17864   6.230   5.864   2.560  0.0763  0.0546 -0.0152
 2248W        W17865  10.816   9.288   1.751 -0.1250 -0.1537  0.3548
 2249W        W17866  13.906  17.686   4.047 -0.1802 -0.0518  0.3098
 2250W        W17867  15.471   5.848  12.298  0.0927 -0.0746  0.1367
 2251W        W17868  11.928   8.126  13.380 -0.3393 -0.1651  0.4083
 2252W        W17869  13.673  10.964   0.214  0.1782 -0.0850  0.1821
 2253W        W17870   9.252  17.093   4.763  0.1750 -0.1750  0.1708
 2254W        W17871  10.783   1.849   0.131  0.1810 -0.1614  0.2991
 2255W        W17872   5.690   7.101  12.024  0.2689  0.4276  0.0104
 2256W        W17873   7.763   3.824   3.383  0.3228 -0.2508 -0.1487
 2257W        W17874   4.903  13.656   0.269  0.2748 -0.2239  0.0365
 2258W        W17875  17.775   4.807   0.696 -0.4151  0.1604 -0.3051
 2259W        W17876   1.965  13.829  11.930  0.2767 -0.0779 -0.0359
 2260W        W17877   2.978  13.756   2.272  0.1092  0.1023  0.3461
 2261W        W17878   8.708  14.891   4.986  0.1523  0.4000  0.0611
 2262W        W17879  17.818   3.212   0.519  0.2779  0.1840  0.0683
 2263W        W17880   4.831   3.761   2.721 -0.3680 -0.2548  0.0916
 2264W        W17881  17.982  10.253  16.400  0.0436  0.2703 -0.0019
 2265W        W17882   0.806   4.377  14.636 -0.2207 -0.3133 -0.1769
 2266W        W17883   9.422  10.188  14.362  0.1261 -0.2123 -0.0898
 2267W        W17884  10.561  17.402  12.152 -0.0059 -0.0151 -0.2815
 2268W        W17885  12.041   9.960  13.037 -0.2137 -0.1174  0.3877
 2269W        W17886   0.742  14.908  14.509 -0.1957  0.1134 -0.0002
 2270W        W17887   0.812   3.564   4.710  0.2145  0.0509  0.0929
 2271W        W17888  11.153  16.774  15.792 -0.0088 -0.1434 -0.0999
 2272W        W17889   3.451   4.859   2.638 -0.0839  0.0145  0.2079
 2273W        W17890  12.466  16.767  14.910 -0.0788  0.0657  0.1579
 2274W        W17891  14.311  17.612  13.628  0.1308  0.0859 -0.2132
 2275W        W17892  13.613  12.966   1.913 -0.0261 -0.0678  0.0835
 2276W        W17893  14.863  10.860  15.670  0.3992  0.1252 -0.0591
 2277W        W17894  11.623   1.078  16.609  0.2180  0.0259 -0.1179
 2278W        W17895   8.821  12.325   9.721  0.0669 -0.0123  0.1429
 2279W        W17896   5.506   0.599  15.308  0.1136 -0.1905  0.2920
 2280W        W17897   9.930   9.718  12.134  0.1686  0.3003 -0.1509
 2281W        W17898   5.764   2.644   2.491  0.1177 -0.1307  0.1627
 2282W        W17899   4.348   9.147  13.781  0.1210 -0.1278  0.2993
 2283W        W17900  17.903   5.086  11.708  0.2752 -0.0174 -0.2648
 2284W        W17901  15.784  17.910   0.373  0.0945  0.0698 -0.1048
 2285W        W17902   9.319   9.651  12.405 -0.1727  0.2437 -0.0721
 2286W        W17903  17.586   4.066  13.314  0.0844 -0.0663  0.0004
 2287W        W17904  10.756  11.606  14.171 -0.2272  0.0614 -0.3290
 2288W        W17905  16.496   1.431   5.325  0.1707  0.3045 -0.0084
 2289W        W17906   2.412   8.843   3.098  0.0780  0.1987  0.0562
 2290W        W17907   4.205   0.593   0.047  0.0113  0.1180  0.0030
 2291W        W17908   7.088  14.398  11.660  0.0725  0.1736  0.1642
 2292W        W17909  16.963  13.047  12.631 -0.1408  0.0502  0.0498
 2293W        W17910   2.894  10.964   5.401 -0.1000  0.0587 -0.3819
 2294W        W17911  10.295   0.182  14.844  0.1997  0.1064 -0.4598
 2295W        W17912   0.823   3.914  13.348  0.0517 -0.1601  0.0373
 2296W        W17913  12.069  12.952   0.773  0.1172  0.0311 -0.1539
 2297W        W17914   4.796   5.737  14.008  0.0718  0.2338 -0.0545
 2298W        W17915  10.164   7.534   3.599  0.0987  0.1240  0.0007
 2299W        W17916  17.005  17.110  15.532  0.1165 -0.0787 -0.0326
 2300W        W17917   9.757  17.967   1.928 -0.0878  0.1959  0.0252
 2301W        W17918  11.799  11.621   0.737  0.1384 -0.2747  0.3319
 2302W        W17919  14.150  14.991   4.905 -0.2865  0.1795 -0.1374
 2303W        W17920   3.249  12.993  16.564  0.2145 -0.1122  0.1455
 2304W        W17921   9.790  17.960   4.184  0.2431  0.3469 -0.5657
 2305W        W17922  11.593  16.367   3.819 -0.0003 -0.0694  0.1452
 2306W        W17923  10.803   2.056  13.854 -0.0558 -0.2330  0.0920
 2307W        W17924  17.068   3.788  12.452  0.4042  0.1478  0.0805
 2308W        W17925  17.470  14.275   5.007  0.2237  0.1417 -0.2066
 2309W        W17926   6.631   0.919  16.666  0.0255  0.2707  0.4122
 2310W        W17927   5.953  15.056  11.575  0.1360 -0.1498 -0.0015
 2311W        W17928   9.183  11.292   1.642 -0.1830  0.0274  0.1401
 2312W        W17929   8.265   5.305   1.516  0.0228 -0.1086  0.4399
 2313W        W17930  17.604  13.409  12.592 -0.1924  0.1789 -0.5519
 2314W        W17931   6.874   2.640  11.790  0.2829  0.0823 -0.0376
 2315W        W17932  15.815  15.205   1.453 -0.0320 -0.2603 -0.3566
 2316W        W17933  14.224  14.138   4.344 -0.2876  0.0227 -0.1304
 2317W        W17934   0.076  16.111  16.444 -0.1421 -0.2387  0.1873
 2318W        W17935   2.033   7.377   1.755 -0.0368  0.0379 -0.0076
 2319W        W17936  12.421   3.932   2.834  0.0851  0.0912 -0.1532
 2320W        W17937  14.283   3.960   5.114 -0.1114 -0.2751  0.2931
 2321W        W17938  14.875   9.277  13.793  0.3930  0.0358 -0.2019
 2322W        W17939  11.497   4.193  15.986  0.0128 -0.1455 -0.2212
 2323W        W17940  13.491   1.484  16.500 -0.0304  0.1126  0.3426
 2324W        W17941  16.819  16.733  14.359 -0.2310 -0.2863  0.1195
 2325W        W17942   4.613  12.059   3.813 -0.2741  0.3811  0.1905
 2326W        W17943  15.293  14.921  11.667  0.2793 -0.0150  0.1440
 2327W        W17944  16.110   0.718   1.282  0.2548 -0.0453 -0.0117
 2328W        W17945   0.250  17.561  16.051  0.1058  0.1056 -0.2220
 2329W        W17946   5.900   7.015   5.338  0.1389  0.0032 -0.1526
 2330W        W17947  14.584   0.881  16.777 -0.1372 -0.0424 -0.0759
 2331W        W17948   2.450   9.930   2.275 -0.0597 -0.4411  0.2658
 2332W        W17949   5.049  15.533  12.811  0.0225 -0.1472  0.0407
 2333W        W17950  14.456  16.720   4.153 -0.0298  0.2989 -0.0196
 2334W        W17951  17.843   3.776   4.002 -0.0882  0.0041  0.1571
 2335W        W17952   2.940   1.746  13.669  0.0189 -0.1586  0.0741
 2336W        W17953   1.098  15.796  14.783  0.0056 -0.0392 -0.0442
 2337W        W17954   2.017  11.938  12.747 -0.0788  0.0464 -0.2118
 2338W        W17955   6.601   3.830  11.843 -0.1720  0.4020 -0.0018
 2339W        W17956   0.449  17.676   0.488 -0.2926  0.3381  0.2276
 2340W        W17957  15.669   7.164   3.123 -0.0405  0.2302 -0.2153
 2341W        W17958   4.512   0.092  11.718  0.2297 -0.0840  0.0226
 2342W        W17959  14.497  13.724  15.494  0.1901  0.1220 -0.0500
 2343W        W17960  15.436  14.781   1.983  0.2292 -0.1174 -0.0950
 2344W        W17961   1.665   7.500  12.190  0.1830 -0.1409 -0.1833
 2345W        W17962   4.067  10.363   1.385 -0.0283  0.3218 -0.0082
 2346W        W17963  10.841   5.006   3.597 -0.0033  0.0451  0.0912
 2347W        W17964  17.586  15.086  13.674 -0.1800  0.0980  0.0153
 2348W        W17965   3.408   5.036   1.506 -0.0996 -0.3756  0.0920
 2349W        W17966   6.827   5.369  11.903 -0.3307  0.0906  0.0412
 2350W        W17967   1.790   0.002   1.700 -0.4523 -0.0958 -0.0141
 2351W        W17968   9.938   5.527   4.655 -0.1810 -0.0553  0.0106
 2352W        W17969  10.834   9.685   2.546  0.1715 -0.0142 -0.1435
 2353W        W17970   3.094   1.932  16.192  0.3697 -0.2028  0.0350
 2354W        W17971   6.418  10.247  16.721 -0.0578 -0.1752  0.1474
 2355W        W17972   2.462  15.996  15.497  0.1652 -0.2575 -0.1373
 2356W        W17973   2.258   5.676   0.584 -0.0145 -0.2505  0.2112
 2357W        W17974  10.581  12.683   6.085 -0.2118 -0.2229  0.3559
 2358W        W17975   9.613   9.653   4.307 -0.0052 -0.0548 -0.0777
 2359W        W17976  17.758   6.890   3.097 -0.1172 -0.1070 -0.3297
 2360W        W17977   7.646  17.789   2.780 -0.2249 -0.0242  0.2862
 2361W        W17978   7.434  15.656  16.421 -0.1129  0.2101 -0.2266
 2362W        W17979  17.438  15.107   5.261  0.0952 -0.0544 -0.1019
 2363W        W17980  12.563   6.008  14.692 -0.0973 -0.1677  0.1569
 2364W        W17981  12.434   8.739   4.866 -0.2789 -0.0803  0.2737
 2365W        W17982   5.712   3.378  14.127  0.1402 -0.1410 -0.1308
 2366W        W17983  17.775  16.513  15.944 -0.0464  0.0146  0.0278
 2367W        W17984  16.511   6.360  15.796 -0.1073  0.5391  0.2855
 2368W        W17985   3.877   6.157  12.905  0.2026  0.0425 -0.1172
 2369W        W17986   7.771  11.048   1.275 -0.5156 -0.3761  0.1733
 2370W        W17987  17.333   3.958  16.622  0.0643  0.0894  0.0890
 2371W        W17988  14.233   7.778   1.318 -0.2630 -0.1552 -0.1085
 2372W        W17989  14.138   1.975  11.899 -0.0208  0.0683 -0.4120
 2373W        W17990   4.362   0.044  12.589 -0.3718  0.1041 -0.1667
 2374W        W17991   0.248   6.507   5.333  0.2432 -0.0840 -0.0100
 2375W        W17992  16.703   4.350   2.223 -0.3699 -0.2204 -0.2771
 2376W        W17993  12.097  14.658   3.919  0.1347  0.3553 -0.4998
 2377W        W17994  14.404  13.875  16.582  0.0734  0.3077 -0.0148
 2378W        W17995  17.742   0.326   2.340  0.1970  0.5372  0.1262
 2379W        W17996   5.146   0.794  15.634  0.1474  0.1765  0.5502
 2380W        W17997   7.656  17.694  11.043 -0.0108 -0.1225 -0.1105
 2381W        W17998  13.760   9.445   2.967  0.1421  0.2883  0.3357
 2382W        W17999  11.182   9.594   1.436  0.1685  0.2833  0.1537
 2383W        W18000   2.486  10.960  11.696 -0.0307  0.2975 -0.0640
 2384W        W18001  18.013   2.330   5.192  0.2455 -0.0830 -0.1075
 2385W        W18002  13.825  17.100  12.026 -0.2062 -0.0526 -0.2921
 2386W        W18003   2.498  17.654   2.939  0.0026 -0.2528 -0.1838
 2387W        W18004   1.929   4.299   2.393 -0.3927 -0.0542  0.4995
 2388W        W18005  11.656  17.650   0.786 -0.2219 -0.4097 -0.0119
 2389W        W18006  15.987   0.735   5.428  0.0420  0.0135 -0.0553
 2390W        W18007  14.824  12.480  14.668 -0.0736 -0.0768  0.5502
 2391W        W18008   4.802  14.765  14.360  0.0853  0.0703  0.0811
 2392W        W18009   7.431   0.672   3.653  0.1675  0.0444  0.2775
 2393W        W18010  15.835  11.735   3.953 -0.2573  0.1927  0.2611
 2394W        W18011  12.771  13.421   5.547  0.5128  0.3666 -0.1164
 2395W        W18012   3.953   3.576  12.610 -0.1596 -0.2680  0.0793
 2396W        W18013   1.020  11.588   1.714 -0.1553  0.1297  0.1464
 2397W        W18014   6.003   8.856  14.333  0.4710  0.4179 -0.1507
 2398W        W18015  15.012   1.392  13.978 -0.0774  0.1947  0.1828
 2399W        W18016   2.069  15.702   2.299  0.1897  0.1634  0.0864
 2400W        W18017   5.458   3.917   4.703 -0.1102 -0.0296 -0.1910
 2401W        W18018  16.240  11.177  15.065  0.0984 -0.0095 -0.0292
 2402W        W18019   7.333   4.013   2.084 -0.2042  0.1047 -0.1423
 2403W        W18020   5.000   9.564   1.008 -0.1531 -0.1151  0.1457
 2404W        W18021   7.595  15.742   2.672  0.4161 -0.0309  0.0229
 2405W        W18022   3.010   2.788  16.558  0.1972 -0.3801  0.3600
 2406W        W18023   8.252   7.826  15.978  0.0523 -0.0985 -0.0190
 2407W        W18024  13.158   1.293   4.158  0.0788  0.0993 -0.2377
 2408W        W18025   4.231  12.148  16.581 -0.3673  0.1400 -0.1127
 2409W        W18026  16.848   8.853  16.152 -0.0135  0.2014 -0.1677
 2410W        W18027  13.214   9.639   0.444 -0.0181  0.0825 -0.0303
 2411W        W18028   9.135  15.406   5.656 -0.0616 -0.1795 -0.0718
 2412W        W18029  17.111   3.413   6.213  0.2681  0.0237 -0.1330
 2413W        W18030   8.299  11.555   0.209  0.2253 -0.2522 -0.2584
 2414W        W18031   7.884  13.095   0.820 -0.0140  0.1614 -0.1049
 2415W        W18032   3.888  17.415  12.039  0.1225 -0.2213  0.5088
 2416W        W18033  15.260  16.192   6.218 -0.4384 -0.1955 -0.0527
 2417W        W18034  12.300   9.811  13.447 -0.3765 -0.2912  0.2469
 2418W        W18035  16.967   9.757   2.183 -0.0774  0.1003 -0.0496
 2419W        W18036   0.762  13.971   5.981  0.0756  0.0703  0.0997
 2420W        W18037   4.455  12.850   0.808  0.1194  0.1595 -0.2274
 2421W        W18038   6.599   9.118   3.218 -0.2708  0.0622 -0.0741
 2422W        W18039  10.145   4.176   0.827  0.1069  0.2925  0.0294
 2423W        W18040   1.357   0.140  13.619  0.1480 -0.1833  0.3113
 2424W        W18041   4.698   1.965   2.001  0.0007 -0.4969 -0.2611
 2425W        W18042  10.515   4.178   0.437  0.0550  0.1082  0.2361
 2426W        W18043   4.779  16.758   3.551 -0.3834  0.2013 -0.2005
 2427W        W18044   9.194   6.484  12.406  0.0531 -0.0229  0.1340
 2428W        W18045   4.882   0.508  11.943 -0.0290 -0.4390  0.0935
 2429W        W18046   9.709  15.261   1.652  0.3791 -0.0925  0.3765
 2430W        W18047  17.791   5.104  14.206  0.0906  0.5540  0.0836
 2431W        W18048  11.965  17.613   5.833 -0.1021 -0.4718  0.1090
 2432W        W18049  10.934  14.864  14.789  0.0997  0.2003 -0.1037
 2433W        W18050   8.075   0.394   1.979 -0.2094 -0.2672 -0.1938
 2434W        W18051  17.919  17.906   5.578  0.1571  0.3980  0.1215
 2435W        W18052   9.643   6.849   4.963  0.0202  0.0499 -0.1459
 2436W        W18053  17.872   2.549   0.023 -0.0906 -0.0532  0.3577
 2437W        W18054   4.755  11.329   1.415  0.0170  0.0374  0.1775
 2438W        W18055   1.251   6.581  16.528  0.0401  0.1585 -0.2670
 2439W        W18056   8.395   5.443  13.869  0.1359 -0.0762 -0.1658
 2440W        W18057   4.299  11.541  16.761 -0.2283  0.1264 -0.0540
 2441W        W18058   0.185   1.160   3.080 -0.2793 -0.5893  0.0557
 2442W        W18059   0.482   2.056   1.777 -0.0180  0.0573  0.0755
 2443W        W18060  17.618   7.364   3.372  0.1731 -0.3765  0.1769
 2444W        W18061  10.806  15.625   0.779 -0.5057  0.2206 -0.0903
 2445W        W18062   4.796  17.570   3.011  0.0827  0.2901 -0.2579
 2446W        W18063  17.849  12.011   3.107 -0.3717 -0.2591  0.0952
 2447W        W18064  15.466  10.196   3.336  0.3384 -0.1170  0.0779
 2448W        W18065   8.118   8.677  16.038  0.0798  0.0598  0.1390
 2449W        W18066  10.411   4.793   0.214 -0.1083 -0.1716  0.2055
 2450W        W18067  17.583   8.582  14.261 -0.2875 -0.2332 -0.1330
 2451W        W18068  11.553   3.936  11.944  0.0439  0.1085 -0.2981
 2452W        W18069  17.863   6.823   4.391  0.1768  0.1790  0.0765
 2453W        W18070  15.672   7.595   1.272  0.1338  0.0677  0.3074
 2454W        W18071  13.682  14.578  12.210  0.1152 -0.0443  0.0028
 2455W        W18072  13.858  15.837  16.663 -0.0429 -0.1213 -0.0356
 2456W        W18073  14.021  16.102  13.271  0.1668  0.0488  0.0852
 2457W        W18074  13.985  10.383  14.017 -0.3005  0.0130 -0.2797
 2458W        W18075   1.458   6.430  13.700  0.0489 -0.2065 -0.0243
 2459W        W18076   9.861   9.154   4.572  0.2934 -0.2481 -0.2558
 2460W        W18077  11.362   0.859   5.834 -0.0123 -0.1381  0.1849
 2461W        W18078   7.885  16.621  15.995 -0.1253  0.0040  0.2133
 2462W        W18079   9.111  15.931   2.474 -0.1513  0.0702 -0.0478
 2463W        W18080  11.624  16.101  16.426 -0.2910  0.1495  0.0334
 2464W        W18081  16.426   8.189  15.532 -0.0528  0.2940 -0.0823
 2465W        W18082   5.889   2.466  13.220  0.1314  0.1015 -0.1514
 2466W        W18083   0.315  16.310  11.930 -0.1868 -0.1451 -0.2518
 2467W        W18084   6.395  18.011  15.549 -0.2667 -0.0059 -0.0802
 2468W        W18085   1.302   7.573  13.599  0.0453  0.0222 -0.1659
 2469W        W18086  13.751  11.490   3.660  0.0769 -0.2463 -0.0865
 2470W        W18087   1.481  14.529   2.207 -0.2123  0.2551  0.0306
 2471W        W18088  16.254   8.077  16.549  0.1026 -0.1395 -0.2286
 2472W        W18089   0.782   5.730   3.753 -0.4084 -0.5377  0.0676
 2473W        W18090  10.432  14.219   5.370 -0.0369  0.1549 -0.5174
 2474W        W18091   1.669   0.380   0.501  0.4499 -0.2057  0.0206
 2475W        W18092  10.171   4.828  12.377  0.2433 -0.1202  0.3416
 2476W        W18093   4.232   4.955  13.012  0.3066  0.2070  0.1452
 2477W        W18094  14.141   8.742  13.434  0.0114  0.4027 -0.2242
 2478W        W18095   9.664   2.585  14.777  0.1030  0.0324  0.2158
 2479W        W18096   6.128  16.200   0.416 -0.0073  0.2929  0.1692
 2480W        W18097  11.019   6.508   1.057 -0.2243 -0.0755  0.1502
 2481W        W18098   1.203  16.658  15.214  0.1305 -0.1340  0.0535
 2482W        W18099   4.044   0.396  16.129  0.0426  0.2327 -0.1264
 2483W        W18100   3.911  11.791   1.697 -0.0462  0.0984  0.4123
 2484W        W18101   3.936   2.979  11.079 -0.1776  0.0479 -0.0424
 2485W        W18102   1.510  10.285  12.616 -0.0264 -0.0153 -0.0215
 2486W        W18103   5.376  14.845   5.485  0.1193  0.0707  0.0863
 2487W        W18104   4.514  16.949  13.448  0.4332 -0.0978 -0.2605
 2488W        W18105   0.925   4.978  12.790  0.3171 -0.0322 -0.0028
 2489W        W18106   5.468  15.547   1.354 -0.3953  0.0363 -0.1892
 2490W        W18107   9.265   2.363   1.739 -0.3409 -0.0323 -0.4336
 2491W        W18108  14.179   7.210   4.599  0.1005 -0.0422  0.1412
 2492W        W18109  16.206   2.724   3.874  0.2832 -0.0914 -0.2475
 2493W        W18110   2.009   9.870   1.069  0.0062  0.1242 -0.4226
 2494W        W18111   4.644   9.981   5.006 -0.2222  0.0911 -0.2140
 2495W        W18112  16.090  17.716  14.838  0.0746 -0.1410  0.3031
 2496W        W18113  16.359  13.015  16.276 -0.1178 -0.1426 -0.0976
 2497W        W18114   1.389   5.935   0.915  0.1826 -0.1719 -0.0002
 2498W        W18115  12.033  12.142  12.282  0.0689  0.2152  0.0015
 2499W        W18116  11.000   3.935   0.062  0.2121  0.1733  0.3150
 2500W        W18117  12.104  14.527   1.769  0.1755  0.0138  0.2753
 2501W        W18118   8.736  14.943  16.506  0.0635  0.1922  0.2046
 2502W        W18119  17.860   7.440   0.015 -0.2674  0.1576 -0.1351
 2503W        W18120   6.490   5.408   1.045 -0.2279 -0.1260  0.2865
 2504W        W18121   7.879   7.704  11.341 -0.1787 -0.0795 -0.1714
 2505W        W18122   6.894  14.131  12.016  0.3930  0.0716 -0.0917
 2506W        W18123  17.405   5.647  16.733  0.3874 -0.0774  0.0652
 2507W        W18124   0.619   8.850  14.854 -0.1468 -0.1780 -0.0038
 2508W        W18125  16.734  12.265  16.489 -0.1427  0.1508 -0.0702
 2509W        W18126   8.554  15.136  16.104 -0.0699  0.0701  0.2601
 2510W        W18127   4.323   3.716  15.271  0.3893 -0.1167  0.1289
 2511W        W18128  14.119   4.536  14.925  0.2723  0.1303  0.0897
 2512W        W18129  11.883  14.243   0.090  0.0879 -0.0656 -0.2772
 2513W        W18130   3.966   5.142   4.286  0.0376  0.1151 -0.1226
 2514W        W18131   3.720   8.467  14.202  0.3077 -0.3694  0.0707
 2515W        W18132  11.226   0.540   4.887  0.1357 -0.0526 -0.1043
 2516W        W18133  12.532   5.567  16.301  0.4345  0.0479 -0.5094
 2517W        W18134  11.890   2.501  13.382  0.0910 -0.0795  0.0221
 2518W        W18135  10.520   9.146   2.760  0.0341  0.3811  0.0325
 2519W        W18136   9.131   6.174   5.223  0.0614  0.1269  0.1227
 2520W        W18137  15.519   2.738   2.721  0.1716  0.0416  0.2345
 2521W        W18138   6.922   5.709  11.514  0.0826 -0.0944  0.1013
 2522W        W18139   0.060   1.732  16.334  0.1481 -0.0116 -0.2641
 2523W        W18140  14.329  10.705  11.994  0.0898 -0.0517  0.2292
 2524W        W18141   2.973   0.127   1.833  0.0818 -0.0556 -0.2381
 2525W        W18142  14.999  12.710  11.958 -0.1767 -0.1685 -0.1761
 2526W        W18143   9.257  13.644  11.863  0.3690 -0.0224  0.1385
 2527W        W18144   7.750   3.765  14.769 -0.1011  0.0038 -0.1831
 2528W        W18145  17.622  15.961   6.382 -0.0147  0.2529 -0.2214
 2529W        W18146  10.561   8.586  13.819  0.2081 -0.0643  0.1608
 2530W        W18147  12.523  16.788  13.320  0.1596  0.2327  0.0693
 2531W        W18148  11.710  16.634   2.824 -0.0045  0.0797 -0.0753
 2532W        W18149   9.330   9.482  16.274 -0.0400  0.1072 -0.1809
 2533W        W18150  15.363   0.249  12.120  0.1737 -0.0138  0.1888
 2534W        W18151   8.469   8.499  10.706 -0.1310 -0.0942  0.1089
 2535W        W18152   1.172  13.160   3.369 -0.2121  0.0145  0.2671
 2536W        W18153   2.178  12.798   2.138 -0.2940  0.3636  0.0927
 2537W        W18154   9.080   4.820  13.802  0.0160  0.3311  0.0816
 2538W        W18155   6.274  13.816   4.515  0.1274  0.3998  0.1387
 2539W        W18156  12.469  17.981   0.309  0.0281 -0.6139 -0.1787
 2540W        W18157  17.799  16.590   4.680 -0.3093  0.3103  0.0180
 2541W        W18158   5.517   8.466   4.138  0.1602 -0.1779 -0.0773
 2542W        W18159   5.509  10.641   4.380  0.1100 -0.1419  0.0884
 2543W        W18160   7.218   4.466  13.636 -0.0476  0.1253  0.4246
 2544W        W18161   2.235   9.441  15.990  0.0139 -0.0614 -0.0658
 2545W        W18162  15.439  17.031  15.553 -0.1167  0.0704  0.0401
 2546W        W18163  14.779  15.601   5.408  0.3345 -0.1499 -0.1831
 2547W        W18164  14.596   8.222   3.568 -0.0555  0.1600 -0.0396
 2548W        W18165   6.311  12.580  13.422 -0.2455 -0.3124 -0.3784
 2549W        W18166  17.164  13.161   5.385  0.0847  0.1423 -0.1019
 2550W        W18167  15.177  18.011   2.446  0.0363 -0.1066  0.0241
 2551W        W18168  11.384  10.149   0.389  0.1742 -0.1419 -0.0188
 2552W        W18169  17.740   9.734   6.482 -0.2512 -0.3822  0.2561
 2553W        W18170   2.733  15.352   6.316  0.0308  0.2248 -0.2013
 2554W        W18171   7.820  13.160   2.464  0.2734  0.0545  0.1556
 2555W        W18172   2.576   0.077   3.362 -0.1678  0.0700  0.0082
 2556W        W18173  15.500  10.863   2.457 -0.5048  0.3666  0.3896
 2557W        W18174  12.400  14.133   1.431  0.2550  0.0549  0.1874
 2558W        W18175   2.772  11.378  15.800  0.1533 -0.1426 -0.1500
 2559W        W18176  15.294   7.753   2.688  0.1428 -0.0843 -0.0551
 2560W        W18177  17.979  16.014  11.853  0.2166 -0.5088  0.2584
 2561W        W18178  13.223   3.218   4.071 -0.1439  0.0216 -0.4553
 2562W        W18179  10.581  14.045   1.808  0.0977 -0.5223  0.2061
 2563W        W18180   7.165   1.154   0.450  0.1759 -0.2017  0.2693
 2564W        W18181  12.028   2.197   4.851 -0.0070 -0.1510 -0.1206
 2565W        W18182  16.677  17.246   3.715 -0.1094 -0.5801  0.0708
 2566W        W18183   3.406   2.720   0.496 -0.0367 -0.1548  0.1004
 2567W        W18184   6.137  11.739   4.325  0.3171  0.0110 -0.1428
 2568W        W18185   9.056   1.631  12.205 -0.0737 -0.1734  0.1366
 2569W        W18186   2.272   6.529  12.325  0.1578  0.4271 -0.2663
 2570W        W18187  10.060  13.943  12.400 -0.1433 -0.2321 -0.1297
 2571W        W18188   6.275  13.153  12.132  0.2214  0.1871 -0.0168
 2572W        W18189   8.405   9.297  15.482 -0.1699  0.2101  0.2388
 2573W        W18190  12.810  14.359   0.455 -0.2617  0.1695  0.0417
 2574W        W18191   1.322   8.143  12.752 -0.0798 -0.3069  0.1456
 2575W        W18192   7.583  17.196   3.202 -0.0234 -0.1181 -0.0975
 2576W        W18193   8.631   1.923   0.358  0.1755  0.1925 -0.0094
 2577W        W18194  14.586   0.189   1.802  0.3223  0.2165 -0.4598
 2578W        W18195   7.017   7.659  15.601  0.3341  0.0996 -0.0080
 2579W        W18196   0.693   9.310   3.656  0.4748 -0.2935  0.0566
 2580W        W18197  18.001  13.129  12.441  0.1531 -0.0392 -0.0718
 2581W        W18198  10.294  17.716   5.605  0.1532 -0.0093  0.1255
 2582W        W18199  16.783   2.292   5.129 -0.3665  0.1045 -0.1153
 2583W        W18200   9.652  12.810  13.008 -0.2858  0.0700 -0.1987
 2584W        W18201   8.399   1.653   2.595 -0.0881 -0.1680  0.0674
 2585W        W18202  11.852   8.360   4.393  0.1184  0.0333  0.1574
 2586W        W18203  11.813  11.435  16.439 -0.1362  0.0015 -0.1477
 2587W        W18204   9.821  17.297   1.127  0.0854  0.1228 -0.1390
 2588W        W18205  10.607  16.604   1.379  0.2604 -0.0860 -0.0215
 2589W        W18206   3.257   6.689   1.868  0.0929  0.1006 -0.1858
 2590W        W18207   9.646   7.238  16.292 -0.0293  0.1431  0.0899
 2591W        W18208   3.117  15.433   5.472  0.2507 -0.0270  0.0881
 2592W        W18209   4.848   4.369  12.124 -0.3663  0.2868 -0.0151
 2593W        W18210   0.243  15.201   0.612  0.3344 -0.2933  0.0265
 2594W        W18211  16.685   4.906   1.189 -0.2021 -0.3526 -0.0799
 2595W        W18212   7.811  14.168  12.147  0.0462 -0.1899  0.0926
 2596W        W18213   2.362   5.770   2.514  0.1071  0.2322 -0.0838
 2597W        W18214  11.446  12.002   0.272  0.1755 -0.2958  0.1385
 2598W        W18215  13.391  16.945   0.812  0.2196  0.1549 -0.1408
 2599W        W18216  10.498  10.573  15.636  0.1009  0.0433 -0.2917
 2600W        W18217  11.733   5.092  15.048  0.0182  0.0522  0.4531
 2601W        W18218   5.744   8.120  12.463  0.0137  0.0199 -0.0420
 2602W        W18219   2.317  15.185  14.505  0.1728 -0.0725  0.1903
 2603W        W18220  11.509  17.665   2.700 -0.1841 -0.0767 -0.1460
 2604W        W18221  15.264  10.054   1.047 -0.0671 -0.1743 -0.2962
 2605W        W18222   1.719   7.555   0.135 -0.3981 -0.1375 -0.1997
 2606W        W18223  16.766   1.803   2.467  0.0864 -0.0849  0.1294
 2607W        W18224   0.572   3.632   0.729 -0.2447  0.0184 -0.0039
 2608W        W18225   9.275   3.332  11.780 -0.0326  0.2724  0.1574
 2609W        W18226   8.470  14.729  11.449 -0.0297  0.1675 -0.1474
 2610W        W18227  10.387   9.752  10.648  0.0432 -0.1112 -0.0114
 2611W        W18228  10.041   7.177   3.223  0.0320 -0.0136  0.1565
 2612W        W18229   7.770   0.549   2.405 -0.2023  0.4098  0.2252
 2613W        W18230   2.222   8.238   3.439 -0.0881 -0.3197 -0.4285
 2614W        W18231   6.612  15.305   1.891 -0.0333  0.0850  0.3224
 2615W        W18232   3.939  15.840  16.260  0.0168  0.3010 -0.0250
 2616W        W18233   2.366   7.874  14.912  0.0692 -0.1089  0.0378
 2617W        W18234  17.462   2.724   0.388 -0.2279  0.1159 -0.0173
 2618W        W18235  10.381  12.422  14.396 -0.1798  0.0831 -0.1244
 2619W        W18236  17.692  17.290   5.606  0.0082  0.1138  0.1830
 2620W        W18237  13.461   1.069  12.798 -0.2944 -0.0653  0.0741
 2621W        W18238   1.254   7.857   1.684 -0.0209 -0.0595 -0.3333
 2622W        W18239   9.436  13.098  12.577  0.3008 -0.3713  0.1293
 2623W        W18240  10.589   5.807   0.380  0.3173  0.5214 -0.2044
 2624W        W18241   5.747   0.574   2.209 -0.0043 -0.1752 -0.0083
 2625W        W18242  17.151   0.474   0.363  0.1507  0.2347  0.3300
 2626W        W18243   1.336  11.555   1.154  0.0465 -0.0710  0.4411
 2627W        W18244   4.372   8.440   0.278  0.0924 -0.3234  0.0922
 2628W        W18245  15.694   0.823   0.544 -0.0913  0.2041 -0.0102
 2629W        W18246   6.009   9.008  16.736  0.1998  0.0290  0.0011
 2630W        W18247   8.217  16.174  14.267 -0.0981  0.0038 -0.2061
 2631W        W18248  14.320   5.783  11.796  0.2469  0.3926  0.2257
 2632W        W18249  11.399   6.260   3.889 -0.2067 -0.2268  0.0829
 2633W        W18250   7.607   0.629  13.378 -0.1335 -0.0877  0.1664
 2634W        W18251   2.916   8.696  14.524  0.3643  0.1952 -0.1275
 2635W        W18252   5.555   5.090   1.346  0.3060 -0.2454  0.0492
 2636W        W18253   2.994   6.689   2.295  0.0730  0.1046 -0.1631
 2637W        W18254   6.229   4.115  12.225  0.1135  0.0389 -0.0005
 2638W        W18255   9.557  17.277  15.951  0.0647  0.1786  0.1387
 2639W        W18256   7.251   4.265   5.795  0.0749  0.3606 -0.2795
 2640W        W18257   0.676   7.273   5.717 -0.0128 -0.3316  0.0469
 2641W        W18258  17.566   9.516   4.711  0.0522 -0.0464 -0.0477
 2642W        W18259   1.004  15.056  14.091 -0.1919 -0.0785  0.1372
 2643W        W18260  10.995   4.138  16.174 -0.0149 -0.1293  0.1050
 2644W        W18261  11.998  15.523   1.396  0.2796 -0.1740  0.2083
 2645W        W18262  10.174  13.225  13.207  0.2332 -0.2440  0.2307
 2646W        W18263  11.509   6.301  14.353 -0.0975  0.2153 -0.1036
 2647W        W18264  17.402   1.834   4.821 -0.2758  0.1308 -0.0375
 2648W        W18265  14.192  11.046   0.153  0.0559 -0.0941 -0.1071
 2649W        W18266   0.701  16.655  15.228  0.1072 -0.1067  0.0990
 2650W        W18267  11.541   8.951  15.067  0.2209  0.3148  0.0130
 2651W        W18268   1.604   5.864  15.154 -0.0475 -0.0122 -0.0690
 2652W        W18269   6.225  16.944  12.707  0.0768  0.1981 -0.0654
 2653W        W18270   9.697  17.943   3.615 -0.0504 -0.1176  0.0391
 2654W        W18271   8.123  12.424  13.752 -0.2107 -0.0288 -0.2802
 2655W        W18272   3.154  16.381   6.284  0.1158  0.1914  0.2951
 2656W        W18273  11.615   2.576   0.683  0.0416  0.0820  0.2103
 2657W        W18274  12.344  11.731  14.620  0.1064  0.0952  0.2777
 2658W        W18275  17.324   4.106   3.036 -0.0405  0.1038 -0.1989
 2659W        W18276   4.645   3.277   2.925 -0.1667 -0.1269 -0.2907
 2660W        W18277   2.271  14.948  14.995 -0.0916  0.0092 -0.0412
 2661W        W18278   7.857  15.349  16.342  0.0148 -0.0490  0.0404
 2662W        W18279   3.122  10.080   5.052  0.0297 -0.0410 -0.1398
 2663W        W18280   5.641   4.812   5.555  0.1106 -0.3007 -0.2035
 2664W        W18281  13.742   2.850   6.183 -0.0134 -0.2101 -0.1098
 2665W        W18282  10.424   1.665  14.202  0.1840 -0.0158 -0.2054
 2666W        W18283   6.061  13.734   1.299  0.1800 -0.0428  0.2731
 2667W        W18284  11.778   5.036  16.056 -0.1243  0.0695  0.1201
 2668W        W18285   8.071  10.786   0.739  0.0585 -0.0063  0.4641
 2669W        W18286   5.590   1.231   1.413  0.0123 -0.2279  0.2608
 2670W        W18287   0.758   9.687   1.978  0.0397 -0.1079  0.2330
 2671W        W18288   5.383  13.685   2.659 -0.2470 -0.2524 -0.0674
 2672W        W18289  13.868   1.225   5.529  0.2992 -0.2717  0.2416
 2673W        W18290  17.420  13.219   4.939 -0.2231 -0.0582 -0.1704
 2674W        W18291  15.439  15.255   1.846  0.2471  0.1550 -0.2008
 2675W        W18292  11.513  14.231  13.202  0.0557  0.1169  0.0701
 2676W        W18293   4.869  16.871  11.963  0.2135  0.0893  0.0376
 2677W        W18294  15.414  17.902   1.131  0.1021 -0.2543 -0.0153
 2678W        W18295   6.281  13.654   0.414 -0.0975 -0.0168 -0.1998
 2679W        W18296   6.391   2.039   3.058  0.0373  0.0304  0.0784
 2680W        W18297   4.066  10.085  12.635 -0.0956 -0.2600  0.1154
 2681W        W18298  10.682   9.006  15.664  0.2862 -0.2223 -0.2161
 2682W        W18299   4.502  10.736  12.399 -0.0929 -0.0927  0.2354
 2683W        W18300  10.342  13.340   1.059  0.0425 -0.1165  0.4088
 2684W        W18301   7.325   4.821  14.070  0.1111  0.3178 -0.0676
 2685W        W18302  12.235   5.342   5.415 -0.1054 -0.1279 -0.0819
 2686W        W18303  12.796   4.924   0.258  0.0705  0.0438  0.4567
 2687W        W18304  17.415  16.655   2.801  0.2144  0.1314 -0.2447
 2688W        W18305   2.135   9.331   5.263 -0.2032  0.1620  0.3534
 2689W        W18306  16.802   0.257   1.241  0.1892  0.2081  0.0862
 2690W        W18307   8.353   7.582   1.494 -0.1892  0.0103 -0.2539
 2691W        W18308   0.532  11.494  11.964  0.0607 -0.0742  0.1050
 2692W        W18309  17.366  17.771   1.073 -0.0507  0.5568  0.1554
 2693W        W18310   4.195  13.404  13.213 -0.1258 -0.4053  0.0553
 2694W        W18311  10.060   7.897  11.962 -0.0899 -0.0040  0.3408
 2695W        W18312  12.063  15.038  11.921 -0.0470 -0.0523 -0.0117
 2696W        W18313   7.723  18.015  12.054  0.2167 -0.0514 -0.1097
 2697W        W18314  14.762   3.013  14.072 -0.0709  0.1880  0.1890
 2698W        W18315   1.711   5.676  12.135  0.0809  0.1697 -0.3588
 2699W        W18316   5.720  11.393   1.577  0.1481  0.1269  0.0055
 2700W        W18317   1.503  16.290   4.784 -0.2513  0.2394  0.0193
 2701W        W18318  17.510  13.713   4.841 -0.2205  0.2523 -0.2169
 2702W        W18319   9.222   8.212  11.596  0.3823  0.1582  0.1301
 2703W        W18320  17.485  16.635  14.688 -0.2950 -0.1247  0.0217
 2704W        W18321   4.590   8.683  14.860 -0.3677  0.3180 -0.0684
 2705W        W18322   1.340  17.483   6.315 -0.0767 -0.0065  0.0101
 2706W        W18323  11.015   8.305   3.460 -0.0154  0.2657 -0.4255
 2707W        W18324   7.787   1.731  13.977 -0.3770 -0.0780  0.0443
 2708W        W18325   4.483   3.526  15.840  0.2315 -0.2025 -0.4457
 2709W        W18326   7.944  17.044   0.419  0.0813  0.0115 -0.1065
 2710W        W18327  13.924  10.993   3.677 -0.2794  0.2224  0.1752
 2711W        W18328  14.430  11.870   0.225  0.1341  0.0126 -0.2502
 2712W        W18329   0.962   3.514  15.152 -0.2136 -0.1270  0.0950
 2713W        W18330   1.524   2.704  16.637  0.2186 -0.2546  0.0846
 2714W        W18331   0.631  13.363  15.739  0.0230 -0.1298  0.1739
 2715W        W18332   1.699  12.696  12.348  0.0371  0.0370 -0.1539
 2716W        W18333   6.366   8.511  16.035 -0.2761  0.1070 -0.1647
 2717W        W18334   1.514   4.149  14.242  0.2757 -0.2032 -0.2012
 2718W        W18335   3.726   4.154   0.550  0.3235 -0.2504  0.0944
 2719W        W18336   4.701   6.833  16.715  0.2355 -0.1448  0.0572
 2720W        W18337  17.883   2.365   1.690 -0.2310 -0.0436  0.0836
 2721W        W18338  16.855   2.893   6.498  0.0379  0.0487 -0.3259
 2722W        W18339  13.351   8.748  12.339 -0.1938  0.1915  0.3222
 2723W        W18340  11.465   3.338  16.690 -0.1156  0.2431  0.0541
 2724W        W18341   3.315  12.736  13.920 -0.1977  0.1793 -0.1702
 2725W        W18342   0.974   0.549  15.372 -0.2095  0.3410  0.0573
 2726W        W18343  15.187   6.929   2.392  0.3408 -0.0289  0.2255
 2727W        W18344  11.710   7.294  14.147  0.0256  0.2305  0.2215
 2728W        W18345  17.382   7.554  12.234 -0.1137  0.1067 -0.3781
 2729W        W18346   1.312   3.664  13.334  0.0264  0.2510  0.3932
 2730W        W18347   9.718   0.071   5.983  0.2507 -0.1138  0.1739
 2731W        W18348  11.285   6.069   1.170 -0.0921  0.1336  0.0530
 2732W        W18349   5.275  14.307  13.152 -0.1262 -0.0579  0.1861
 2733W        W18350  13.386   5.940   4.111  0.1312  0.1871  0.1516
 2734W        W18351   3.477  15.683   5.660 -0.1577 -0.1011  0.0873
 2735W        W18352   5.776   1.521   2.915 -0.1073  0.1329  0.0843
 2736W        W18353   6.239   9.869  13.610  0.1710 -0.0261 -0.0020
 2737W        W18354   8.142  12.601   1.419 -0.0527 -0.1477  0.2014
 2738W        W18355   2.445  14.071   5.161  0.0396  0.0729  0.2784
 2739W        W18356   3.714   4.557   2.217 -0.0039 -0.1665  0.0970
 2740W        W18357   6.354   0.236  13.073  0.0169 -0.0943  0.0576
 2741W        W18358  10.237  13.062  11.390  0.2453 -0.1320  0.0866
 2742W        W18359  10.319   4.770   2.027  0.2158 -0.0980 -0.0815
 2743W        W18360   9.878  13.444  10.767  0.0296 -0.1053 -0.2045
 2744W        W18361   8.902   7.371   0.103  0.0606 -0.3525 -0.1325
 2745W        W18362  15.230   8.244   4.221 -0.1348 -0.0874  0.1518
 2746W        W18363   3.033   8.212  16.700  0.3098 -0.0863 -0.3939
 2747W        W18364   5.286   8.483  10.804 -0.1503  0.0263  0.1881
 2748W        W18365   2.263   8.614   3.950  0.0039 -0.1754 -0.0709
 2749W        W18366   5.085  12.290  16.709  0.2397 -0.3617 -0.3528
 2750W        W18367   0.354  13.863   4.270 -0.0989  0.0933 -0.2115
 2751W        W18368  14.684  13.865   2.572 -0.0561 -0.2037 -0.4052
 2752W        W18369   1.634  15.418   2.334 -0.0558  0.0244 -0.2015
 2753W        W18370   7.947   7.697  14.509  0.1421  0.1263  0.0320
 2754W        W18371  10.079  16.049  12.350  0.1411  0.1215  0.1984
 2755W        W18372   6.377   1.054   4.912 -0.0049  0.0610  0.0748
 2756W        W18373   0.005   7.761  14.100  0.4004  0.2053 -0.3158
 2757W        W18374   7.929  10.543   3.308  0.0360 -0.2045  0.0504
 2758W        W18375   2.371  16.454   5.789 -0.3695 -0.0977  0.3168
 2759W        W18376   0.487   0.336  15.333 -0.0304 -0.2678 -0.0003
 2760W        W18377  11.929  15.279   2.838  0.2587 -0.1918  0.1274
 2761W        W18378  15.605   2.408  13.107  0.2278  0.1189  0.2503
 2762W        W18379   1.307   8.295  11.734  0.1175 -0.3139  0.2350
 2763W        W18380  12.226   2.729   5.226 -0.0065 -0.0570  0.2483
 2764W        W18381   4.050   1.788  13.793 -0.2796  0.0978 -0.0685
 2765W        W18382  16.358   6.805  13.489 -0.0763  0.2041  0.0390
 2766W        W18383   0.953  14.038  13.190 -0.0997  0.2378 -0.0880
 2767W        W18384  11.275   1.565   1.992 -0.0041 -0.0918 -0.1748
 2768W        W18385  14.032   7.825   4.296  0.0294 -0.0968 -0.3763
 2769W        W18386  10.314  11.693  13.432  0.0439  0.1606  0.1658
 2770W        W18387   2.131  10.746   0.042 -0.1271  0.2134 -0.2827
 2771W        W18388  12.740   9.731  15.518 -0.2253 -0.1025 -0.0387
 2772W        W18389  16.380   2.146   1.601  0.1430  0.1605 -0.0622
 2773W        W18390  10.623   9.936  15.522 -0.0610 -0.0417  0.5721
 2774W        W18391   0.348   9.992   3.747  0.0591  0.0090 -0.2353
 2775W        W18392   5.206  13.539  12.368  0.0031 -0.2976  0.0208
 2776W        W18393  12.203   4.235  14.249 -0.3687  0.2326  0.1159
 2777W        W18394   4.546  16.638   2.386 -0.2531 -0.5129  0.1085
 2778W        W18395  17.962  12.229   2.042 -0.0725  0.0414 -0.2419
 2779W        W18396   2.290   0.353   4.557  0.0726  0.0886 -0.0130
 2780W        W18397   9.038   1.935  15.480 -0.1848  0.1546 -0.0978
 2781W        W18398   7.014  14.227  14.736  0.0528 -0.1521 -0.0096
 2782W        W18399   1.645  13.702  13.944 -0.0592  0.1068 -0.0811
 2783W        W18400   8.600  16.112  12.427  0.2378 -0.0174 -0.2615
 2784W        W18401  13.084  10.947  10.828 -0.1494 -0.1758 -0.1457
 2785W        W18402  10.858   7.628  15.846  0.0634  0.0872 -0.2364
 2786W        W18403   3.104   5.474   0.460 -0.0255 -0.0019 -0.0773
 2787W        W18404   7.043  14.739  14.844 -0.5527 -0.0125  0.2100
 2788W        W18405   2.982  17.068  13.927 -0.0417  0.0236  0.1688
 2789W        W18406   2.552  12.133  15.085 -0.0648 -0.1015 -0.0988
 2790W        W18407   6.117   0.848  11.614  0.0151  0.3038  0.0799
 2791W        W18408   5.858   1.979   3.737  0.3097  0.0955  0.0099
 2792W        W18409   5.019   6.260  13.901  0.3917  0.1030  0.2437
 2793W        W18410  12.691   9.132   1.034 -0.0123 -0.0883 -0.2983
 2794W        W18411   8.852   5.205   0.563  0.0305  0.3558  0.2662
 2795W        W18412   3.256  15.249  11.958 -0.0976 -0.0269  0.3000
 2796W        W18413   1.099  13.142  12.990  0.1635  0.0625  0.1888
 2797W        W18414  13.233   8.299   2.397  0.1012 -0.2196 -0.3162
 2798W        W18415   9.791   6.159  11.599 -0.2425 -0.0272 -0.1345
 2799W        W18416   1.171  16.782  14.172 -0.0512  0.2132  0.0728
 2800W        W18417   8.719  15.939   3.954 -0.0798  0.2138  0.1890
 2801W        W18418   7.716  15.102  12.571  0.1306  0.0028 -0.1320
 2802W        W18419   4.912   1.360   5.789  0.2363  0.0819 -0.0767
 2803W        W18420   6.616  13.382   3.839  0.2010  0.0627  0.0959
 2804W        W18421  15.006   5.225  12.392  0.2239 -0.2844  0.2556
 2805W        W18422   5.627   7.637   0.610  0.1012  0.0404  0.1911
 2806W        W18423  14.339   7.518   3.080 -0.1415 -0.1603 -0.2998
 2807W        W18424   4.479  14.715   2.301 -0.0547 -0.1786 -0.1985
 2808W        W18425  16.104  14.417  15.345  0.1222 -0.0384 -0.3619
 2809W        W18426  17.652  15.142  11.839  0.0807 -0.1899 -0.2063
 2810W        W18427   0.767  12.753   3.457 -0.0300  0.2087 -0.0290
 2811W        W18428  17.033   4.734  11.478  0.0730  0.0427  0.2288
 2812W        W18429   3.692   4.126  14.618 -0.2222 -0.1667  0.0302
 2813W        W18430   7.424   8.239  12.814  0.4071 -0.0005 -0.0818
 2814W        W18431  12.619  17.723  12.943 -0.0679 -0.1247 -0.4885
 2815W        W18432   9.313   8.904   2.160 -0.1113 -0.0664  0.2976
 2816W        W18433  15.174  12.833  11.396 -0.0708  0.4195  0.2267
 2817W        W18434  13.934   8.290  14.908  0.0139  0.1410 -0.0002
 2818W        W18435  12.248  10.178  11.873 -0.0715  0.0144 -0.0375
 2819W        W18436  11.023  12.640   5.676 -0.0644  0.0440  0.0818
 2820W        W18437  14.843  10.483   5.507  0.2195 -0.2173 -0.0032
 2821W        W18438  17.944   7.128   2.457 -0.0812  0.0150 -0.1690
 2822W        W18439   2.842  12.555  14.981  0.0194 -0.1580 -0.3754
 2823W        W18440   7.811   8.700   5.204 -0.6678 -0.0432  0.1127
 2824W        W18441  15.157   0.830   1.946  0.0785  0.0519 -0.0717
 2825W        W18442   9.556   5.874   5.112 -0.0449  0.2213  0.1222
 2826W        W18443   8.317   6.187   0.880  0.0633 -0.0251 -0.0518
 2827W        W18444  15.126   8.863   6.267  0.0534  0.0190 -0.1305
 2828W        W18445  16.366  12.022  14.460  0.0710  0.0103 -0.1012
 2829W        W18446   7.838   0.420   6.358  0.3264 -0.1518 -0.1984
 2830W        W18447   0.929   8.288   2.729 -0.0699  0.3693 -0.1069
 2831W        W18448  10.184   1.619   5.561 -0.5390  0.1329  0.0078
 2832W        W18449   9.504   3.770   1.553 -0.2474  0.0035  0.0880
 2833W        W18450   7.846  12.356  15.953  0.0814  0.1268  0.2688
 2834W        W18451  12.838   6.941   1.093  0.2356 -0.0336  0.0250
 2835W        W18452  15.469  13.473  15.251  0.0661  0.0276  0.2929
 2836W        W18453   8.964  15.606   0.389 -0.0112  0.1976 -0.0326
 2837W        W18454   7.827   4.251  12.741  0.2602  0.2203 -0.3569
 2838W        W18455   4.145   5.522  13.813 -0.0684 -0.2670 -0.1655
 2839W        W18456  12.340   4.937  15.367  0.2129 -0.0663 -0.0137
 2840W        W18457  10.001  14.766   2.527  0.1516  0.3013 -0.0341
 2841W        W18458   7.673   5.046   6.360 -0.1368  0.2787  0.1192
 2842W        W18459   3.672  16.807  16.326 -0.1151  0.0233 -0.2313
 2843W        W18460  11.250  16.488  15.040  0.0302 -0.0708  0.0527
 2844W        W18461  17.102   6.353   5.849 -0.2388  0.0375 -0.3634
 2845W        W18462   7.730   7.711  14.036  0.2590 -0.0065  0.1953
 2846W        W18463   1.241   0.178   5.751  0.0482  0.1783  0.1630
 2847W        W18464  15.483  13.980  15.113  0.0969  0.0823 -0.0655
 2848W        W18465   6.775  17.471   0.987  0.3925  0.0175  0.1478
 2849W        W18466  11.002  14.832   0.526 -0.0826 -0.1189 -0.1281
 2850W        W18467  16.663  14.364   5.301  0.0799 -0.1892 -0.1447
 2851W        W18468   7.307   6.073   3.105  0.2758  0.2454 -0.0521
 2852W        W18469  13.517  17.622   3.032 -0.1264  0.1240  0.0619
 2853W        W18470   3.510  12.200   5.476  0.2245  0.1497 -0.2489
 2854W        W18471  11.968   9.038   1.745  0.2296  0.0065 -0.1003
 2855W        W18472  14.674   6.197  15.962  0.0972  0.2139  0.0679
 2856W        W18473   2.356  10.756   5.542 -0.1671  0.1625  0.0747
 2857W        W18474   4.487   4.531  13.064 -0.5051  0.1631  0.0241
 2858W        W18475  16.792  10.849  13.014 -0.2212  0.1333  0.1305
 2859W        W18476  11.370  13.091   1.461  0.1473 -0.0616  0.3378
 2860W        W18477   7.926   3.671   4.675 -0.1373 -0.1186 -0.1742
 2861W        W18478   5.328   7.931  16.265 -0.0882  0.0593 -0.5003
 2862W        W18479   2.531   0.397   6.394 -0.1371  0.0321  0.2293
 2863W        W18480   3.088  17.524  16.246 -0.4380 -0.1071  0.1710
 2864W        W18481   3.467  14.887  11.605 -0.1310  0.0224 -0.1953
 2865W        W18482  14.938  17.045  14.830  0.1798  0.1658  0.2176
 2866W        W18483  10.243   4.897   2.957 -0.0426 -0.0993  0.0951
 2867W        W18484  13.289   0.773  13.313 -0.0198  0.1725 -0.0210
 2868W        W18485   6.593  10.136  12.632  0.3841  0.0566  0.3311
 2869W        W18486   1.931  18.023   3.688 -0.3355  0.0861 -0.3289
 2870W        W18487  17.079  17.313   0.980  0.0308  0.0949 -0.2158
 2871W        W18488   0.541   3.995   6.550 -0.1548  0.3717 -0.0961
 2872W        W18489   6.865  15.275  11.611  0.0752 -0.0646 -0.0402
 2873W        W18490  10.280  13.630  11.473  0.1442  0.0938 -0.0855
 2874W        W18491   4.309  15.417   0.744 -0.0986  0.1916 -0.0682
 2875W        W18492   9.579   7.336  14.900 -0.1597  0.0427  0.1561
 2876W        W18493   1.239  10.577  12.918 -0.1105 -0.1951  0.3639
 2877W        W18494  10.905   6.086   0.186 -0.0779  0.2499 -0.1461
 2878W        W18495   6.309  14.226  12.099  0.0161 -0.1613  0.2094
 2879W        W18496   2.154  10.428  14.919 -0.0883 -0.2130 -0.0033
 2880W        W18497   8.358  13.767  14.714 -0.1199  0.1767  0.1441
 2881W        W18498  12.929   5.951   2.531  0.2248  0.0481 -0.0841
 2882W        W18499   5.338   9.329   5.376  0.3043 -0.1215  0.2590
 2883W        W18500   9.863   0.268   5.056 -0.0710 -0.1541  0.2214
 2884W        W18501   1.076   1.451  13.084  0.1319 -0.0439  0.0081
 2885W        W18502  17.232   1.933   3.324 -0.1000 -0.0890 -0.0840
 2886W        W18503   6.900   1.016  12.444  0.0739 -0.0233 -0.0485
 2887W        W18504   8.200  12.332  16.717  0.2692  0.1769  0.6917
 2888W        W18505  17.992  16.411  15.528  0.0847  0.2501  0.1960
 2889W        W18506  14.279  17.581  12.841  0.2801  0.2088  0.1065
 2890W        W18507   8.333   5.290   3.657 -0.0713  0.1471  0.1183
 2891W        W18508  17.378  12.864  16.056  0.2819  0.0737  0.2666
 2892W        W18509   6.996   4.104  11.959 -0.2175  0.1302 -0.0932
 2893W        W18510   5.239   2.018  14.306 -0.0271 -0.2175 -0.0162
 2894W        W18511  11.672  16.336  12.187 -0.0341  0.0115  0.1477
 2895W        W18512  13.302   4.136  12.036  0.0746  0.1951 -0.0161
 2896W        W18513  11.457  14.076   4.152  0.0654  0.0317  0.0804
 2897W        W18514   1.960  10.761  11.809 -0.0057 -0.0953  0.2596
 2898W        W18515  16.085   0.216   4.394  0.0553 -0.2442  0.3049
 2899W        W18516   4.285   2.306   1.143 -0.2336 -0.0746  0.0906
 2900W        W18517  11.270  15.041   3.084  0.1103  0.0711 -0.5023
 2901W        W18518  15.542   0.389   5.990  0.2102  0.3833  0.1519
 2902W        W18519   3.923  10.491   5.053  0.0903  0.1003 -0.3551
 2903W        W18520  15.928   7.000   4.030 -0.0640 -0.1133 -0.0657
 2904W        W18521   2.933   8.759   2.961 -0.2026  0.0917  0.4529
 2905W        W18522   7.875  10.163  10.085 -0.2353  0.3767 -0.1086
 2906W        W18523  15.337  11.989   4.350  0.2071 -0.2438 -0.0129
 2907W        W18524   5.573  14.707  13.759 -0.1644 -0.0674 -0.0196
 2908W        W18525   7.039  10.788   2.853 -0.2309 -0.0316 -0.3364
 2909W        W18526   3.562  14.430   2.161  0.1374  0.2229 -0.0227
 2910W        W18527   0.951   0.155   3.514  0.3240 -0.0752 -0.0243
 2911W        W18528   0.774  17.720   4.356 -0.0523  0.0697 -0.1487
 2912W        W18529   7.565  16.118  15.249 -0.0653  0.0210 -0.3567
 2913W        W18530  14.530   8.718   3.530  0.0045 -0.0815 -0.0919
 2914W        W18531  16.314   6.090   0.179  0.1260  0.2515 -0.0722
 2915W        W18532  13.818  14.822  14.348 -0.0530 -0.0634 -0.1305
 2916W        W18533   2.559   8.072  16.711 -0.2312  0.1616  0.2053
 2917W        W18534   8.463   3.182  12.516 -0.2075  0.2783 -0.1993
 2918W        W18535   6.313  13.013   3.310 -0.0412 -0.1271 -0.1059
 2919W        W18536   3.874  17.770  13.352 -0.2702 -0.1919  0.2520
 2920W        W18537   1.494  12.281   1.889 -0.1719  0.1291 -0.1393
 2921W        W18538  15.063  10.472  15.394  0.1088  0.1073  0.0721
 2922W        W18539   3.945   0.599   5.205 -0.2385  0.4001 -0.0417
 2923W        W18540   4.634  17.293   0.075 -0.0697  0.0040 -0.0780
 2924W        W18541   7.905  15.808   3.208 -0.0751  0.0148 -0.0002
 2925W        W18542   7.708   7.305  13.764  0.2373  0.0936 -0.0232
 2926W        W18543   8.029  17.306  13.286  0.0527  0.1422 -0.0775
 2927W        W18544  15.707   4.964  14.805  0.0065  0.1576  0.2376
 2928W        W18545  11.010  12.672   1.515 -0.0002  0.3708 -0.1125
 2929W        W18546  14.580  13.467   0.962  0.2374 -0.2272 -0.1139
 2930W        W18547  12.416  16.213   2.564  0.3736 -0.2674  0.1703
 2931W        W18548   2.511   1.568  11.952 -0.0443 -0.1298  0.0832
 2932W        W18549   3.082   7.772  13.557 -0.1334 -0.1291 -0.2400
 2933W        W18550   5.461  15.365   4.381  0.0611 -0.0794 -0.2949
 2934W        W18551   1.285   7.844   0.266  0.0520  0.2363 -0.0098
 2935W        W18552  14.311  10.997   1.978 -0.0243  0.1542  0.2589
 2936W        W18553   1.686   1.026   5.638  0.1217 -0.3102 -0.2428
 2937W        W18554   6.652   5.604  12.449 -0.3255 -0.1558 -0.1860
 2938W        W18555   0.156  14.281  15.013 -0.1090  0.1723  0.0111
 2939W        W18556   8.557   3.883  16.464 -0.1231  0.2436  0.2236
 2940W        W18557   4.445  12.522  11.173 -0.0509 -0.0603 -0.1360
 2941W        W18558  11.660   7.942  12.956 -0.2866  0.0279  0.1508
 2942W        W18559   2.439  13.577  15.546 -0.0999 -0.1400  0.1082
 2943W        W18560   4.604  11.012  12.870  0.0220 -0.3032  0.3154
 2944W        W18561  10.473  15.189   2.691 -0.0661  0.1183 -0.0988
 2945W        W18562   3.224   4.776  16.066  0.0744 -0.1859  0.0999
 2946W        W18563   9.586  11.724   3.334 -0.0480 -0.2242 -0.2100
 2947W        W18564  10.376   2.733  15.148 -0.0409 -0.1205 -0.0380
 2948W        W18565  13.810   4.635   3.838 -0.1202  0.0837 -0.0707
 2949W        W18566  16.615  16.300  12.046  0.1964 -0.4444 -0.1133
 2950W        W18567   5.606  15.517  11.769  0.1980 -0.1338 -0.1918
 2951W        W18568   6.942  17.590  16.463 -0.1042 -0.1814  0.2103
 2952W        W18569   7.921   9.057  16.786 -0.0037 -0.0013 -0.0355
 2953W        W18570  12.437  12.734   2.437 -0.1497 -0.3089  0.4221
 2954W        W18571   1.996   5.020   1.241  0.0604 -0.1227  0.0208
 2955W        W18572   7.078   0.474   2.228 -0.0083 -0.0347 -0.0249
 2956W        W18573  15.387   4.557   3.302  0.0959 -0.0266  0.2344
 2957W        W18574   0.429   8.440   0.128  0.1671 -0.0211 -0.2412
 2958W        W18575   9.098  10.981  11.317  0.1219 -0.3032  0.1562
 2959W        W18576   1.829  16.597   4.475  0.0053 -0.1206  0.0555
 2960W        W18577  13.305   0.665  16.740  0.0942 -0.0122 -0.1052
 2961W        W18578  17.010   9.951  12.010 -0.1041 -0.2569  0.2792
 2962W        W18579  11.980   6.869   0.840 -0.0729  0.0443 -0.2452
 2963W        W18580  16.520   0.334  12.191  0.0220  0.1987 -0.0661
 2964W        W18581   4.862  16.626  12.454  0.2553 -0.1392  0.1940
 2965W        W18582  16.963  14.099   5.029  0.0564  0.2427  0.4334
 2966W        W18583   0.833   9.215   1.820 -0.0056 -0.0206  0.1316
 2967W        W18584  13.482   4.536  15.484 -0.4225 -0.0088 -0.0803
 2968W        W18585   8.208  12.226  16.235 -0.0075 -0.0637 -0.3199
 2969W        W18586   1.886  14.737   0.851 -0.1255 -0.0929  0.0844
 2970W        W18587   0.058  18.022  16.307  0.2452  0.2108  0.1462
 2971W        W18588   9.764   9.388   1.243 -0.0208 -0.0922  0.1178
 2972W        W18589   5.191   8.820  12.131 -0.0742 -0.2593  0.2220
 2973W        W18590   0.204  15.128  16.367 -0.2044  0.1157 -0.1321
 2974W        W18591   4.863   7.629   0.022 -0.3056 -0.2448  0.2574
 2975W        W18592  15.304   0.998  15.289  0.3556  0.0512  0.0307
 2976W        W18593   0.382   7.299  12.752 -0.1053 -0.1578 -0.0248
 2977W        W18594  13.952  15.887  13.744 -0.1592 -0.2075 -0.3360
 2978W        W18595   1.212  12.412  12.019  0.0931  0.0052 -0.3898
 2979W        W18596   2.422  16.906   3.260 -0.1579 -0.2529 -0.1110
 2980W        W18597   6.178  11.263   0.160  0.0377  0.1930 -0.0582
 2981W        W18598  14.410   8.409   5.476 -0.5311 -0.2362 -0.2454
 2982W        W18599   1.546  10.736   1.417  0.2787  0.0462  0.0166
 2983W        W18600  11.390   0.732  16.308  0.2296  0.0434 -0.0050
 2984W        W18601   5.950   6.356   1.738 -0.1613 -0.2558 -0.1966
 2985W        W18602  13.786  15.436  13.966 -0.0208  0.1856 -0.1850
 2986W        W18603   9.765  16.986  15.571 -0.1362 -0.0958 -0.1735
 2987W        W18604   6.234   2.189  14.637 -0.0889 -0.2333 -0.2098
 2988W        W18605   2.352   1.870   1.875 -0.1903 -0.0690 -0.1346
 2989W        W18606   4.565   8.833   0.731 -0.0597  0.0946 -0.0549
 2990W        W18607   5.597   0.613  12.506  0.0716  0.0220 -0.1589
 2991W        W18608   3.778   5.336  13.441  0.0487 -0.0813 -0.1754
 2992W        W18609   8.496  12.418  10.502  0.0946 -0.1476  0.0969
 2993W        W18610   6.254  17.539  16.259  0.0731  0.2387  0.0472
 2994W        W18611   3.098   8.019   2.248  0.1006  0.0743 -0.0285
 2995W        W18612  15.276  13.494  14.366 -0.0764 -0.0166  0.0149
 2996W        W18613   7.643   6.067  14.198 -0.0092  0.1333  0.0339
 2997W        W18614   8.578   2.015   5.021 -0.0839 -0.2890  0.0738
 2998W        W18615   3.254   0.232  15.862 -0.0275  0.1383  0.0216
 2999W        W18616  14.728  12.887  15.508  0.0612 -0.2234 -0.1167
 3000W        W18617  16.124   4.727  14.609  0.0691 -0.1422 -0.2581
 3001W        W18618  16.202  12.000  13.625 -0.0668  0.1590  0.0987
 3002W        W18619   1.329  13.371   4.247  0.4009  0.0937  0.2168
 3003W        W18620   4.937  16.964  13.110  0.2077 -0.2727 -0.0470
 3004W        W18621   0.021  10.598  12.434 -0.0902  0.3927  0.2222
 3005W        W18622  14.058   7.329   0.412  0.1599  0.3626 -0.1819
 3006W        W18623   2.397  14.649   0.899 -0.0731  0.0973 -0.2221
 3007W        W18624  14.768  11.178  13.214 -0.1992  0.2308 -0.1865
 3008W        W18625   3.218  13.358   3.096  0.2526 -0.1471 -0.0322
 3009W        W18626  11.291  14.777   2.493  0.1825 -0.0296  0.0341
 3010W        W18627  13.399   9.299  12.070 -0.1485  0.1313  0.0150
 3011W        W18628   2.256   6.030   1.456 -0.5676 -0.1767 -0.0295
 3012W        W18629  12.122   5.991   0.080  0.1825  0.2717  0.2321
 3013W        W18630  16.768   2.717  11.731  0.0878 -0.2110  0.0017
 3014W        W18631   8.446   9.957  11.885  0.0548 -0.1819  0.0269
 3015W        W18632  16.278   6.609   2.407 -0.0121  0.1766  0.0908
 3016W        W18633  14.668  15.514  12.252 -0.1115  0.0541  0.2155
 3017W        W18634  10.399  17.064   1.693 -0.1409  0.2030  0.0801
 3018W        W18635  15.829  15.032  13.358  0.1578 -0.2410  0.0726
 3019W        W18636  17.491   1.148  16.057  0.1869 -0.0654  0.0868
 3020W        W18637  11.189  13.691   3.903 -0.0730 -0.2347  0.3089
 3021W        W18638   1.615   2.793  15.024 -0.5833 -0.1986 -0.4075
 3022W        W18639   1.442   3.675  16.590  0.2082  0.4173  0.1187
 3023W        W18640  12.710  15.858  16.074  0.2340  0.1903 -0.0596
 3024W        W18641   5.072   0.113   0.340  0.1067  0.0436  0.0637
 3025W        W18642  11.148   8.430  13.567  0.1189 -0.3802  0.2490
 3026W        W18643   5.237   7.280   2.401  0.2871  0.1718  0.0904
 3027W        W18644  12.817   3.528   0.334  0.0923 -0.2080  0.0238
 3028W        W18645   1.710   3.199  16.463 -0.4665 -0.0236  0.0539
 3029W        W18646   5.104   0.548   1.032 -0.1047  0.0383  0.0591
 3030W        W18647   8.023   7.334  14.192 -0.1863 -0.0416  0.0063
 3031W        W18648   6.855  17.298  13.079  0.2371  0.0483  0.0865
 3032W        W18649   5.353  14.769   0.876  0.4388  0.1580 -0.0927
 3033W        W18650   7.693   5.517   2.550 -0.3135 -0.0637 -0.0232
 3034W        W18651  16.273  15.303  14.050 -0.0653  0.1934 -0.3280
 3035W        W18652  15.608   9.051   6.204 -0.1175  0.1021  0.0307
 3036W        W18653   5.548   5.314  11.509 -0.2612  0.0822  0.0768
 3037W        W18654  17.814   5.891  13.151  0.1734 -0.0030 -0.6998
 3038W        W18655   1.108  10.237  13.312 -0.0068  0.0863  0.2104
 3039W        W18656   8.394   9.554  12.344  0.2163  0.4720  0.2388
 3040W        W18657  10.690  16.661  16.488 -0.2311 -0.0586 -0.1382
 3041W        W18658  13.561   7.239  14.203  0.0951  0.3961 -0.0842
 3042W        W18659   0.301  11.592  16.556 -0.2511  0.1031  0.3013
 3043W        W18660   7.850  16.598   2.540 -0.1767  0.1612 -0.0396
 3044W        W18661  13.170   3.021   2.762  0.0794  0.0065  0.1376
 3045W        W18662   4.676  11.932   0.691 -0.1895  0.0501 -0.1242
 3046W        W18663   3.821   0.156  14.153 -0.2863  0.0456 -0.0346
 3047W        W18664   7.462  17.087  13.049  0.1223  0.0222  0.1171
 3048W        W18665  14.707  12.055   5.069 -0.2199 -0.4388  0.0443
 3049W        W18666  16.391   9.768   5.114  0.1708  0.1422  0.2666
 3050W        W18667   6.938  16.532  11.461 -0.1197 -0.1087  0.1167
 3051W        W18668  10.918  16.399  13.001  0.0824 -0.3315 -0.5557
 3052W        W18669  14.266   9.797   2.837  0.0362 -0.1765 -0.0605
 3053W        W18670   3.738   8.102  14.579  0.2355 -0.0978 -0.1926
 3054W        W18671   0.556  17.083   5.058  0.1913  0.1056  0.0423
 3055W        W18672   1.277   3.654   3.702  0.0022  0.1256  0.1368
 3056W        W18673   7.783  10.456   4.347 -0.1621 -0.0619 -0.2424
 3057W        W18674   1.439   5.918   1.511 -0.3751 -0.1159 -0.2550
 3058W        W18675   8.106  13.355  12.843  0.2141 -0.0301 -0.2441
 3059W        W18676   9.052   2.743   2.484 -0.2454 -0.1894  0.3037
 3060W        W18677  10.962  15.556   3.946 -0.0546  0.1897  0.0910
 3061W        W18678   2.079  10.080  11.845 -0.1168 -0.1471  0.0258
 3062W        W18679  16.479   3.656   0.229  0.2196 -0.0263  0.0934
 3063W        W18680   5.172   8.385  16.279 -0.2346  0.2234  0.1521
 3064W        W18681   5.074   9.035   3.436  0.1702 -0.1158  0.1326
 3065W        W18682  15.612  10.112   2.829 -0.1930  0.0143 -0.0718
 3066W        W18683   8.205   9.084  16.401 -0.0083  0.2969  0.0742
 3067W        W18684   6.771  11.479  12.339 -0.0747  0.0627 -0.0668
 3068W        W18685   7.264  13.306  16.136  0.1058  0.2224 -0.2247
 3069W        W18686  12.834  16.243   4.102  0.1606 -0.2133  0.1220
 3070W        W18687   9.247  10.279   0.239  0.0602 -0.2720 -0.2624
 3071W        W18688   7.170   9.574   0.394  0.1291  0.0159  0.1170
 3072W        W18689   0.739   2.859   1.103  0.1326  0.1568  0.0595
 3073W        W18690  14.472   5.014   5.325  0.0328 -0.3363 -0.2406
 3074W        W18691  13.104   7.488  11.837  0.3930 -0.2548  0.4856
 3075W        W18692   6.789  14.135   0.676  0.1697  0.0524 -0.0572
 3076W        W18693   5.618   9.215   0.185  0.0287  0.1580  0.1132
 3077W        W18694  14.930  11.456  14.232 -0.1066 -0.0017  0.0130
 3078W        W18695  15.681  11.364   0.259 -0.1806  0.1660 -0.1376
 3079W        W18696  11.984  15.544  12.704  0.2667  0.1287 -0.0834
 3080W        W18697  15.938   1.473   5.833 -0.2690  0.0299  0.1791
 3081W        W18698  16.154  11.654   0.324 -0.1382  0.1279  0.0540
 3082W        W18699   9.902  15.921  11.724  0.3281  0.3389  0.1075
 3083W        W18700  12.303   6.766  13.555 -0.0417 -0.0568  0.3748
 3084W        W18701   5.099  17.123   0.022  0.0370 -0.2588 -0.0739
 3085W        W18702  12.587   8.450  12.817 -0.0668 -0.0427 -0.2270
 3086W        W18703  18.046   7.250  14.821  0.1660  0.0383 -0.3321
 3087W        W18704  12.414   4.995   5.133 -0.1417 -0.0094  0.2081
 3088W        W18705   8.224   2.981  14.514  0.1046  0.1549  0.0119
 3089W        W18706  12.289   5.529  14.082  0.0140 -0.1322  0.0325
 3090W        W18707   7.227  13.806   0.729  0.3155  0.2646  0.3390
 3091W        W18708  10.703   6.113   5.443 -0.1763  0.1852  0.2378
 3092W        W18709  10.222   9.180  12.131  0.3144  0.0286 -0.1883
 3093W        W18710   0.675  13.511   4.713 -0.4361 -0.3104  0.0970
 3094W        W18711   8.176   7.855  13.601  0.2760 -0.2743 -0.1899
 3095W        W18712  12.390   9.565   1.110 -0.1708 -0.1244 -0.0572
 3096W        W18713  12.778  16.397  14.720  0.0092 -0.0324 -0.1642
 3097W        W18714  10.524  15.188  12.396 -0.1143 -0.2577  0.1614
 3098W        W18715   1.806   8.991   0.033  0.0938 -0.0156  0.0303
 3099W        W18716  12.904   0.621  15.351  0.0430 -0.0788  0.2191
 3100W        W18717  10.324  16.288  16.112 -0.2345 -0.2112 -0.0741
 3101W        W18718  12.398   0.265  15.141  0.2793  0.0233  0.1132
 3102W        W18719  10.593   9.585   5.731  0.2198 -0.2107 -0.3511
 3103W        W18720   9.034  17.633  14.873  0.0865  0.0880  0.2144
 3104W        W18721   3.377  11.374   2.377 -0.2103  0.3222  0.2196
 3105W        W18722   9.546  11.124  14.942 -0.1974  0.2269 -0.2012
 3106W        W18723  11.713  15.397   0.928  0.2791 -0.0576  0.1417
 3107W        W18724   3.523  10.035  11.787  0.0548 -0.0885 -0.0177
 3108W        W18725   9.029   5.386  15.899  0.0516  0.2803  0.2863
 3109W        W18726   0.248  13.705   4.808 -0.0092  0.0757  0.1841
 3110W        W18727  12.305  14.300   0.421  0.4285 -0.2436  0.2199
 3111W        W18728  15.108  11.246   0.287 -0.2294 -0.0529 -0.2229
 3112W        W18729  14.106   4.950  15.999  0.0411 -0.0968  0.0811
 3113W        W18730  13.432  16.325   0.976  0.0955  0.1485 -0.1982
 3114W        W18731  14.653  10.966  16.705 -0.0817  0.1040  0.1204
 3115W        W18732   7.321   5.706  14.344  0.3271  0.3654  0.0337
 3116W        W18733  14.761  14.540   6.073  0.0967  0.1818  0.1257
 3117W        W18734   5.153  15.668  11.363 -0.0281  0.0112 -0.0035
 3118W        W18735   3.191   5.657   5.776  0.3901 -0.1528 -0.4561
 3119W        W18736   5.784   7.453   0.136 -0.1324 -0.0115  0.1809
 3120W        W18737   4.517  17.453   4.919 -0.3111  0.1068 -0.0456
 3121W        W18738  16.009   2.194  11.972 -0.0630  0.1206 -0.3901
 3122W        W18739  15.866  14.190  13.363  0.2127 -0.2988  0.2038
 3123W        W18740  16.957  17.206   2.404  0.2684 -0.0071  0.2507
 3124W        W18741   9.746   0.099   3.161  0.2236  0.2459 -0.0226
 3125W        W18742   7.532   6.539   2.692  0.1779  0.2013  0.0780
 3126W        W18743  13.942  16.286   3.420  0.3059  0.0779 -0.0959
 3127W        W18744  14.582   2.234   5.438 -0.1579 -0.0757  0.2745
 3128W        W18745   6.658  12.526  14.721  0.0710  0.0217  0.1666
 3129W        W18746  12.379  11.485  13.570 -0.0622  0.2543 -0.3945
 3130W        W18747   5.916   0.345  16.658 -0.1429 -0.2420 -0.1897
 3131W        W18748   1.390  16.239   0.319  0.1005  0.1758  0.1047
 3132W        W18749  11.266  13.120  13.762  0.1317  0.1080 -0.0500
 3133W        W18750  11.338   9.139  14.128  0.4176 -0.2397  0.2024
 3134W        W18751   2.793   2.514  16.239  0.2056  0.0760 -0.2613
 3135W        W18752  14.763   4.175   2.008  0.1149 -0.1260 -0.0455
 3136W        W18753   6.683  14.624   5.428  0.1494 -0.2392  0.0487
 3137W        W18754  13.887   7.361   2.204  0.2657  0.2207 -0.1631
 3138W        W18755   0.169   3.157   2.312  0.1879  0.0609  0.0036
 3139W        W18756   8.646   1.195  14.290 -0.1880 -0.0308 -0.0966
 3140W        W18757   4.184   0.504   1.708 -0.0160 -0.0805  0.0938
 3141W        W18758  15.262  16.496   2.083 -0.1530  0.1519  0.0782
 3142W        W18759   5.169   8.716  13.143  0.1615  0.2007  0.1775
 3143W        W18760   4.730  10.875  13.912 -0.2412  0.0105  0.2371
 3144W        W18761   1.108  15.513  16.307  0.0501 -0.2331  0.1321
 3145W        W18762   4.602  16.001  13.640 -0.3300 -0.2289  0.2672
 3146W        W18763  12.531  17.654   5.860 -0.0518 -0.0655  0.2038
 3147W        W18764   1.928   7.587   3.466  0.3590  0.2650  0.0336
 3148W        W18765  13.160  11.379  15.340 -0.2990 -0.1507 -0.0566
 3149W        W18766  11.293  12.096  16.174 -0.1272 -0.1851 -0.0118
 3150W        W18767   0.562  14.928   6.446  0.1215  0.0269 -0.2295
 3151W        W18768   3.427   8.051  14.084  0.5103 -0.1423  0.0860
 3152W        W18769   3.832   0.999  12.578 -0.1071  0.1157  0.0383
 3153W        W18770   8.049   7.330   3.777  0.0272 -0.4254 -0.1219
 3154W        W18771   8.353   2.874   6.260  0.1654 -0.1248  0.1366
 3155W        W18772  12.330  11.270  16.184 -0.0385  0.1423 -0.0821
 3156W        W18773  13.175  12.160   4.307  0.0049  0.1788  0.0991
 3157W        W18774   3.643   7.164   4.288  0.0165 -0.2266 -0.0955
 3158W        W18775   8.200   4.537   0.612 -0.1027  0.0195  0.0057
 3159W        W18776  17.541  14.157  15.530 -0.0207  0.3645  0.1942
 3160W        W18777  14.025   5.463   4.131  0.1898 -0.2136  0.1307
 3161W        W18778  15.721   2.296  12.632  0.0897  0.0032 -0.0815
 3162W        W18779  12.058   0.298  14.194 -0.1871 -0.3309 -0.1931
 3163W        W18780   3.018   1.986   2.949 -0.0530 -0.1539 -0.3026
 3164W        W18781  13.339   3.453   1.024 -0.2144 -0.1303  0.0238
 3165W        W18782   1.984  14.501   4.615  0.1362  0.0877 -0.1305
 3166W        W18783   3.477  12.442  15.547  0.0663  0.3414  0.0161
 3167W        W18784  15.848  15.042  14.061  0.1243 -0.0190 -0.3597
 3168W        W18785   8.998   1.807   1.445 -0.0579  0.1308 -0.1112
 3169W        W18786   5.914   5.583   4.086  0.0349 -0.2300 -0.0920
 3170W        W18787   0.738   4.196   0.141  0.3436  0.2544 -0.1080
 3171W        W18788  13.362  12.129  13.532 -0.2024 -0.1141 -0.1066
 3172W        W18789  12.422  17.222   5.185  0.0321 -0.1430 -0.0420
 3173W        W18790  15.121   3.750  13.571 -0.1695  0.1515  0.0472
 3174W        W18791   5.227  11.203   0.086  0.0058 -0.3853 -0.1908
 3175W        W18792   2.426  15.479  14.886 -0.0829 -0.0000  0.2191
 3176W        W18793   1.221  16.594   3.861  0.1362 -0.0067 -0.2112
 3177W        W18794  13.163  11.797   1.369  0.0595 -0.1823 -0.0541
 3178W        W18795   5.170   0.756   4.360  0.1656 -0.3376 -0.0964
 3179W        W18796   8.560   2.727   1.243  0.0159  0.2671  0.0497
 3180W        W18797  14.480   8.637  16.712 -0.1317  0.1404 -0.0731
 3181W        W18798  15.483   6.611   1.769 -0.2004 -0.0273  0.3062
 3182W        W18799  16.251   6.623   3.740  0.1888 -0.2106 -0.1566
 3183W        W18800  12.910  16.360   2.619  0.0948  0.1740 -0.2939
 3184W        W18801  13.858   7.408  16.556 -0.0414 -0.1654  0.0106
 3185W        W18802  12.048  10.060   1.391 -0.0188 -0.0884 -0.3886
 3186W        W18803  14.925   1.136  12.719 -0.0344  0.0728  0.1690
 3187W        W18804   9.037   6.617  11.852  0.0540 -0.4259  0.2515
 3188W        W18805   2.824   5.029  12.351  0.0898 -0.0612  0.1290
 3189W        W18806   8.000  15.222  14.157  0.0436  0.3422 -0.2951
 3190W        W18807   7.338   5.412  15.314  0.1909  0.2008 -0.0518
 3191W        W18808  11.688  12.895  16.761  0.0464 -0.2068 -0.1920
 3192W        W18809   7.143  12.833   3.370  0.0123 -0.0063  0.0066
 3193W        W18810  12.715   7.517  15.799  0.3485 -0.0051  0.1405
 3194W        W18811   6.427  13.189   5.143 -0.2815 -0.1318 -0.0462
 3195W        W18812  16.072   2.836   1.987  0.0345 -0.0314  0.0807
 3196W        W18813  12.534  10.330  16.616  0.0243 -0.0160  0.0326
 3197W        W18814  11.628   7.997   5.481  0.2802  0.1536 -0.1401
 3198W        W18815  16.554   2.886   2.493 -0.4271  0.4566 -0.0979
 3199W        W18816  10.067   0.218   3.867 -0.1591  0.0939  0.0749
 3200W        W18817   9.238  14.357  11.376  0.1881  0.0771 -0.1333
 3201W        W18818   3.868  13.087  14.390  0.2558 -0.2233  0.0191
 3202W        W18819   8.609   5.544   4.646 -0.4038 -0.1939 -0.1988
 3203W        W18820  12.811   0.013   6.043  0.1361  0.4582  0.1243
 3204W        W18821  15.039  15.254   0.915 -0.1245  0.1699  0.1411
 3205W        W18822  15.746  17.720   4.229  0.0855 -0.1871 -0.1242
 3206W        W18823  12.211   1.944   0.364 -0.0727  0.1001  0.0568
 3207W        W18824  11.562  10.170  15.722 -0.3184  0.3606 -0.1348
 3208W        W18825   7.914   1.312   5.173 -0.0988 -0.0717  0.0031
 3209W        W18826   6.890   0.747   0.842  0.2012  0.2149  0.3048
 3210W        W18827  14.560  15.371  15.395  0.0332 -0.1044 -0.1702
 3211W        W18828  13.353   3.105   0.015  0.1051  0.2858 -0.0501
 3212W        W18829  13.793  14.835  15.488  0.0768  0.1905  0.1917
 3213W        W18830  10.049   7.970   1.168 -0.2726  0.3180 -0.0807
 3214W        W18831   0.990  14.323   1.809 -0.2732  0.3685  0.0074
 3215W        W18832   5.705  14.051   2.496 -0.3836 -0.0755  0.0620
 3216W        W18833   5.919  13.424  10.645  0.0161  0.6406  0.2056
 3217W        W18834  13.188  16.159  13.061 -0.2875  0.2327 -0.1400
 3218W        W18835  14.908   5.633  13.675 -0.0769  0.0934 -0.1436
 3219W        W18836  13.379   9.252  14.977  0.2942 -0.1003  0.1354
 3220W        W18837   6.829  12.660  13.350  0.2719 -0.1270  0.0757
 3221W        W18838   5.283   8.375  12.315  0.2393  0.0175  0.0847
 3222W        W18839  12.917   8.762   0.764 -0.1152  0.0302  0.4191
 3223W        W18840   7.363   8.743   5.108  0.2770 -0.1411  0.1597
 3224W        W18841   5.435  10.021  13.240 -0.0107  0.4988 -0.0565
 3225W        W18842   9.167  12.711   4.813 -0.2349 -0.1784 -0.2001
 3226W        W18843   0.058   8.900   6.021  0.0141 -0.0352  0.0288
 3227W        W18844  17.973   9.493  13.602  0.0955  0.1375  0.0203
 3228W        W18845   0.378   6.280   4.248  0.1015 -0.2228  0.2443
 3229W        W18846   9.249  11.563  16.659 -0.2715 -0.4017 -0.1805
 3230W        W18847  16.347   4.583  13.253  0.0502 -0.0897 -0.0237
 3231W        W18848   0.583  14.867   0.389 -0.2586  0.1112 -0.1552
 3232W        W18849   0.648   4.369   4.279 -0.2605  0.2164 -0.0494
 3233W        W18850   2.602   1.709   4.913  0.1459 -0.2098 -0.2785
 3234W        W18851  13.974  14.947   0.977  0.1607  0.1852  0.4493
 3235W        W18852  15.021   1.316   1.674 -0.0269  0.2996 -0.2459
 3236W        W18853  10.453  17.822  12.566 -0.1745  0.0372 -0.1928
 3237W        W18854  10.301   0.880   2.724 -0.0187 -0.1393 -0.3405
 3238W        W18855   0.425  14.158  16.102  0.1772 -0.0388 -0.3420
 3239W        W18856  13.413  17.805  13.445 -0.1851 -0.3349 -0.1359
 3240W        W18857   0.714   4.069  15.101  0.1838  0.1263  0.2722
 3241W        W18858  17.329   4.021  13.756  0.3090 -0.2811 -0.3622
 3242W        W18859  15.504   7.341  13.475 -0.0009  0.0519 -0.1248
 3243W        W18860   2.172  12.544  14.375 -0.3786  0.0178  0.0992
 3244W        W18861   1.861   2.518  15.577 -0.1997 -0.0748 -0.0795
 3245W        W18862   1.721   8.846  11.480  0.1092 -0.1199  0.1999
 3246W        W18863  11.516  11.003   1.054 -0.0076 -0.0337  0.0450
 3247W        W18864   9.272  10.864   1.373 -0.1090  0.1805  0.1617
 3248W        W18865  14.039  12.734   3.114 -0.0658 -0.0130 -0.0171
 3249W        W18866  12.853  11.492  15.818  0.2150  0.0635  0.1222
 3250W        W18867   7.191   5.049  13.614  0.0549 -0.0442  0.5633
 3251W        W18868   7.650   0.689   5.776 -0.0284  0.0204 -0.1003
 3252W        W18869  10.249   6.907   1.120 -0.2292  0.1158 -0.0469
 3253W        W18870  10.165  13.374   0.345  0.1476 -0.0546 -0.1618
 3254W        W18871   9.482  11.291   3.180 -0.1374 -0.0749 -0.1935
 3255W        W18872  17.106   3.496  13.047  0.1707  0.3678  0.2363
 3256W        W18873   9.487   3.214   0.996  0.0560  0.0014  0.0143
 3257W        W18874   2.738  12.538  13.827 -0.0099 -0.2427  0.0563
 3258W        W18875   5.021   9.539   3.611  0.1034  0.0922 -0.3882
 3259W        W18876   7.311   9.733   2.122 -0.1666 -0.2460  0.1297
 3260W        W18877  17.817  15.573  12.054 -0.2485 -0.0400 -0.0950
 3261W        W18878   0.511  10.755   1.157  0.0704  0.2462 -0.0346
 3262W        W18879   2.447   0.594   2.603 -0.0954 -0.0719  0.2432
 3263W        W18880   0.022  14.751  16.703 -0.1012 -0.1116 -0.0744
 3264W        W18881   8.263  14.845   5.594 -0.0689  0.0372 -0.2034
 3265W        W18882   3.945  14.098   1.085 -0.0806 -0.0166  0.0775
 3266W        W18883  10.851   2.807   4.001 -0.2302  0.0197 -0.1413
 3267W        W18884   6.790  12.013  11.277  0.3531  0.1296  0.2088
 3268W        W18885   1.362   2.664   5.717 -0.2518  0.4008 -0.0705
 3269W        W18886  18.026  12.472  12.915 -0.1205  0.2278 -0.1725
 3270W        W18887  17.451   6.131   4.903  0.1547  0.1070  0.1537
 3271W        W18888  16.951   4.596  12.514  0.1856 -0.0185  0.0575
 3272W        W18889  10.361  17.563  15.935 -0.4701  0.1800 -0.1853
 3273W        W18890  14.879   9.226  14.931 -0.2200 -0.0192 -0.0762
 3274W        W18891  14.475   7.982   0.903  0.2024  0.1109  0.0276
 3275W        W18892   7.912   0.955   4.799  0.1393 -0.2595  0.1532
 3276W        W18893  13.362   7.252  16.676  0.3812  0.0841  0.0413
 3277W        W18894  17.744   4.786   0.211 -0.2426 -0.2639  0.0215
 3278W        W18895  16.879   9.626   2.990  0.0417  0.1134 -0.0483
 3279W        W18896  10.036  13.199   1.509 -0.0875  0.2953  0.1584
 3280W        W18897  10.307   8.291   4.992  0.3188 -0.3975 -0.3686
 3281W        W18898  13.918  17.286  15.607 -0.0791 -0.2682 -0.1850
 3282W        W18899   0.326   3.358  13.890  0.0696  0.0412 -0.0831
 3283W        W18900   3.456   6.058  12.081 -0.0130 -0.0598  0.0140
 3284W        W18901   9.801  10.028   4.761 -0.2899  0.6562 -0.2835
 3285W        W18902  18.028  16.348   6.217  0.3240 -0.0377  0.3098
 3286W        W18903   5.538   3.386   3.638 -0.0333  0.1197 -0.1234
 3287W        W18904  13.880  17.901  13.601  0.2549  0.1723 -0.2779
 3288W        W18905   4.458  18.008  14.969 -0.0199 -0.2698 -0.0996
 3289W        W18906   4.242   3.700   5.876  0.0634 -0.2559 -0.0187
 3290W        W18907   1.850  13.513  14.505  0.1058 -0.1432  0.2554
 3291W        W18908  13.140   4.943  13.988  0.1682  0.2398 -0.3107
 3292W        W18909   4.744   1.165  13.796  0.0319 -0.1194  0.4181
 3293W        W18910  12.867  12.252  14.894 -0.0685 -0.3384  0.2075
 3294W        W18911  17.097  16.071  15.127  0.3512  0.1805 -0.1392
 3295W        W18912   2.119  16.519  12.730 -0.2434  0.1569  0.2140
 3296W        W18913  11.034   1.070  16.276 -0.0003 -0.1841 -0.1646
 3297W        W18914   7.473   8.533  16.015 -0.0723  0.2306 -0.0184
 3298W        W18915   3.941   0.549   4.710 -0.0123 -0.1480 -0.1796
 3299W        W18916   8.128   6.537  16.010  0.2449 -0.0978  0.0879
 3300W        W18917   3.549   5.580  11.860  0.1782 -0.1530  0.1918
 3301W        W18918  13.183  15.470  14.837  0.1464 -0.0336  0.2817
 3302W        W18919  12.389   9.008   5.773  0.1377  0.5032 -0.0898
 3303W        W18920  16.856  17.702  14.379  0.0579  0.0313  0.0759
 3304W        W18921   3.949   9.104   1.796  0.1232  0.0676  0.2354
 3305W        W18922  11.922   4.449   5.544  0.0728  0.0448  0.0256
 3306W        W18923  14.258   6.387   4.140 -0.0586  0.1347 -0.1474
 3307W        W18924   5.654   4.365   0.406  0.0631  0.1756  0.3397
 3308W        W18925  13.649  15.684   3.973 -0.1623 -0.2627 -0.1628
 3309W        W18926   0.131   2.698   5.584 -0.0182 -0.0081  0.1023
 3310W        W18927  11.408   3.202  14.538 -0.0937  0.0132  0.1514
 3311W        W18928   2.479   1.519   4.124 -0.0795 -0.0841 -0.0358
 3312W        W18929  12.555   8.911  14.689 -0.1628  0.0065  0.1433
 3313W        W18930  14.384   6.374   5.036 -0.0310 -0.3735 -0.0757
 3314W        W18931   0.597   7.676   5.450 -0.1940  0.2854 -0.1114
 3315W        W18932   3.047   6.762  12.656  0.0142 -0.0671 -0.0610
 3316W        W18933  15.568   1.971  14.397 -0.1213 -0.2240 -0.2755
 3317W        W18934   8.053  14.114   5.219  0.1183 -0.2216 -0.0025
 3318W        W18935  12.160  16.895  15.331 -0.1674 -0.0297  0.0482
 3319W        W18936  14.392  15.431  15.976 -0.3406  0.1068  0.0682
 3320W        W18937   3.040   3.888  12.628 -0.0841 -0.0694  0.1587
 3321W        W18938   6.871  15.471   3.263 -0.2695 -0.0897  0.1575
 3322W        W18939  10.483  11.164   0.030  0.0988  0.1710  0.1165
 3323W        W18940   9.286  10.302   3.460 -0.2421  0.0131  0.0708
 3324W        W18941   3.304  11.324  13.007 -0.0699 -0.2624 -0.1358
 3325W        W18942   8.542   4.127  14.373 -0.1147  0.0686  0.0345
 3326W        W18943  15.787  10.542  15.997 -0.1459 -0.1356 -0.2267
 3327W        W18944   8.177   7.767   6.077 -0.4084 -0.1967  0.1142
 3328W        W18945  10.154   9.991  13.624 -0.1488  0.2485 -0.1366
 3329W        W18946  13.655   8.480   2.696  0.0096 -0.3334 -0.1468
 3330W        W18947   3.371  10.803  14.519 -0.3334  0.0509 -0.0813
 3331W        W18948   7.539   3.731   2.546 -0.1605  0.2168 -0.0585
 3332W        W18949  14.945  15.346  13.751 -0.0944 -0.0047 -0.1057
 3333W        W18950  10.612   7.986  14.537  0.4472 -0.2581 -0.0082
 3334W        W18951   6.220   9.402  12.303  0.4379  0.1005  0.0595
 3335W        W18952  16.515  10.878  14.726  0.0250  0.0902 -0.0614
 3336W        W18953  11.485  13.960  15.328 -0.3144  0.1810  0.1599
 3337W        W18954  11.354   6.142  16.738  0.1500 -0.3193 -0.3081
 3338W        W18955   7.080  15.154   2.944 -0.1245  0.0750 -0.1243
 3339W        W18956  12.241  13.541   4.924 -0.0767  0.1036 -0.1065
 3340W        W18957  11.552  14.408  11.585  0.0698 -0.0042  0.3322
 3341W        W18958  10.508  10.867  14.805 -0.0020 -0.1476 -0.1893
 3342W        W18959   2.835  14.555  13.847 -0.1044 -0.1117 -0.0835
 3343W        W18960   9.419   0.555   5.137 -0.1743  0.0002  0.2399
 3344W        W18961  17.414  12.290   5.788 -0.1425  0.3610 -0.1295
 3345W        W18962  17.872  13.626   5.735 -0.1883 -0.2111 -0.1437
 3346W        W18963  11.424   4.425  11.735 -0.1448 -0.0841 -0.1033
 3347W        W18964   8.231  13.113   1.554 -0.0571 -0.1400  0.1798
 3348W        W18965  10.298   6.041   1.757  0.0326  0.3254 -0.0620
 3349W        W18966   0.167  17.890  12.969 -0.1807 -0.4008  0.4596
 3350W        W18967   7.246   2.939   4.381  0.0996  0.0316  0.1818
 3351W        W18968  18.044   8.735  15.545 -0.0423  0.0455 -0.1253
 3352W        W18969   7.776  10.357   3.835  0.0463 -0.2048 -0.0951
 3353W        W18970  15.173  11.393   5.405  0.0500 -0.2711 -0.1069
 3354W        W18971  13.863  17.586   2.310  0.2338 -0.1341  0.3289
 3355W        W18972   6.456  12.917   4.226  0.0095  0.2050  0.0773
 3356W        W18973  13.736   8.827  11.305 -0.0142  0.0021  0.2298
 3357W        W18974  10.389   8.310   2.469  0.0283  0.2117 -0.0252
 3358W        W18975   1.134   4.896  15.647  0.1430 -0.2267  0.3096
 3359W        W18976  17.291   8.467   0.688  0.0944  0.2839 -0.2757
 3360W        W18977   2.195   3.601   3.267 -0.1989 -0.2896  0.1883
 3361W        W18978   6.845  13.801  11.645  0.3254  0.3754 -0.0307
 3362W        W18979  17.987  16.946   4.403  0.0009 -0.1792  0.0396
 3363W        W18980  14.870   5.102   4.898  0.0447 -0.0769  0.1303
 3364W        W18981  17.096  13.415   0.226 -0.2599 -0.0165 -0.3292
 3365W        W18982   5.015  17.384   3.456 -0.0512 -0.0755  0.1599
 3366W        W18983   3.563   5.190  11.373 -0.2478 -0.0466  0.0048
 3367W        W18984   4.250   6.288   1.618 -0.2234 -0.1461  0.1439
 3368W        W18985   6.396  12.145   0.466 -0.0869 -0.5659  0.2588
 3369W        W18986   6.302  16.545   2.836 -0.1144  0.2330 -0.0579
 3370W        W18987   5.850  12.750   0.390  0.1392  0.1190  0.0685
 3371W        W18988   2.212   7.718  14.045  0.2244 -0.0324 -0.0388
 3372W        W18989  10.428   2.909   3.727  0.0142 -0.0147 -0.2560
 3373W        W18990  13.351  13.563  15.679 -0.3865  0.0021 -0.0289
 3374W        W18991  12.032   0.391   1.399  0.1898  0.1593 -0.2380
 3375W        W18992   8.856  13.508   5.232 -0.0906 -0.1142 -0.3390
 3376W        W18993  10.170   9.916  15.407 -0.3642  0.0659 -0.0463
 3377W        W18994   3.787   1.974   2.366  0.2044  0.3379  0.0072
 3378W        W18995  13.735   0.225   4.593  0.0640 -0.0725 -0.0820
 3379W        W18996   8.969  13.721  16.227 -0.1474 -0.1903 -0.4025
 3380W        W18997   7.883   1.874  15.844 -0.0575 -0.1302  0.0482
 3381W        W18998  15.074  13.225   1.269 -0.0349  0.1517 -0.0013
 3382W        W18999  11.582   7.476  13.086 -0.3449 -0.0479 -0.0702
 3383W        W19000  11.831  13.169   5.869  0.1010  0.2113  0.1296
 3384W        W19001  15.919   8.017   3.928 -0.0729 -0.1512  0.3202
 3385W        W19002   7.335   1.189  16.326 -0.0272 -0.3193 -0.1049
 3386W        W19003   4.768   6.199  15.044  0.2786 -0.0824 -0.0344
 3387W        W19004   4.090  12.930   5.412  0.3237 -0.1626 -0.0568
 3388W        W19005  12.112  15.406  15.104  0.3909  0.1544  0.1820
 3389W        W19006  15.213  11.899   1.555 -0.1011  0.1867  0.1751
 3390W        W19007  15.786  10.360  13.850  0.0119  0.0002  0.0541
 3391W        W19008  10.038   4.555  16.658  0.0118  0.2651 -0.2760
 3392W        W19009   9.190  11.921   0.268  0.0695  0.3270  0.1871
 3393W        W19010  16.755  14.595  10.820  0.2949  0.2913 -0.0254
 3394W        W19011   5.174   3.286  12.738 -0.1515  0.3056 -0.3886
 3395W        W19012  14.344  17.129  15.997  0.0758  0.0770 -0.2455
 3396W        W19013   7.788   8.158  13.778 -0.3502  0.1442 -0.0682
 3397W        W19014  17.663   9.306   0.938 -0.0227 -0.1446  0.0073
 3398W        W19015   3.402   6.471  12.893  0.4132 -0.1677  0.1350
 3399W        W19016   4.033  12.929  15.953 -0.2395  0.0836 -0.1072
 3400W        W19017  12.901  11.935  12.110  0.0920  0.0945 -0.1050
 3401W        W19018   5.949  10.822   3.584 -0.0716 -0.0557  0.6251
 3402W        W19019  13.512   1.785  15.066 -0.0970  0.1589  0.0017
 3403W        W19020   7.158  15.006  10.242 -0.0986  0.3309 -0.0360
 3404W        W19021  12.034  12.714   0.350  0.3845 -0.1356  0.3144
 3405W        W19022   9.191  17.552   3.057  0.0130 -0.2340 -0.3147
 3406W        W19023  14.427   1.800   1.504  0.1904  0.2518  0.1665
 3407W        W19024   2.888  13.182  15.862 -0.0139 -0.1486 -0.1002
 3408W        W19025  11.167   0.679  11.369 -0.1402  0.2304  0.0787
 3409W        W19026   9.635   5.009   2.821  0.2598  0.0982 -0.2011
 3410W        W19027   4.282   4.134  12.807 -0.0609  0.1680  0.1525
 3411W        W19028   3.842   7.909  16.448 -0.1394  0.1946 -0.2027
 3412W        W19029  17.467  10.123   4.140 -0.3626 -0.1563  0.1417
 3413W        W19030   1.906   9.628   3.354  0.2130  0.0901  0.0236
 3414W        W19031  14.231   1.414  11.876  0.0396  0.2452 -0.1554
 3415W        W19032  17.155   5.989  15.074 -0.1362 -0.4898  0.3316
 3416W        W19033  16.848   0.441  13.180  0.2775  0.2540  0.0861
 3417W        W19034   4.183   7.374   4.465 -0.2578  0.1994  0.0527
 3418W        W19035   5.637   5.603   3.209 -0.0429 -0.0767  0.1544
 3419W        W19036  13.260  14.287  15.248 -0.1986 -0.1569  0.2356
 3420W        W19037  13.076   9.833  15.071 -0.3892  0.1049  0.1126
 3421W        W19038   8.040  13.221   3.435 -0.2592 -0.1408  0.2777
 3422W        W19039  12.678  15.535   1.086 -0.4053 -0.1902 -0.0332
 3423W        W19040  17.652  16.669   6.388 -0.0119  0.1453  0.0509
 3424W        W19041  14.762  11.527  11.837  0.0355  0.2711  0.0122
 3425W        W19042  15.710  10.115  11.708 -0.3285 -0.1249 -0.3181
 3426W        W19043  10.400  13.210   6.029 -0.0135 -0.2160  0.0222
 3427W        W19044  10.579  13.949  11.065  0.0952 -0.0698 -0.0788
 3428W        W19045   9.129   5.519  12.727  0.2566  0.1347 -0.0930
 3429W        W19046  16.664   0.700   0.199 -0.1860 -0.1132 -0.0884
 3430W        W19047  13.562   3.853  14.909 -0.0403  0.1347  0.1056
 3431W        W19048  14.603   8.874  12.507  0.2925 -0.0529  0.1366
 3432W        W19049   0.605   2.649   0.289 -0.0475 -0.2428  0.1691
 3433W        W19050  17.954   4.611  12.626  0.3405  0.2108 -0.1240
 3434W        W19051   3.829  16.403   2.387  0.1517  0.1392  0.2698
 3435W        W19052   6.842  14.015  16.110 -0.3570 -0.2711  0.0360
 3436W        W19053   4.123   9.571   5.187 -0.2147  0.1803  0.0527
 3437W        W19054   4.037   1.178   0.592 -0.1047  0.1578  0.2170
 3438W        W19055   4.892   8.478   5.179  0.3529 -0.0891 -0.1054
 3439W        W19056  13.726   9.570   0.154  0.0788  0.1826 -0.1083
 3440W        W19057   6.566  13.564   4.845  0.0300 -0.1377  0.1000
 3441W        W19058  11.641   3.681   6.555 -0.0529 -0.1106 -0.3426
 3442W        W19059   8.974  11.943  12.855  0.1948  0.0567 -0.0169
 3443W        W19060  14.337   5.510  12.779 -0.1157 -0.1505  0.0793
 3444W        W19061   4.424  14.660   1.363 -0.1167  0.3439 -0.0316
 3445W        W19062  10.805  16.998  13.909 -0.0604 -0.2757  0.1180
 3446W        W19063  10.627   1.552  15.896  0.3334  0.1579 -0.1415
 3447W        W19064   3.475   6.472   5.215 -0.2041 -0.0509 -0.1137
 3448W        W19065   5.333   5.905   2.479 -0.2197  0.2032 -0.2219
 3449W        W19066   8.139  11.679   1.633 -0.0142 -0.1512  0.2186
 3450W        W19067  12.451   1.160  14.510 -0.0348  0.0564 -0.1586
 3451W        W19068   5.496  12.948   1.039 -0.3202  0.2401  0.0179
 3452W        W19069  14.106   7.613  15.035 -0.1587  0.0742 -0.0893
 3453W        W19070  16.720   1.417  12.949  0.5168 -0.3296  0.1418
 3454W        W19071   3.901  12.576  12.780  0.1256 -0.1454 -0.1199
 3455W        W19072  11.637  13.518   1.465 -0.4790 -0.6617 -0.1843
 3456W        W19073  17.910  12.918   0.581  0.2749 -0.0574 -0.0907
 3457W        W19074   0.494  16.600  12.588 -0.0531  0.0805 -0.0814
 3458W        W19075  10.567  16.420   2.266 -0.1422 -0.0237 -0.1840
 3459W        W19076   2.944   5.583   3.208  0.1604  0.3029  0.1080
 3460W        W19077   0.526   8.404  15.150  0.0375 -0.3261  0.2513
 3461W        W19078   7.513   7.048  12.953 -0.0900 -0.2050 -0.0919
 3462W        W19079   4.363   4.426   5.719 -0.2320  0.1160 -0.3902
 3463W        W19080  14.715   0.791  14.067 -0.0359  0.3098 -0.3579
 3464W        W19081   1.987  14.019   3.806 -0.0531  0.0488 -0.0679
 3465W        W19082   4.754   9.657  11.882  0.2546 -0.2014  0.2518
 3466W        W19083   2.578  10.549   0.152 -0.1404  0.0942  0.4184
 3467W        W19084   1.089  13.159   4.693  0.1545 -0.0253  0.1950
 3468W        W19085  14.268   9.075   2.146 -0.3706 -0.1686  0.0933
 3469W        W19086   7.494   7.948   0.863 -0.0678 -0.2275  0.1801
 3470W        W19087   8.628  14.561  12.034 -0.4875 -0.2858 -0.3469
 3471W        W19088  17.078   0.382  12.769 -0.1315  0.1724  0.0135
 3472W        W19089   7.671   0.101   1.611  0.0363 -0.0864 -0.0091
 3473W        W19090   4.848   8.922   2.410  0.0590  0.2847 -0.2655
 3474W        W19091  13.158   5.023  12.611 -0.1235  0.0180 -0.0471
 3475W        W19092   2.213  15.776  11.406  0.1573  0.0502 -0.1020
 3476W        W19093   1.131  16.903   5.226 -0.1566 -0.1138  0.0604
 3477W        W19094  10.193   0.921  16.000  0.0259 -0.0768  0.2414
 3478W        W19095   4.969   2.679  14.287 -0.2415  0.0914 -0.2822
 3479W        W19096  14.665   7.252   0.328  0.0975  0.2387  0.1994
 3480W        W19097   9.503  16.317  14.822  0.2227 -0.2381 -0.1407
 3481W        W19098   7.591  14.313   4.452 -0.0437  0.0270  0.2094
 3482W        W19099  10.611  14.978   1.353  0.3782 -0.0462  0.0463
 3483W        W19100  14.547  14.100   3.032 -0.2478  0.0308 -0.2388
 3484W        W19101  16.537   5.872  15.982 -0.1486 -0.0604 -0.2616
 3485W        W19102  12.393   8.658  13.303  0.0960  0.4400 -0.2394
 3486W        W19103   8.618  12.571  10.049 -0.0897  0.2536 -0.2349
 3487W        W19104   1.277   9.711  11.423  0.0906 -0.0233 -0.1168
 3488W        W19105   6.553  10.637  13.806 -0.0603 -0.0850 -0.1888
 3489W        W19106  17.799  16.764   0.312  0.2235 -0.1194 -0.3205
 3490W        W19107  12.719  15.602  11.910 -0.0750  0.1906  0.1452
 3491W        W19108   0.699   0.538   3.097 -0.1084  0.0532 -0.2047
 3492W        W19109   8.134   1.219  13.144 -0.0529 -0.0039  0.2198
 3493W        W19110   0.920   0.026  15.212 -0.2142  0.0567 -0.0054
 3494W        W19111   2.794  12.388  12.304 -0.1851  0.1174  0.2613
 3495W        W19112  11.328  11.911   2.386  0.0994 -0.3993 -0.0365
 3496W        W19113  11.297   5.300   0.475  0.2180  0.0270 -0.0473
 3497W        W19114   5.854  11.305  12.646  0.0116  0.0370  0.1850
 3498W        W19115  12.199  12.364   1.460  0.2365 -0.0870 -0.1507
 3499W        W19116   7.267   8.935  16.220 -0.1226 -0.3126 -0.0242
 3500W        W19117   8.401   9.480  11.513  0.0353 -0.1713 -0.1932
 3501W        W19118  15.429  10.399   1.449  0.3686  0.0526 -0.0083
 3502W        W19119   7.520   6.580   3.248 -0.0041 -0.1616  0.5154
 3503W        W19120  15.668  12.054   1.759 -0.1606  0.0798  0.0360
 3504W        W19121   7.687  17.741   1.999 -0.1979  0.1084  0.2972
 3505W        W19122  12.538   8.894   1.876 -0.1196 -0.0842 -0.2142
 3506W        W19123   5.678   7.146   0.544  0.0827 -0.0644  0.2001
 3507W        W19124  16.140   9.075  13.228 -0.0571  0.0509  0.0443
 3508W        W19125  13.580  16.163   4.616 -0.0188  0.3698 -0.0316
 3509W        W19126   1.853  13.897  15.842 -0.0123  0.4400 -0.2184
 3510W        W19127   8.131  17.686  12.928 -0.2985 -0.0646 -0.0992
 3511W        W19128  17.185   2.477   1.357 -0.2544  0.0904 -0.2082
 3512W        W19129   5.266  12.816  11.438 -0.2824 -0.0476  0.0005
 3513W        W19130   8.664  17.733  16.615 -0.1711 -0.1630 -0.1642
 3514W        W19131   5.131  13.959  14.051 -0.0654  0.2875 -0.0494
 3515W        W19132  10.771   1.743   4.890  0.0463  0.2983 -0.1585
 3516W        W19133   3.681  12.327  11.978 -0.0733  0.0568 -0.3572
 3517W        W19134   9.235   6.784   3.682 -0.1959  0.1325  0.2029
 3518W        W19135   9.267   9.001   3.380 -0.1257  0.2980  0.0518
 3519W        W19136   1.888   6.094   4.037 -0.1174 -0.0970 -0.1047
 3520W        W19137  16.751   4.355  13.042 -0.0866 -0.1081 -0.0873
 3521W        W19138   0.569   8.485  11.998 -0.0209 -0.0593 -0.0780
 3522W        W19139   8.857  10.376  13.642  0.1088  0.1479  0.1941
 3523W        W19140   5.317  13.609  16.117  0.1604  0.1952 -0.1746
 3524W        W19141  12.534  17.866  16.146 -0.1497 -0.0106  0.2054
 3525W        W19142  11.683   7.023   5.379  0.0414 -0.0923  0.3295
 3526W        W19143   5.325   0.442   1.650 -0.0057 -0.0970  0.1391
 3527W        W19144   3.379   6.346   1.464 -0.2113  0.3294  0.1144
 3528W        W19145   0.759  12.817  13.257  0.1008 -0.2360 -0.1607
 3529W        W19146  16.342   8.435   4.630 -0.3156 -0.1946  0.1464
 3530W        W19147  13.285   5.673  16.059  0.0222  0.0807 -0.0966
 3531W        W19148   7.508   1.268   0.039  0.2148 -0.0038 -0.0383
 3532W        W19149  16.407  10.936  12.584 -0.0908  0.0283 -0.0338
 3533W        W19150  15.615   5.002   3.207 -0.0780  0.4176 -0.2064
 3534W        W19151  15.222   7.053   5.205  0.0382 -0.0184  0.3511
 3535W        W19152   8.001  12.125  12.949  0.1559  0.1769  0.0706
 3536W        W19153  11.916  15.595   4.453 -0.1210  0.0675 -0.1380
 3537W        W19154  15.905  16.306  13.074  0.0254 -0.0966 -0.0982
 3538W        W19155   7.580   8.191   4.430  0.2056 -0.0353 -0.1571
 3539W        W19156   0.109   6.031   5.517 -0.2149 -0.1174 -0.2483
 3540W        W19157  17.217   6.424  13.504 -0.0433  0.1009  0.1330
 3541W        W19158  16.140  11.886  14.872 -0.0118 -0.1728 -0.4738
 3542W        W19159  16.526   8.790   1.830 -0.2374  0.3239  0.1944
 3543W        W19160  13.075   8.206   5.260 -0.0726  0.0057 -0.0766
 3544W        W19161   6.690   1.300   0.298 -0.2647 -0.0552 -0.1007
 3545W        W19162   8.239   5.279   6.187 -0.0225  0.0922  0.2309
 3546W        W19163   1.525   6.789   0.152 -0.0203 -0.0918 -0.0821
 3547W        W19164  17.077   2.210  11.159 -0.2849  0.0260 -0.0565
 3548W        W19165   5.152  16.533  12.902  0.1235  0.1773 -0.0533
 3549W        W19166   2.846  13.376  14.442 -0.1499 -0.0276 -0.0632
 3550W        W19167   1.711  11.755  13.740  0.0255 -0.2508 -0.0194
 3551W        W19168  13.785   9.010   2.612  0.1421  0.2049 -0.1320
 3552W        W19169  10.573   9.690   3.003 -0.3712  0.0359 -0.0400
 3553W        W19170   5.929   0.623  16.215  0.0337  0.0372  0.0269
 3554W        W19171   7.576  10.924   3.053  0.1981  0.4235 -0.1540
 3555W        W19172  13.352   5.192  13.605  0.2323 -0.2092  0.1521
 3556W        W19173  13.751   3.773   3.863 -0.2951  0.0378 -0.0660
 3557W        W19174  11.827   3.713   4.112  0.0664  0.0975 -0.0608
 3558W        W19175   8.173  10.638  14.500  0.0657 -0.4983  0.0840
 3559W        W19176   1.943   7.876   1.650 -0.1199 -0.0635  0.2555
 3560W        W19177   6.816  10.049   2.132  0.0128  0.1385 -0.4644
 3561W        W19178   6.424   4.455  15.510 -0.1593  0.0654  0.1370
 3562W        W19179  10.390   1.437   2.959 -0.3002 -0.0377  0.1605
 3563W        W19180   4.297  17.358  11.345  0.0959  0.2317 -0.0868
 3564W        W19181   5.974   9.433   3.824 -0.1975 -0.0818 -0.0331
 3565W        W19182   3.685  17.845  14.479  0.0791  0.0023  0.0616
 3566W        W19183   5.245   2.692  11.429  0.0965 -0.3381  0.1974
 3567W        W19184   1.349   9.807  15.700 -0.1334  0.1397 -0.1060
 3568W        W19185   1.357  15.361   2.727 -0.2180 -0.2562  0.2207
 3569W        W19186   1.843  16.207   5.874 -0.0378 -0.3485  0.0995
 3570W        W19187   0.797   7.604  11.941  0.0954 -0.1952 -0.1553
 3571W        W19188  11.942  13.760   0.069 -0.0502  0.0035  0.1208
 3572W        W19189  10.116   7.215   0.776 -0.1689 -0.0548 -0.2167
 3573W        W19190   8.178   5.991   3.009  0.0656 -0.0402  0.0777
 3574W        W19191  15.726  17.857   2.676 -0.2090  0.1029  0.1914
 3575W        W19192  12.129  13.134  15.888 -0.0708 -0.2633  0.1353
 3576W        W19193  15.488   3.405  12.780 -0.0875  0.1293 -0.0661
 3577W        W19194   7.968   1.070   1.407 -0.2685  0.2785 -0.2107
 3578W        W19195   2.668   6.818   1.809 -0.1743 -0.0651  0.2951
 3579W        W19196  16.898   6.510  12.191  0.1021  0.0825  0.2185
 3580W        W19197   0.325  12.732  13.554 -0.1974  0.0543  0.1697
 3581W        W19198   1.634   7.354   0.904 -0.4169 -0.2146  0.1715
 3582W        W19199  16.921  13.185  13.434  0.2411  0.0615 -0.0653
 3583W        W19200   7.390  13.248   1.160 -0.1335 -0.1538  0.0706
 3584W        W19201  10.458   4.955  16.002 -0.0616 -0.1452  0.0338
 3585W        W19202  10.738  16.536  14.260 -0.1176 -0.0082  0.1671
 3586W        W19203   8.779   9.202  16.317 -0.0405 -0.0267  0.0480
 3587W        W19204  16.321   0.220   5.032 -0.3163 -0.1199 -0.1547
 3588W        W19205  10.557   6.277  12.280  0.1406  0.3233 -0.2673
 3589W        W19206   9.880  15.718   3.955  0.4424 -0.2733  0.2118
 3590W        W19207   4.225  14.227  12.693 -0.0594  0.0993  0.1578
 3591W        W19208  12.213  13.334   3.093  0.0747 -0.1514  0.1279
 3592W        W19209   8.528   3.504   4.939  0.4267  0.2005 -0.0627
 3593W        W19210   9.180  17.552  13.637 -0.3522 -0.1022  0.1582
 3594W        W19211  13.730   7.480   1.353  0.2171  0.3765  0.4093
 3595W        W19212   9.488   8.640   1.153 -0.3810  0.0995 -0.3623
 3596W        W19213   7.041  13.397  15.295 -0.1823  0.5093  0.2578
 3597W        W19214  14.767   1.413   1.262 -0.0289 -0.0639  0.1820
 3598W        W19215   2.728   8.625  15.796  0.1272  0.1449 -0.0456
 3599W        W19216   3.166  17.686   0.967  0.0634 -0.1078  0.0964
 3600W        W19217  11.678  13.650  15.680 -0.2821 -0.0134  0.0181
 3601W        W19218  17.783  16.962   2.970 -0.3677 -0.2331  0.0470
 3602W        W19219   2.319   3.194  11.485  0.0761  0.3423 -0.2506
 3603W        W19220   1.216  16.210  14.411  0.1744  0.4216  0.2393
 3604W        W19221  11.766   1.776   3.368 -0.1903 -0.0114  0.0409
 3605W        W19222   7.311  11.133  13.877 -0.1323 -0.2059  0.1529
 3606W        W19223   3.514  14.990  12.647 -0.4825 -0.0853 -0.2527
 3607W        W19224  16.507   7.279   0.285  0.0557  0.2057  0.3944
 3608W        W19225   4.364   7.873   5.195 -0.1905  0.0281  0.2083
 3609W        W19226  13.217  14.878  15.483  0.4601  0.1777 -0.2517
 3610W        W19227  15.405   7.456   0.757 -0.1506 -0.1381 -0.1630
 3611W        W19228   8.976   6.674  13.334  0.1087 -0.0862 -0.2334
 3612W        W19229   0.983   9.186  11.608 -0.0519 -0.0085 -0.0845
 3613W        W19230   2.657   9.197   2.820  0.2008  0.0836  0.3235
 3614W        W19231   7.775   6.847  12.517  0.0870 -0.0814  0.0463
 3615W        W19232   7.170   1.109  12.019 -0.0471  0.0510  0.4761
 3616W        W19233   6.215   6.846   1.664 -0.3183  0.1406  0.2255
 3617W        W19234   7.097  16.712  13.066 -0.1904  0.2840 -0.2820
 3618W        W19235  15.839  12.087  14.499  0.3746  0.1102  0.0811
 3619W        W19236   9.557   4.610   3.604  0.3197  0.2278  0.1401
 3620W        W19237   2.261  15.429  15.413  0.1418 -0.1468 -0.1920
 3621W        W19238   1.680  13.845  14.911 -0.1447  0.3846 -0.0794
 3622W        W19239   1.506  16.555   5.727  0.4316 -0.2764  0.4034
 3623W        W19240  15.008   9.718  12.528  0.3548  0.0539 -0.3852
 3624W        W19241   2.940   4.052  16.700  0.1426  0.1220  0.0559
 3625W        W19242  10.879  15.309   1.615  0.2063  0.1900  0.0021
 3626W        W19243  16.967  13.606  15.817 -0.0095 -0.0515  0.0931
 3627W        W19244   9.645   6.030   2.499  0.0809  0.0704 -0.0494
 3628W        W19245   0.206   1.015  13.076  0.1483 -0.0910  0.1203
 3629W        W19246   1.722   6.466  11.532 -0.0523 -0.0503 -0.1516
 3630W        W19247   8.718  10.874  13.679 -0.2805  0.3032 -0.1467
 3631W        W19248  12.194  15.513  14.489  0.3521 -0.0467 -0.0077
 3632W        W19249   7.205  16.207  13.042  0.1926  0.1210 -0.1265
 3633W        W19250  10.877  11.591   0.912  0.1239 -0.1138  0.1527
 3634W        W19251   6.402  12.658  12.910 -0.0358 -0.2243 -0.0504
 3635W        W19252  15.797  16.276   1.080  0.0211  0.4278  0.0715
 3636W        W19253  16.854  13.795  11.563  0.1180 -0.1215  0.0459
 3637W        W19254  16.865   6.862   5.756  0.0080 -0.1188 -0.2386
 3638W        W19255   3.699   2.140   5.073  0.1238 -0.1829 -0.0337
 3639W        W19256   2.949   2.262   3.845 -0.1427  0.0445 -0.0867
 3640W        W19257  17.467   1.929  13.329  0.1793  0.1160 -0.1724
 3641W        W19258  11.206   4.470   1.532  0.0565  0.2125 -0.0618
 3642W        W19259  14.248  13.860   0.947 -0.0137  0.4330  0.0643
 3643W        W19260   9.540   1.661  12.550  0.4709 -0.2622  0.1242
 3644W        W19261   3.278   6.064   2.678 -0.1234 -0.0573 -0.2206
 3645W        W19262   5.395  12.128   2.937 -0.1908 -0.4508 -0.2860
 3646W        W19263   4.446   3.343   1.969 -0.0386  0.1753 -0.1437
 3647W        W19264   7.106  16.297   5.844 -0.1453 -0.0414 -0.0309
 3648W        W19265  14.075   6.756  15.440  0.0839 -0.1192 -0.0471
 3649W        W19266   9.315   6.262  13.298 -0.0015 -0.2105 -0.2435
 3650W        W19267   4.407   1.477  14.553  0.1696 -0.0795  0.0848
 3651W        W19268   9.137   7.217  16.201 -0.1439 -0.1105  0.0316
 3652W        W19269   8.047   9.652  15.633 -0.0016 -0.0127 -0.0665
 3653W        W19270   2.053   5.423  16.421 -0.0294  0.2337  0.2163
 3654W        W19271  16.429  16.826   0.142 -0.1410  0.2053  0.4661
 3655W        W19272   9.864   4.134  15.815  0.2751  0.1182  0.0741
 3656W        W19273   8.522  13.812  13.812 -0.1610  0.1892 -0.3755
 3657W        W19274  14.812  15.199  14.989 -0.3577 -0.1162  0.4794
 3658W        W19275  14.274   0.750   0.614 -0.0295  0.3297  0.0006
 3659W        W19276  10.979   2.877  13.559  0.3416 -0.0328 -0.1938
 3660W        W19277   1.479   3.311  14.840  0.1359  0.0703 -0.0771
 3661W        W19278   2.695   2.230  13.800  0.2323  0.2497  0.0248
 3662W        W19279   8.566  15.606  12.822 -0.0321  0.3506 -0.1687
 3663W        W19280  13.514  13.242   4.199 -0.0089  0.0430 -0.3486
 3664W        W19281   2.001   3.118   5.400 -0.1487 -0.0648 -0.1010
 3665W        W19282   8.522   7.473  12.993  0.2632  0.1691  0.2431
 3666W        W19283   5.104  16.744   4.880 -0.1606  0.0747  0.0584
 3667W        W19284   9.165  11.828   2.413  0.3702 -0.1417 -0.1036
 3668W        W19285   1.413   7.082   2.049  0.1426 -0.0423 -0.1274
 3669W        W19286  17.660   6.771   2.646  0.3895  0.3279  0.0315
 3670W        W19287  12.943   2.672   4.565  0.0743 -0.0397  0.2329
 3671W        W19288   5.844  15.477  14.446 -0.1173  0.1364  0.0660
 3672W        W19289   2.608   9.213   1.305 -0.3006  0.2176 -0.0944
 3673W        W19290  16.891   0.475   3.065  0.1654 -0.3637 -0.0206
 3674W        W19291   6.408  11.402  11.822  0.3170 -0.0344  0.1386
 3675W        W19292  17.238   1.538   2.256  0.1112  0.0311  0.1739
 3676W        W19293   2.286  14.226   2.581  0.2806 -0.0744 -0.0273
 3677W        W19294   4.554  17.096   1.047 -0.1602 -0.1247 -0.2181
 3678W        W19295   7.276  12.866  11.685  0.0167 -0.2506  0.1142
 3679W        W19296  14.800   8.976   0.097  0.0466  0.2594  0.1563
 3680W        W19297   5.859  17.730  12.418 -0.1127 -0.2539  0.3042
 3681W        W19298   9.298   5.893   0.717  0.0626  0.1652 -0.2220
 3682W        W19299  13.332   3.375   3.124 -0.0415 -0.0275 -0.0484
 3683W        W19300   0.601   6.473   0.156  0.0456 -0.1707  0.2399
 3684W        W19301  16.749   2.125  13.451  0.0444  0.0997 -0.3815
 3685W        W19302   4.649  14.263  13.524  0.2375  0.0967  0.0678
 3686W        W19303  10.815   2.970  15.238 -0.0543 -0.2151 -0.1189
 3687W        W19304  10.709   0.463   1.313 -0.0183 -0.1305  0.2661
 3688W        W19305   3.705  17.872   2.193  0.0623  0.0508 -0.0294
 3689W        W19306  16.407   3.890  15.378 -0.1916  0.2898 -0.3549
 3690W        W19307  11.258   7.405  14.534  0.2602  0.1941 -0.1089
 3691W        W19308   5.858   9.024   0.955  0.0107 -0.0529 -0.0854
 3692W        W19309  12.394   2.793   3.012 -0.1339  0.1282  0.2532
 3693W        W19310  14.708  17.049   2.555  0.0864 -0.5051 -0.2531
 3694W        W19311  17.871  16.063  12.348  0.1363 -0.0754 -0.0242
 3695W        W19312   9.882  12.284  11.213  0.1343 -0.1077  0.2978
 3696W        W19313  13.777   3.915   5.329  0.1236  0.1183 -0.0676
 3697W        W19314  17.083  12.409   4.397 -0.0530 -0.0089  0.0108
 3698W        W19315   7.052  10.847   3.704 -0.0972  0.2050 -0.2011
 3699W        W19316  16.074   3.568   0.486  0.1119 -0.2635 -0.0808
 3700W        W19317  10.591   7.165  14.832 -0.0789  0.3019 -0.2288
 3701W        W19318  11.616   5.000   4.360 -0.1344 -0.5089 -0.2687
 3702W        W19319   4.765  14.207   1.497 -0.1887  0.1270  0.1199
 3703W        W19320   8.520   1.372  11.529  0.1736  0.0622  0.1447
 3704W        W19321  15.591  15.718   5.068 -0.1524  0.1063  0.4609
 3705W        W19322   6.013   2.233  10.518  0.2158 -0.2064 -0.2679
 3706W        W19323  16.875   8.199  15.772  0.0321 -0.0046 -0.3283
 3707W        W19324   7.738   5.162   5.569 -0.0191  0.2273 -0.0281
 3708W        W19325   4.618  15.828   3.941 -0.0099 -0.1061 -0.0697
 3709W        W19326  15.943   1.344  12.497 -0.2152  0.1611  0.0415
 3710W        W19327   8.043  16.934   2.256  0.3210  0.1730  0.0566
 3711W        W19328  10.209   0.763  16.480  0.0244 -0.1879 -0.3711
 3712W        W19329  14.870   2.360   5.940  0.0720 -0.4060  0.1892
 3713W        W19330  13.102  10.301  16.071  0.1437  0.1198  0.1905
 3714W        W19331  10.328  13.571   1.895  0.1068 -0.0803  0.1651
 3715W        W19332   5.046  15.942   2.799 -0.0030 -0.1915 -0.1495
 3716W        W19333  13.455   9.297   1.635  0.1239 -0.0093 -0.0573
 3717W        W19334   4.845  11.054   0.445 -0.0797 -0.4056  0.0343
 3718W        W19335   6.907   3.687  14.934  0.2868  0.0952 -0.0333
 3719W        W19336  14.677  10.330   2.147 -0.1701  0.0452 -0.2825
 3720W        W19337   0.094  16.584   0.656 -0.0692  0.2215  0.0704
 3721W        W19338   8.183   5.009   4.395  0.0010 -0.4573 -0.2469
 3722W        W19339  10.429   9.660  12.335  0.3369  0.0689 -0.0757
 3723W        W19340   1.603  14.991  12.322  0.2840  0.1928 -0.2018
 3724W        W19341   1.182   7.490  11.525  0.0353  0.1827  0.2231
 3725W        W19342  13.650   1.458   5.964 -0.3683 -0.2054  0.0097
 3726W        W19343   5.165   1.385  13.571  0.2236 -0.2576  0.0584
 3727W        W19344  10.954  10.423  10.735 -0.0057 -0.0695  0.0581
 3728W        W19345   9.222  16.738   2.702  0.1894 -0.0351  0.1968
 3729W        W19346   7.912   0.578  12.417 -0.0288 -0.0463 -0.0324
 3730W        W19347  12.832   4.612   1.102  0.2810  0.2231 -0.1844
 3731W        W19348   9.043  11.324  16.234  0.1262 -0.1501 -0.3740
 3732W        W19349  17.335   8.165  12.431  0.1856 -0.0724  0.0579
 3733W        W19350   2.247   3.918   3.914  0.0509 -0.1320  0.2487
 3734W        W19351   6.345  11.155   3.533  0.0256 -0.0740  0.1559
 3735W        W19352   5.833  13.789  16.180 -0.1309  0.2420  0.0308
 3736W        W19353  13.233  13.758   2.460  0.2386 -0.1517 -0.0887
 3737W        W19354   3.351   5.511   4.466 -0.0626  0.1097  0.2892
 3738W        W19355  15.536   8.729   4.222 -0.1819  0.1529 -0.0604
 3739W        W19356  14.371  17.647   4.288  0.0575  0.0482 -0.2803
 3740W        W19357  17.873   6.953  16.643 -0.1166 -0.0401  0.1505
 3741W        W19358   1.035  16.506   3.062 -0.2543  0.2661 -0.1823
 3742W        W19359  11.590  13.963  11.926 -0.2282 -0.3281  0.0501
 3743W        W19360  15.901   2.635   5.839 -0.4033  0.1661  0.0371
 3744W        W19361   9.575   4.930  16.589  0.0341 -0.2591 -0.0574
 3745W        W19362   0.244   0.360   4.811  0.0103 -0.1052 -0.0339
 3746W        W19363  14.254  16.628  16.215 -0.2084 -0.1694  0.2722
 3747W        W19364   3.235   5.903  11.654 -0.2853 -0.0282  0.2068
 3748W        W19365  12.843   2.165   4.487  0.0545  0.0035 -0.0987
 3749W        W19366   1.270   5.563   5.108 -0.0282  0.0219 -0.1708
 3750W        W19367  15.214  17.806  12.219  0.0474 -0.2324 -0.2563
 3751W        W19368  17.905   2.577   0.711 -0.0215  0.1415 -0.2168
 3752W        W19369  16.585   6.994  14.501  0.1298 -0.3256 -0.1716
 3753W        W19370   2.353  10.612  12.152  0.0530 -0.2226 -0.0656
 3754W        W19371   5.370   0.911  14.279 -0.0392  0.3555 -0.2074
 3755W        W19372   8.395  11.380  15.587 -0.2749  0.1130  0.1473
 3756W        W19373  11.517   6.060  16.255  0.0308  0.1597  0.0623
 3757W        W19374   2.464  12.424   0.023  0.0300 -0.0810 -0.0825
 3758W        W19375  13.805   7.861   1.028  0.0705  0.0761 -0.1198
 3759W        W19376   2.092  12.034   5.035 -0.2760 -0.2568 -0.1796
 3760W        W19377   6.832  15.961  12.240  0.3524  0.0800 -0.0657
 3761W        W19378   6.878   5.935   0.858 -0.1599  0.2496 -0.1400
 3762W        W19379   6.484  12.074   4.482  0.1556 -0.0680 -0.2272
 3763W        W19380   0.226  10.395   1.596 -0.4161 -0.0021 -0.3085
 3764W        W19381   4.933   0.759  16.404 -0.0033  0.1060  0.1885
 3765W        W19382  13.169   5.607   0.696  0.2210 -0.2525  0.0462
 3766W        W19383   0.141   4.344  12.970 -0.2922 -0.0243  0.0124
 3767W        W19384   3.588  15.943   0.488 -0.3091  0.1018  0.1312
 3768W        W19385  13.764  17.844   5.176 -0.0497 -0.3006  0.1634
 3769W        W19386  11.585  17.468   1.806 -0.0495 -0.2965  0.0706
 3770W        W19387   8.409  17.670  11.377 -0.1891 -0.3152 -0.2003
 3771W        W19388   9.369  14.961   0.570  0.1877 -0.0888 -0.0417
 3772W        W19389  16.305   9.536  16.542  0.0873  0.0468  0.1108
 3773W        W19390   6.928   9.771  13.482  0.0028  0.2308 -0.2347
 3774W        W19391  14.958  17.990   0.125  0.0971 -0.0987 -0.0210
 3775W        W19392  16.183  15.611  12.439  0.2629  0.3156  0.2665
 3776W        W19393   0.589  11.560  16.103 -0.1136  0.1107  0.0684
 3777W        W19394  12.863   9.054   2.261 -0.0033 -0.1549 -0.4037
 3778W        W19395  17.132   9.268  11.751  0.1111  0.0929  0.0360
 3779W        W19396  11.904  12.069   0.477 -0.0575  0.0203  0.1273
 3780W        W19397   1.149   6.563   3.562  0.2135 -0.0209 -0.0076
 3781W        W19398   6.684   3.604   0.409 -0.3118  0.2295  0.3085
 3782W        W19399  13.403   0.669   6.321 -0.2762  0.0883 -0.0510
 3783W        W19400   3.197  10.574   3.023 -0.0439  0.2219  0.0094
 3784W        W19401  12.655   5.582  14.925  0.0946 -0.0233  0.2275
 3785W        W19402  16.352   5.884   5.507  0.3054  0.3559  0.2760
 3786W        W19403   2.638   6.350  11.459  0.2213  0.1916  0.0890
 3787W        W19404   6.787   7.835  13.976 -0.0192 -0.0211 -0.1322
 3788W        W19405   3.484  14.359   0.057 -0.0647  0.0658  0.2777
 3789W        W19406  12.603   9.728   3.322 -0.0955 -0.3892  0.1995
 3790W        W19407  17.420  17.708   5.531 -0.3114 -0.3794 -0.4152
 3791W        W19408  14.575   5.528   5.300  0.0668 -0.1240  0.1115
 3792W        W19409  17.312   0.493  14.620 -0.0849 -0.1937 -0.0977
 3793W        W19410   6.415   0.177  16.068 -0.1818  0.1034 -0.1738
 3794W        W19411   3.711   1.704   1.814  0.3376 -0.0116 -0.2714
 3795W        W19412   8.166  15.125  12.831 -0.0342  0.3060  0.1465
 3796W        W19413   9.106   1.265  14.702 -0.1135  0.4749 -0.0081
 3797W        W19414  16.077   3.107   0.771  0.2464  0.2730  0.1893
 3798W        W19415  14.103  10.849   5.490 -0.0403  0.1978 -0.0242
 3799W        W19416   2.784  16.360  11.993  0.2741 -0.1756  0.0939
 3800W        W19417   4.592   7.158   2.635 -0.1376 -0.2811  0.1488
 3801W        W19418  17.597   7.238   2.835  0.0847  0.2151 -0.0094
 3802W        W19419   0.140  13.818   0.664 -0.0168  0.1228 -0.1175
 3803W        W19420  15.338   1.764   0.605 -0.0120  0.1353  0.0470
 3804W        W19421   7.454  14.140   0.014  0.0004  0.0616  0.3965
 3805W        W19422   1.056   1.073  16.786  0.0105 -0.0587 -0.1993
 3806W        W19423   0.820  16.217   2.482  0.3263 -0.0442  0.2046
 3807W        W19424  14.393  16.937  11.697  0.0912  0.1858 -0.3382
 3808W        W19425  17.484  10.398  14.258 -0.1045 -0.2291  0.1153
 3809W        W19426  12.488   5.362  15.383  0.1070 -0.0217 -0.0777
 3810W        W19427  14.824   0.857  13.127 -0.1158  0.1738  0.0621
 3811W        W19428   6.417   2.396  16.128 -0.1222  0.1460 -0.2355
 3812W        W19429   9.712  15.189  11.259 -0.4209 -0.1984 -0.3210
 3813W        W19430   3.760   9.680  14.847 -0.3957 -0.2913  0.0753
 3814W        W19431   9.266  16.512  11.872 -0.2984  0.1216  0.2858
 3815W        W19432   9.898  11.671   4.876 -0.0044 -0.1804 -0.1187
 3816W        W19433   3.634  14.119  12.320  0.1291 -0.0032 -0.0122
 3817W        W19434  12.077  16.035   1.445 -0.1613 -0.0996 -0.0642
 3818W        W19435  17.043  15.723   0.927  0.0136 -0.2235 -0.0521
 3819W        W19436   9.617   1.965  14.554  0.2427 -0.0434 -0.2585
 3820W        W19437   9.486   8.843   4.142 -0.0102 -0.3528  0.0655
 3821W        W19438  12.912  13.075  11.371 -0.0371  0.0085  0.1460
 3822W        W19439  10.116  14.078   1.727  0.0257  0.1657  0.0255
 3823W        W19440   8.980   2.778  11.861 -0.1596 -0.0641 -0.2084
 3824W        W19441  15.391   3.379  13.781  0.0936 -0.4971 -0.2042
 3825W        W19442  10.029  14.079   4.877  0.1753  0.1855 -0.0538
 3826W        W19443  15.836  14.553  14.246 -0.0370  0.1539 -0.0544
 3827W        W19444  14.890   3.885  15.672  0.3453  0.0234  0.3562
 3828W        W19445  16.826  10.151  13.627  0.0364 -0.2505 -0.2390
 3829W        W19446  11.400   3.099   5.772 -0.2299 -0.2091  0.0870
 3830W        W19447   1.247   0.653  13.807  0.0029 -0.1764 -0.1910
 3831W        W19448  16.396  11.386   3.746 -0.0329  0.0303 -0.5370
 3832W        W19449   5.142   4.221   1.082 -0.1361  0.3231  0.1386
 3833W        W19450  10.863   4.928   2.134 -0.2990  0.2430 -0.3171
 3834W        W19451   5.245   0.139  15.612  0.0176 -0.1437 -0.2679
 3835W        W19452   8.773  15.292   0.084 -0.2759 -0.1666  0.1687
 3836W        W19453   7.761   0.577   1.499  0.1517  0.0210  0.0529
 3837W        W19454   5.858  11.531  16.629  0.2229  0.0649  0.0270
 3838W        W19455   1.195  17.437   5.329 -0.1270 -0.1405  0.1421
 3839W        W19456  12.346   7.628   0.840  0.0052 -0.2200  0.3070
 3840W        W19457  12.701   7.236  14.281 -0.0638 -0.0379 -0.1740
 3841W        W19458  17.496   2.080   6.064 -0.0255 -0.0711  0.2367
 3842W        W19459   7.606   1.641   6.068  0.1156 -0.0873 -0.0031
 3843W        W19460  11.507   0.450   1.456 -0.2835 -0.0588  0.2043
 3844W        W19461   4.153  11.258   3.831 -0.1465  0.1977  0.2186
 3845W        W19462   9.591  15.033  13.512 -0.2518  0.0202  0.1534
 3846W        W19463   0.652   1.630   3.325  0.1670 -0.5013 -0.0777
 3847W        W19464   1.925   1.888  12.739 -0.1254 -0.0808  0.1015
 3848W        W19465  10.884   9.777  12.106  0.2335  0.1008  0.1572
 3849W        W19466  10.794  17.465   4.656 -0.1587 -0.1783 -0.0733
 3850W        W19467   5.577   0.959  14.853  0.1619 -0.0490 -0.0433
 3851W        W19468   1.266  10.045   3.862 -0.1091  0.0385  0.0489
 3852W        W19469   4.044   8.736   1.428 -0.1093 -0.0954  0.1689
 3853W        W19470   6.230   1.360   0.837  0.1139  0.1809 -0.3006
 3854W        W19471   3.311  15.946  13.139  0.3485 -0.0517 -0.1826
 3855W        W19472  10.821  11.688   3.807 -0.0624  0.1412 -0.1574
 3856W        W19473   5.813  14.638   0.989  0.3749 -0.3297 -0.1640
 3857W        W19474  13.081  10.385   2.936 -0.1925 -0.0996 -0.2656
 3858W        W19475   9.816   0.440   0.563 -0.1455 -0.0443 -0.0330
 3859W        W19476   3.390   3.883  15.037  0.1527  0.1854  0.0035
 3860W        W19477   6.655   0.580  12.783 -0.1632 -0.0594  0.0735
 3861W        W19478   6.111  10.795  11.405 -0.0340 -0.2715 -0.2008
 3862W        W19479   2.973  15.230   1.340  0.1032  0.2506  0.0489
 3863W        W19480   4.235  12.304   0.842  0.0988 -0.2727  0.1635
 3864W        W19481   7.598   8.585   2.001 -0.1412 -0.0747 -0.3010
 3865W        W19482   0.164   9.702  16.182 -0.1162 -0.0157 -0.1189
 3866W        W19483   7.723   4.068   5.715  0.1375  0.1557  0.1500
 3867W        W19484   0.249  16.929   2.198  0.1909 -0.1299  0.0240
 3868W        W19485   9.224   1.419   4.811 -0.3296  0.1563  0.1931
 3869W        W19486  15.720  11.593   3.128 -0.4021 -0.0488  0.1097
 3870W        W19487  11.649   4.174  15.485 -0.1064  0.0336  0.0804
 3871W        W19488  10.015   1.809   3.740 -0.1498  0.1651 -0.4811
 3872W        W19489   1.520   4.348   0.112  0.2206 -0.1548  0.2142
 3873W        W19490   0.060   6.172   5.038  0.3380 -0.2922  0.0366
 3874W        W19491   7.358   3.066   0.243 -0.1055  0.2640  0.0358
 3875W        W19492   9.569  17.330   2.611 -0.1124  0.2409  0.3137
 3876W        W19493  17.115   4.160  12.731 -0.2967  0.3202 -0.0881
 3877W        W19494   8.804   3.401   3.734 -0.0292  0.2569  0.0798
 3878W        W19495  14.338  11.179  11.864  0.0876 -0.1314  0.2208
 3879W        W19496   8.586  10.743  11.324 -0.4279 -0.0470 -0.0183
 3880W        W19497   7.352  12.299   4.143 -0.0950 -0.2239  0.0258
 3881W        W19498  11.585   1.808   0.181  0.1215  0.0406  0.1413
 3882W        W19499  16.108  16.409  15.524  0.0841  0.3469  0.0341
 3883W        W19500  13.347  11.295   3.874  0.1023 -0.1072 -0.1463
 3884W        W19501  12.184  16.345   3.557  0.1010 -0.2757  0.0214
 3885W        W19502   6.056  17.669  15.312 -0.0327  0.0049 -0.0770
 3886W        W19503   7.625   5.744  16.580  0.1719 -0.1659  0.1848
 3887W        W19504   1.393   1.421  13.939 -0.1718 -0.0647  0.0730
 3888W        W19505   1.197  12.768  16.702  0.0729 -0.1721  0.2577
 3889W        W19506   9.470   1.201  15.024  0.2004  0.3102 -0.0004
 3890W        W19507   0.741  10.978   5.526  0.1592 -0.0625 -0.0486
 3891W        W19508   8.961  15.584  15.582 -0.4454  0.0746  0.1657
 3892W        W19509   3.222   3.077   5.831  0.1620 -0.3533 -0.2814
 3893W        W19510  17.294   3.220   1.248 -0.3730  0.1388  0.4300
 3894W        W19511   7.453   0.727   6.217  0.1285  0.0272  0.0271
 3895W        W19512   4.612  10.803   4.558 -0.2409 -0.2751 -0.1393
 3896W        W19513  13.783  14.452   0.636 -0.1518 -0.2527  0.3436
 3897W        W19514  12.772   8.658  13.720  0.0098  0.0005 -0.2672
 3898W        W19515   6.976  13.407   2.470  0.0209 -0.0011 -0.0478
 3899W        W19516  15.786  13.401   5.112 -0.1712 -0.2480  0.0469
 3900W        W19517   0.620   3.417   1.194 -0.2581 -0.1966  0.1607
 3901W        W19518   2.985  14.424   6.243 -0.1802 -0.1821 -0.0652
 3902W        W19519  13.312  12.521  16.511 -0.1316 -0.1342  0.1995
 3903W        W19520   2.470   1.683   2.350 -0.2224 -0.4187  0.1642
 3904W        W19521  13.591  13.051   4.989 -0.0926  0.0390 -0.3185
 3905W        W19522  11.348   5.791  15.353 -0.2050  0.1809  0.1467
 3906W        W19523  10.963   4.709  16.117  0.1118  0.1436  0.0271
 3907W        W19524  16.992   9.947   5.152  0.1603 -0.2590  0.1015
 3908W        W19525   9.956  16.444   3.414 -0.1152  0.1761  0.0260
 3909W        W19526   8.714  16.902  15.404 -0.1168 -0.0315 -0.1718
 3910W        W19527   5.964  10.656  13.692 -0.2247 -0.0253  0.2244
 3911W        W19528  16.295  17.766   1.107  0.0844  0.0230  0.2265
 3912W        W19529   9.704  15.020  13.958 -0.3828 -0.0406 -0.2215
 3913W        W19530   7.493  13.785  13.351 -0.1321  0.0157  0.1052
 3914W        W19531   0.320   8.221  13.261 -0.1376 -0.0393 -0.1046
 3915W        W19532  16.297   4.866  16.122 -0.1482  0.0656  0.1107
 3916W        W19533  14.222  15.545  12.717  0.2747  0.0096  0.1073
 3917W        W19534  17.288  16.526   3.224  0.2003 -0.2773 -0.2592
 3918W        W19535   0.546  16.221   5.352  0.0740 -0.1090 -0.3086
 3919W        W19536   8.642  15.607   2.811 -0.1166  0.0980 -0.0228
 3920W        W19537   7.496   0.963   3.084 -0.0145  0.1892  0.0796
 3921W        W19538   2.961  13.195   2.060 -0.3232 -0.1318 -0.3248
 3922W        W19539  11.059   6.882  13.560 -0.0466 -0.2415 -0.0148
 3923W        W19540   5.753   5.209   5.153 -0.2469  0.0085 -0.2337
 3924W        W19541   0.694   0.130   2.199 -0.2895  0.0074  0.2065
 3925W        W19542   3.119  14.184  12.174  0.1495  0.1642 -0.1651
 3926W        W19543   8.485   5.659  11.517 -0.1187  0.0452 -0.0171
 3927W        W19544   4.964   8.166  14.154 -0.0541 -0.0434 -0.3263
 3928W        W19545   7.994  14.447   4.091 -0.1479 -0.1467 -0.2888
 3929W        W19546   6.889  16.463   1.038  0.0399  0.0838  0.1291
 3930W        W19547  17.598  10.919   1.511 -0.0469 -0.0966  0.3614
 3931W        W19548   2.944  12.540   3.929  0.2378 -0.2036  0.2664
 3932W        W19549   0.367  17.749   2.916 -0.3516  0.5223 -0.0174
 3933W        W19550   6.635  10.599  15.394  0.1127  0.1500  0.1952
 3934W        W19551   4.459   3.091  16.755 -0.0191 -0.0071  0.2794
 3935W        W19552  14.498  11.212   3.950  0.1605  0.3653 -0.2436
 3936W        W19553  15.500  13.121   2.488 -0.0291 -0.1310  0.2269
 3937W        W19554   2.141   4.558  12.492  0.2461  0.2097 -0.0114
 3938W        W19555  17.188   7.102  15.238 -0.1600 -0.0972  0.1081
 3939W        W19556   1.820  12.992   0.470  0.0129 -0.2031 -0.1967
 3940W        W19557   9.853  13.204   5.003  0.1814  0.0807  0.0989
 3941W        W19558   9.448  17.872   1.499 -0.3604 -0.0366  0.0614
 3942W        W19559   4.387  15.120  12.883  0.4310  0.0442  0.1775
 3943W        W19560   8.137   9.283   2.320 -0.0623  0.2173 -0.2071
 3944W        W19561  13.408   5.860  12.925  0.0045 -0.4236  0.4062
 3945W        W19562  10.982  12.245   3.929  0.3481  0.0773 -0.2002
 3946W        W19563  16.898   5.317   2.638  0.2324  0.1976 -0.0216
 3947W        W19564  15.873   2.222  13.571  0.1873  0.0000  0.0097
 3948W        W19565   4.760   1.213   3.277 -0.0392  0.4394  0.0753
 3949W        W19566   6.653  14.367  16.607 -0.3931 -0.1014 -0.1102
 3950W        W19567   4.870   1.042  11.924 -0.1902  0.0029  0.1282
 3951W        W19568   5.615  10.079  11.848  0.0259 -0.3217  0.1054
 3952W        W19569   5.470  13.461   0.999 -0.1339 -0.3120  0.1582
 3953W        W19570   6.288   9.355   1.195  0.0769 -0.0917 -0.0652
 3954W        W19571   2.764  12.862   4.364 -0.1473 -0.2454 -0.1116
 3955W        W19572   0.253  10.868   4.314  0.2043 -0.3825 -0.3549
 3956W        W19573   5.106  13.929   5.908 -0.2373 -0.1588  0.0254
 3957W        W19574  12.944   1.766   4.922  0.1646 -0.2930 -0.1206
 3958W        W19575   3.152   8.305  13.718 -0.3649  0.0250 -0.0397
 3959W        W19576   6.913  15.657   0.304 -0.0859 -0.0366 -0.5314
 3960W        W19577   7.342   7.633  15.239  0.1289 -0.0855  0.1167
 3961W        W19578   8.735  17.864  11.758  0.0292 -0.1179  0.2577
 3962W        W19579  15.811  12.034   0.351 -0.0884 -0.0044 -0.3025
 3963W        W19580  12.471  11.805   1.435  0.0824  0.0217  0.1058
 3964W        W19581  15.603  17.806   3.363 -0.0447  0.1147  0.0306
 3965W        W19582   1.052   0.519  13.334 -0.0340  0.0308  0.0583
 3966W        W19583   9.665   4.309   0.105  0.1049  0.1242  0.1102
 3967W        W19584  15.110   2.317   5.332  0.1351 -0.0107  0.1436
 3968W        W19585  12.533  13.987  13.110 -0.0786  0.1395  0.2876
 3969W        W19586   5.524  14.543  12.667 -0.1862 -0.0440 -0.2097
 3970W        W19587  16.387   8.613   0.707 -0.3001  0.1846 -0.0393
 3971W        W19588  12.426  10.555  15.379  0.1735 -0.0501  0.0728
 3972W        W19589   0.112   1.337   2.552 -0.0460  0.0483 -0.2255
 3973W        W19590  11.835   4.209   0.467  0.3219 -0.1433  0.0558
 3974W        W19591  15.624   6.672   4.880 -0.1347  0.3002  0.3912
 3975W        W19592   1.452  13.068  16.420 -0.1645  0.0916 -0.0238
 3976W        W19593   6.525  11.474   4.523 -0.0665  0.0323  0.5362
 3977W        W19594   9.623  13.332  12.987 -0.0968  0.2242 -0.2663
 3978W        W19595   2.133   2.782  14.703 -0.0165 -0.0498 -0.2024
 3979W        W19596  11.939  11.032   5.158  0.0233  0.5007  0.0004
 3980W        W19597   2.547   5.193  14.492 -0.0147  0.1881  0.0869
 3981W        W19598  14.612   2.930  12.535  0.0950 -0.0239 -0.0356
 3982W        W19599  13.778  15.488  12.162  0.0261  0.3390 -0.1135
 3983W        W19600   1.069  12.986  13.609 -0.2672 -0.3389 -0.1058
 3984W        W19601  17.328   6.748  13.921 -0.0577  0.1676  0.1469
 3985W        W19602   0.518   5.754  16.567 -0.0381  0.0758 -0.3000
 3986W        W19603   0.577   2.186  12.869 -0.0880 -0.0122  0.3612
 3987W        W19604   0.164  15.518   2.886  0.3685 -0.0422 -0.2917
 3988W        W19605   6.656   2.220  14.910  0.1050 -0.1052 -0.2285
 3989W        W19606   0.301   7.491  12.207  0.1813  0.0020 -0.1617
 3990W        W19607   5.660   7.041  11.161  0.0610 -0.1866 -0.1992
 3991W        W19608  17.687   2.036  16.459 -0.1993 -0.1243  0.3448
 3992W        W19609  13.704   2.602   1.408 -0.3254 -0.0889  0.1068
 3993W        W19610   4.512   1.605  16.409 -0.0109 -0.0463  0.0745
 3994W        W19611   6.081  11.794  12.554 -0.1860 -0.0209  0.3258
 3995W        W19612   7.222  17.113  16.443 -0.1937 -0.0974 -0.2481
 3996W        W19613  14.936   5.481   0.480  0.1951 -0.1811 -0.0678
 3997W        W19614  10.384  15.940   0.806  0.2699  0.1130  0.0834
 3998W        W19615   7.128   0.513  13.349 -0.0780 -0.0111 -0.3835
 3999W        W19616   1.201  12.091  11.548 -0.0330 -0.2752  0.1465
 4000W        W19617   6.789  16.899  12.534  0.1091  0.2730 -0.1004
 4001W        W19618  10.002   6.970   2.455  0.1209  0.0487  0.1244
 4002W        W19619  12.251   5.384   2.016 -0.0208  0.1849 -0.1315
 4003W        W19620  17.119   2.373   4.266 -0.0783  0.1088 -0.2844
 4004W        W19621   6.679   3.329  12.591 -0.3319 -0.0407  0.1506
 4005W        W19622   3.537  16.652  13.175 -0.3732 -0.0116 -0.0878
 4006W        W19623   8.376  15.758  15.846  0.1301 -0.2093 -0.0867
 4007W        W19624  13.366  15.452  16.613  0.0381  0.3307  0.0337
 4008W        W19625  15.783  10.520   0.240  0.0297 -0.0987 -0.1772
 4009W        W19626   2.955  17.847   5.995  0.3316 -0.4993  0.1056
 4010W        W19627   7.592   1.157  12.406 -0.0566 -0.3287  0.2997
 4011W        W19628  11.763   2.101  14.157  0.1694  0.0409  0.2951
 4012W        W19629  14.028   4.241  13.024 -0.0684 -0.0026  0.0916
 4013W        W19630  12.686   8.052  15.500  0.1270  0.2177 -0.0985
 4014W        W19631   0.650  14.055   3.933 -0.2707 -0.0773  0.2174
 4015W        W19632  13.681   8.300  14.046 -0.1000  0.2905  0.2684
 4016W        W19633  12.909  16.929  11.570  0.0807  0.2306  0.4872
 4017W        W19634  10.105  14.963   1.493  0.2674  0.2114  0.1998
 4018W        W19635   5.995   9.807  13.155  0.0778  0.0825  0.0875
 4019W        W19636  12.399  14.825   5.284 -0.4610  0.1006  0.1424
 4020W        W19637  16.958  10.577   3.792 -0.2263  0.3370  0.1348
 4021W        W19638   5.413   6.173  14.713 -0.0490  0.1233  0.2133
 4022W        W19639  17.705  10.758  15.305  0.1408 -0.0310  0.1291
 4023W        W19640  10.627   4.994   0.671 -0.1048  0.3008  0.1189
 4024W        W19641  16.347   0.091  11.783  0.1987  0.1310 -0.3102
 4025W        W19642   8.072   7.170   1.461  0.0706 -0.1695  0.3071
 4026W        W19643  16.262   3.439  15.238  0.2286 -0.1225  0.1776
 4027W        W19644   1.310   5.136   5.381  0.2655  0.0820  0.0808
 4028W        W19645  12.966   1.541   5.412  0.2600 -0.0182  0.1221
 4029W        W19646   8.435   4.370   0.176 -0.3114 -0.0144 -0.1417
 4030W        W19647   5.729  13.169   0.663  0.1275  0.1303  0.1428
 4031W        W19648   5.452   8.527  15.448  0.0273 -0.0956  0.1028
 4032W        W19649  10.000   8.143  15.305 -0.2143 -0.1626 -0.3202
 4033W        W19650   0.391  11.224   0.739 -0.0892  0.2601 -0.1723
 4034W        W19651   6.141  12.510   3.299  0.2086  0.2673 -0.3556
 4035W        W19652  13.679  16.190   1.984  0.0888  0.1411  0.4324
 4036W        W19653  13.366   1.083  11.315  0.0759  0.0138  0.2034
 4037W        W19654  15.587  13.620   4.130 -0.2078 -0.0198 -0.1447
 4038W        W19655   1.533  17.883  16.587 -0.1865 -0.3410 -0.0856
 4039W        W19656   7.971   2.020  16.593 -0.3783  0.1059  0.1010
 4040W        W19657   7.997   6.416  11.698 -0.1202 -0.2980 -0.0316
 4041W        W19658   2.169   8.460  15.220  0.0682  0.0945  0.0627
 4042W        W19659  15.783   0.140   3.034  0.0331 -0.2347  0.0216
 4043W        W19660  12.151   1.191  14.910  0.1276  0.2155 -0.2223
 4044W        W19661  13.067  12.600   0.516  0.1504 -0.1642  0.2236
 4045W        W19662  13.637   0.988   5.953 -0.1485  0.2468  0.1841
 4046W        W19663  11.520  16.107   5.879  0.1223 -0.0927  0.0156
 4047W        W19664   2.380  15.613  15.911  0.0540  0.0938  0.1231
 4048W        W19665   3.825   8.968  14.085 -0.0173 -0.1512 -0.0936
 4049W        W19666  13.948   9.393  16.112  0.0911  0.0567  0.0132
 4050W        W19667   9.901  10.934   2.274  0.0643 -0.1068 -0.4730
 4051W        W19668  16.023  11.476   2.678 -0.2524  0.0235 -0.0677
 4052W        W19669   9.488   5.665  15.753 -0.0799  0.4170 -0.0684
 4053W        W19670   4.053   2.556  14.583  0.3975  0.1891  0.2223
 4054W        W19671  11.165   2.176   0.017  0.3314 -0.0647  0.2139
 4055W        W19672  14.213   1.622  12.867  0.1317  0.0705 -0.2191
 4056W        W19673   2.959  15.064  11.571  0.0534 -0.0424  0.1253
 4057W        W19674  17.159   6.037  15.927 -0.0110  0.0561 -0.0213
 4058W        W19675  15.423  15.948  14.878  0.2164 -0.0486 -0.0082
 4059W        W19676   2.646  10.331  16.106 -0.3037  0.1761  0.1554
 4060W        W19677   6.912  12.052  12.281  0.0362 -0.1535  0.0502
 4061W        W19678  14.847  14.736   5.513  0.2349  0.0060  0.0044
 4062W        W19679  14.849  12.936  14.413  0.2564 -0.1382  0.3665
 4063W        W19680   2.881  15.754   4.245  0.0369  0.5052  0.0041
 4064W        W19681   2.319   2.120  12.668  0.0401  0.2086 -0.1175
 4065W        W19682   6.789  16.363  12.544 -0.3157  0.0863 -0.1055
 4066W        W19683   6.538   0.889  11.909 -0.1223 -0.0256 -0.0320
 4067W        W19684   8.505   4.413  14.754 -0.2262 -0.2660  0.3135
 4068W        W19685   6.352   1.536   5.914  0.0305  0.1386  0.0888
 4069W        W19686   3.872   3.820  15.528  0.0952 -0.2212 -0.0251
 4070W        W19687  10.521   5.131   3.931 -0.2193 -0.1302 -0.0027
 4071W        W19688  14.524  16.870  14.141 -0.2884  0.0182  0.0169
 4072W        W19689   4.130  14.684  12.924  0.3798 -0.0468 -0.0493
 4073W        W19690  10.018   8.254  12.264  0.0862  0.1507  0.1418
 4074W        W19691  17.310  13.395  13.614  0.1245 -0.0350 -0.0595
 4075W        W19692  13.685  10.128  15.279 -0.2697 -0.2212 -0.2214
 4076W        W19693   9.885  15.106  15.398 -0.0292 -0.1459  0.0352
 4077W        W19694   7.502   0.372   1.987  0.1293 -0.1319  0.0202
 4078W        W19695   7.451  17.596  16.668  0.1243  0.1686 -0.0723
 4079W        W19696   0.612  10.164   1.839 -0.0178  0.0747  0.4162
 4080W        W19697   8.211  15.133  14.607 -0.2442  0.1520 -0.1441
 4081W        W19698  15.795  15.476  14.324  0.0729 -0.0887 -0.1151
 4082W        W19699  12.889   9.679   4.480  0.1034  0.1665 -0.0142
 4083W        W19700  13.903  14.198   3.801  0.0440  0.0730 -0.1240
 4084W        W19701   0.346  14.657  12.006 -0.1021  0.0446 -0.0354
 4085W        W19702  12.966  14.081   2.176  0.1642 -0.2589 -0.0720
 4086W        W19703   6.829  11.535   4.077  0.0298  0.0010  0.0374
 4087W        W19704   7.449   2.111   2.160 -0.4269 -0.1419 -0.0864
 4088W        W19705   5.252   5.145   5.400  0.0017 -0.1077  0.0399
 4089W        W19706   9.307   5.101   2.032 -0.1378 -0.0049  0.2311
 4090W        W19707  13.086   5.363   6.002  0.1268  0.1358  0.1862
 4091W        W19708  12.714  14.576   2.892  0.4153 -0.0491 -0.1328
 4092W        W19709   5.960   1.506  16.082 -0.1280 -0.1742 -0.0423
 4093W        W19710  15.034  10.793  12.487 -0.0457  0.1942  0.0578
 4094W        W19711  10.219  16.250   5.066 -0.2570  0.2789  0.0872
 4095W        W19712   6.390   8.522  15.540 -0.1739  0.0245 -0.1226
 4096W        W19713   5.079  17.505  14.480  0.0497 -0.1673  0.0984
 4097W        W19714   6.103  15.459  11.987  0.3041 -0.0649 -0.0951
 4098W        W19715   5.236  11.798  13.081 -0.1625  0.0508 -0.1208
 4099W        W19716  11.230  15.305   0.682 -0.3833 -0.3894  0.1268
 4100W        W19717   5.836   0.076  16.206  0.2265 -0.4336 -0.1280
 4101W        W19718   9.978   8.283   4.608 -0.4155  0.4211 -0.0418
 4102W        W19719  14.234  17.520   3.705  0.3702  0.3176 -0.0491
 4103W        W19720  12.868  10.800  14.656  0.0335 -0.1187  0.1039
 4104W        W19721  16.832  10.113  11.601  0.2946  0.2008  0.1306
 4105W        W19722   1.584  11.128   2.342 -0.1118 -0.0766  0.1066
 4106W        W19723   1.274   7.762  10.493  0.0695 -0.0910 -0.1014
 4107W        W19724  10.722   0.502  13.664 -0.4256  0.1791 -0.1822
 4108W        W19725  12.605  10.573  15.869  0.3193  0.1192  0.0871
 4109W        W19726   6.342  14.761  12.211 -0.1553 -0.0674  0.4443
 4110W        W19727   4.463  12.517  14.080  0.3079  0.0604 -0.1882
 4111W        W19728   1.488  10.046  15.239  0.3390 -0.1317  0.0871
 4112W        W19729  13.199   2.628   1.225  0.3680 -0.4459  0.0524
 4113W        W19730   4.554  17.174   3.250 -0.2257  0.0889  0.0357
 4114W        W19731   3.782  15.272  11.715 -0.1430 -0.0538 -0.3672
 4115W        W19732  17.053  12.846  13.092 -0.0067 -0.2687  0.2387
 4116W        W19733  16.830  16.574   0.716  0.2709 -0.0607  0.0115
 4117W        W19734   5.554  17.802   0.531 -0.0985 -0.1938  0.0943
 4118W        W19735   8.402  15.218   0.457 -0.1222  0.1661 -0.0628
 4119W        W19736   4.920   6.051  15.828  0.4474  0.2608 -0.2019
 4120W        W19737  16.301  11.966   3.921  0.1334 -0.1771  0.2128
 4121W        W19738   8.417  14.344   5.697  0.2383 -0.2848  0.1465
 4122W        W19739  13.671  12.831   5.459 -0.0813  0.1035 -0.0705
 4123W        W19740   8.073  17.988   1.221  0.0166  0.0187 -0.0663
 4124W        W19741  14.580  11.089  12.779 -0.1021  0.0188  0.1483
 4125W        W19742  17.915   0.998   1.772  0.1472 -0.0614 -0.4329
 4126W        W19743  15.775  15.526  12.733 -0.2330  0.1570  0.1133
 4127W        W19744   1.713  14.218   0.885 -0.5999 -0.0492 -0.2040
 4128W        W19745   6.611   9.592   3.201 -0.0765 -0.0880  0.0569
 4129W        W19746   5.319   8.186   3.462 -0.0871 -0.0267  0.1107
 4130W        W19747   7.466   1.691  16.028  0.1257  0.0488 -0.1411
 4131W        W19748  12.496   9.138  11.937  0.0135  0.4556  0.0209
 4132W        W19749  17.757   5.815   2.891  0.0133 -0.0583  0.0421
 4133W        W19750  12.479   7.395  11.257 -0.1047 -0.0519  0.0840
 4134W        W19751   6.995   2.143  11.901  0.0126 -0.1747 -0.3011
 4135W        W19752  11.394   3.871   3.949  0.0110 -0.1841 -0.5263
 4136W        W19753   8.059   1.092  16.309 -0.1925 -0.1013 -0.2493
 4137W        W19754   6.150   7.303  12.731 -0.0454  0.0581 -0.2776
 4138W        W19755  13.709  15.589  12.666  0.2944  0.4344 -0.1411
 4139W        W19756   3.439   5.061  14.260  0.0400 -0.0157 -0.0032
 4140W        W19757   5.126  17.594   3.964 -0.0965  0.0116  0.0645
 4141W        W19758  16.585  13.290  15.727 -0.2773  0.1517 -0.0008
 4142W        W19759  14.858   7.424  12.063 -0.0052  0.3877  0.0946
 4143W        W19760  13.796   8.794   2.060 -0.1672 -0.0671 -0.2012
 4144W        W19761   3.702  17.831  11.082  0.2875 -0.2540  0.2785
 4145W        W19762  13.817   0.754  12.567 -0.2272  0.3531  0.1023
 4146W        W19763  12.757  15.886   2.807 -0.0638 -0.0052  0.1671
 4147W        W19764   2.950   9.289  14.086 -0.2510 -0.1008  0.0130
 4148W        W19765   0.169  10.797  13.741  0.0181  0.2443 -0.1704
 4149W        W19766  16.833   7.022   4.910  0.4661 -0.0553  0.2871
 4150W        W19767   5.895   7.141  15.951 -0.0068 -0.1695 -0.0296
 4151W        W19768  10.197   0.898  11.694  0.1397  0.1047  0.0354
 4152W        W19769   7.962  14.703  14.334 -0.0565  0.2408  0.0970
 4153W        W19770   3.872   0.809  13.941 -0.3452 -0.0514  0.0329
 4154W        W19771   7.874  12.918  15.239  0.1603 -0.0556 -0.0153
 4155W        W19772   6.346   4.628  14.483 -0.2501 -0.0071 -0.3121
 4156W        W19773   5.592  12.250  11.132 -0.1347  0.1378 -0.0370
 4157W        W19774   9.807  17.458   1.692  0.2106  0.1791 -0.2363
 4158W        W19775  15.812   8.227   0.086 -0.0933  0.1547  0.1255
 4159W        W19776   7.076   9.315  14.869 -0.2001 -0.0700 -0.1203
 4160W        W19777   5.002  16.376   3.324 -0.2373  0.0750 -0.2080
 4161W        W19778  14.163   3.282   0.737  0.0483 -0.2774  0.0078
 4162W        W19779  13.750  17.190   1.991 -0.0660  0.2293  0.0738
 4163W        W19780  17.716   3.650  15.914  0.0361 -0.1011 -0.0868
 4164W        W19781   2.234   3.577  13.414  0.2643 -0.0457  0.1968
 4165W        W19782  12.010   0.043  16.801 -0.0479  0.2536  0.1983
 4166W        W19783  14.301   7.671   1.836  0.2156  0.0428 -0.1712
 4167W        W19784   2.604   7.608  15.301  0.2011 -0.2899  0.1018
 4168W        W19785  14.811   4.702  13.817  0.1524 -0.4092  0.0162
 4169W        W19786   6.221  12.817  16.105  0.2712  0.1511  0.2634
 4170W        W19787   6.072  15.539  11.514  0.0719 -0.0085 -0.0249
 4171W        W19788  12.399  17.051   0.301  0.1776 -0.0893  0.1187
 4172W        W19789  14.124  11.825  14.718  0.0854 -0.0556  0.1759
 4173W        W19790   5.112   3.213  14.242  0.0848 -0.2843  0.2099
 4174W        W19791  14.698   0.027   2.353  0.0766  0.2038  0.2861
 4175W        W19792   6.856   1.100  16.228 -0.2306 -0.0993  0.0152
 4176W        W19793  16.506   7.191  16.451  0.1087  0.3634 -0.0651
 4177W        W19794   2.785   4.999   3.439 -0.1968  0.1321 -0.2028
 4178W        W19795  14.196  17.520   5.167  0.1782  0.2604 -0.1540
 4179W        W19796   3.743   8.558   4.896 -0.2692 -0.2334  0.5069
 4180W        W19797   0.848   7.843   1.387  0.0722  0.1119 -0.3617
 4181W        W19798   1.552   8.847   3.386  0.3185 -0.1147 -0.2097
 4182W        W19799  15.381  14.032  16.437 -0.1030  0.5296 -0.0892
 4183W        W19800   7.872   3.007   5.281  0.1711 -0.0057 -0.0079
 4184W        W19801   8.498   4.381   1.423 -0.2980  0.0705  0.1144
 4185W        W19802   2.005   3.510   0.086 -0.0640  0.2471 -0.2499
 4186W        W19803   6.457   3.587   6.099 -0.1757  0.0396  0.2572
 4187W        W19804   7.310  15.181  12.884  0.0793 -0.2293 -0.0188
 4188W        W19805   3.864   8.662   4.379  0.2352  0.5219  0.3381
 4189W        W19806  10.427   4.506   4.971 -0.1613  0.0055 -0.3359
 4190W        W19807   9.557  15.076  10.736  0.4222  0.2418 -0.0348
 4191W        W19808   8.957  17.762  13.117 -0.0938 -0.1219 -0.1340
 4192W        W19809   5.592  13.837   3.955  0.2977 -0.0454 -0.3467
 4193W        W19810  10.685  15.990  16.336  0.1818 -0.0299 -0.4220
 4194W        W19811   0.468   6.678   1.989  0.1101 -0.2810  0.1207
 4195W        W19812  12.611   7.537  16.274  0.1476 -0.1032 -0.0435
 4196W        W19813   8.700   8.077  15.991 -0.3569  0.0836 -0.0671
 4197W        W19814  16.103  16.809  15.078  0.2334  0.4087 -0.1869
 4198W        W19815  11.475   6.291  12.984  0.0456  0.0599  0.2818
 4199W        W19816   7.424  13.948  14.576  0.3591 -0.2378  0.2185
 4200W        W19817  16.285   6.166  13.975  0.2354 -0.0041  0.0332
 4201W        W19818  13.440  10.027   3.089 -0.1251 -0.0312 -0.0913
 4202W        W19819  14.220   0.112   5.826  0.0271 -0.1135  0.0596
 4203W        W19820   2.265   4.308   5.094  0.2998  0.1563 -0.0246
 4204W        W19821   6.407  16.796   5.134  0.2823 -0.0446 -0.0056
 4205W        W19822   4.471  13.608   2.514  0.1224 -0.0977 -0.1622
 4206W        W19823  12.267  13.300  12.539  0.1581  0.1260 -0.0886
 4207W        W19824   2.447  12.952   0.403 -0.1381  0.0046  0.1039
 4208W        W19825   3.086  15.614   4.751 -0.0629 -0.1038  0.0891
 4209W        W19826  12.862  16.945   0.561  0.1920 -0.3465  0.0878
 4210W        W19827  12.395  17.423   3.197  0.2439 -0.1086 -0.0133
 4211W        W19828  14.284  13.932   5.742  0.1463 -0.0602  0.1365
 4212W        W19829   5.017   3.077   3.731 -0.2490 -0.0671  0.1595
 4213W        W19830   6.791   7.767   2.031  0.1297 -0.0190 -0.2669
 4214W        W19831   8.204   5.800  14.927  0.0368 -0.2483  0.3814
 4215W        W19832   5.064   2.218  12.727  0.0118 -0.0286  0.2197
 4216W        W19833  15.955   5.293   2.376  0.2737 -0.2154 -0.1471
 4217W        W19834  16.201   4.246  14.496  0.0499  0.1392  0.2072
 4218W        W19835   2.359  16.243  11.624 -0.2208  0.0142  0.2252
 4219W        W19836   4.197   6.815  14.826 -0.5643 -0.3811 -0.0422
 4220W        W19837   4.087  15.255   1.174  0.0757  0.0242  0.0829
 4221W        W19838   4.971  14.750  12.366 -0.1370  0.1518  0.1173
 4222W        W19839  14.824   9.955  16.377 -0.0113 -0.2556  0.2798
 4223W        W19840   5.397   7.622  15.826 -0.2902  0.1439  0.1966
 4224W        W19841  14.812   6.496   5.523 -0.0964  0.1635 -0.0669
 4225W        W19842   3.548   2.954  14.018  0.1902  0.0747 -0.1685
 4226W        W19843  16.686  10.020  12.551  0.0118 -0.0162 -0.0096
 4227W        W19844   2.127  17.451  12.888  0.4086 -0.0684  0.0421
 4228W        W19845  13.431  16.933  13.710  0.1311 -0.2907  0.1704
 4229W        W19846   7.758   9.059   4.857 -0.0292 -0.0944  0.0025
 4230W        W19847   9.069   7.178  11.051 -0.1691 -0.1516 -0.0125
 4231W        W19848   4.837  16.301  15.783  0.0967  0.0294 -0.0537
 4232W        W19849   8.347  16.207   0.713 -0.4561  0.1580  0.2475
 4233W        W19850   8.985   4.951   2.934  0.0094  0.1465 -0.1822
 4234W        W19851   3.837   0.890  16.513 -0.1450 -0.5239  0.0693
 4235W        W19852  14.799   5.403  12.811 -0.2528 -0.0006 -0.1763
 4236W        W19853  13.661  14.341   4.882  0.1046  0.1006  0.2550
 4237W        W19854  17.010  11.709  12.482 -0.1934  0.1433 -0.0471
 4238W        W19855   2.158  14.631  13.297  0.0319 -0.3243 -0.0964
 4239W        W19856  16.050  12.239  14.084 -0.0287 -0.1769 -0.1510
 4240W        W19857   7.446   4.763  11.502 -0.1587 -0.1588  0.2751
 4241W        W19858  14.871   4.338  11.410  0.0175  0.0003  0.1698
 4242W        W19859  12.736  10.557   3.757  0.0695  0.0672 -0.0323
 4243W        W19860  11.480   9.733   2.253 -0.1782 -0.2010  0.1070
 4244W        W19861  10.699  12.450   2.677  0.0267  0.3736 -0.2334
 4245W        W19862   9.059   0.248   5.379  0.0294 -0.0783  0.0514
 4246W        W19863  16.977  16.897   3.503  0.0788 -0.0196 -0.1112
 4247W        W19864  16.433   9.551  11.476 -0.2198  0.0347 -0.0783
 4248W        W19865   7.333   3.617  14.613 -0.1632  0.2380  0.0183
 4249W        W19866   0.712   0.784   1.300  0.1454 -0.0766  0.0936
 4250W        W19867  17.937   5.334   5.135 -0.1249 -0.1254  0.0121
 4251W        W19868   6.104  11.965   2.167 -0.2424  0.3034 -0.1943
 4252W        W19869  13.643   1.687   1.652  0.1419  0.0599  0.2345
 4253W        W19870  15.561   3.202   0.919 -0.1197  0.2771 -0.0549
 4254W        W19871   6.613  13.790   2.423 -0.0656 -0.3639 -0.0445
 4255W        W19872   2.272   5.184   0.410 -0.1112  0.3514 -0.1695
 4256W        W19873  12.473   0.413   5.970  0.0783 -0.2600 -0.2994
 4257W        W19874   3.891   2.480  12.165 -0.1538 -0.0063  0.1395
 4258W        W19875   4.833  14.892   1.641 -0.1374  0.1007 -0.0716
 4259W        W19876   9.093   9.285   4.852  0.1191 -0.0051  0.0559
 4260W        W19877   7.737  12.970  12.702 -0.0739  0.2665  0.2003
 4261W        W19878   5.477  16.213   3.063  0.1468 -0.1174  0.0868
 4262W        W19879  16.138  10.325  11.972  0.0996 -0.0054  0.2704
 4263W        W19880  11.252   5.564  14.897  0.1505 -0.1312  0.0050
 4264W        W19881   2.384   1.410  14.992 -0.1406 -0.0387  0.0184
 4265W        W19882   7.924   1.755   4.225 -0.0249  0.0296  0.0583
 4266W        W19883   2.936  11.866  15.851  0.3083  0.1240  0.1912
 4267W        W19884   0.603   3.281   5.326  0.1170 -0.0288  0.0168
 4268W        W19885   1.680   6.360  16.705  0.5043  0.2569 -0.0212
 4269W        W19886  12.145   8.305   2.354  0.1122 -0.3512  0.0648
 4270W        W19887  10.798  11.227  14.655 -0.1313 -0.0660  0.0418
 4271W        W19888   3.842   3.487  10.849  0.0482  0.1584 -0.2709
 4272W        W19889   1.619  14.961   0.259  0.0771  0.0096 -0.1433
 4273W        W19890   6.276  13.461  14.998  0.0886  0.0957 -0.3393
 4274W        W19891   7.321  12.554  14.025  0.0728  0.2483  0.0360
 4275W        W19892   9.790  13.062   1.944 -0.1983 -0.1014 -0.0090
 4276W        W19893  11.965   9.352  11.773 -0.2066  0.3962 -0.3158
 4277W        W19894  16.181  15.126   5.371 -0.2700 -0.0350 -0.1561
 4278W        W19895   3.751  15.212   4.057 -0.3494  0.1306  0.0134
 4279W        W19896   7.784   0.776   1.927 -0.0240  0.3185  0.2040
 4280W        W19897   6.873   8.823   4.084  0.0583 -0.2075  0.1247
 4281W        W19898   0.553   1.299   4.558 -0.1281  0.0069  0.2429
 4282W        W19899   7.296  11.895  16.080  0.0339 -0.1942  0.0618
 4283W        W19900   6.561   5.631   5.214  0.4265 -0.0330 -0.2333
 4284W        W19901   8.842   9.430   3.559 -0.1902  0.1673 -0.0450
 4285W        W19902   0.061   2.942  13.946 -0.0302 -0.1668  0.1291
 4286W        W19903   0.454   2.209   3.884 -0.1369  0.1199 -0.0194
 4287W        W19904  10.533   5.814   4.782  0.1195 -0.0422  0.0351
 4288W        W19905  12.578   1.076   2.456 -0.3030  0.0042  0.1847
 4289W        W19906   7.575   5.417   1.542  0.1524  0.1838 -0.0935
 4290W        W19907  15.418   5.753  14.795 -0.1513  0.0788 -0.2252
 4291W        W19908  16.883  14.765   2.878 -0.0610 -0.0972  0.0585
 4292W        W19909  16.436  12.404   5.457  0.0356  0.2025  0.0804
 4293W        W19910   0.505  15.838   3.876 -0.3214  0.2670  0.3409
 4294W        W19911   7.053  11.273   2.945 -0.2206 -0.0742  0.1503
 4295W        W19912   8.278  12.357  14.443  0.0223  0.0891 -0.1303
 4296W        W19913   5.435  13.179   3.522 -0.0216 -0.0138 -0.2642
 4297W        W19914  11.647   4.349   2.385  0.4700 -0.0452 -0.0381
 4298W        W19915  17.825   9.964  11.862 -0.0282 -0.1029  0.0288
 4299W        W19916  15.085  11.259  16.559 -0.2363 -0.1726  0.0293
 4300W        W19917   2.687   6.384  13.879 -0.3919 -0.1550 -0.0187
 4301W        W19918   8.444   5.282  14.455 -0.3286 -0.0782 -0.0425
 4302W        W19919   9.385   5.805  11.765  0.0851 -0.1648 -0.0656
 4303W        W19920  12.194  12.240   2.393  0.1580 -0.1482 -0.4552
 4304W        W19921   7.346   7.206   1.739 -0.0025 -0.1767  0.0320
 4305W        W19922  15.486  13.786   3.277 -0.2156  0.1907  0.5655
 4306W        W19923   1.916   0.247  11.663  0.1094  0.0658  0.0299
 4307W        W19924   5.365   2.489   3.322 -0.1374 -0.0687 -0.3570
 4308W        W19925   6.173   8.981   5.716  0.0209  0.0979 -0.0546
 4309W        W19926   7.617  16.987  14.322 -0.2209  0.3428 -0.3290
 4310W        W19927   7.196  17.781  15.804  0.1745 -0.1553  0.1740
 4311W        W19928  12.365   5.772   0.792 -0.2052  0.1348 -0.0925
 4312W        W19929   0.964   5.871   2.473 -0.0119 -0.1219  0.1859
 4313W        W19930   0.733   6.892   0.988 -0.1545  0.3776  0.2169
 4314W        W19931   6.111   9.224   3.414  0.1991 -0.0519 -0.1153
 4315W        W19932  15.616   2.825  12.566 -0.0274 -0.0197 -0.1873
 4316W        W19933   3.212  17.447   3.298 -0.2978  0.0804  0.1492
 4317W        W19934   9.206   7.467  13.674  0.1010 -0.1958  0.0454
 4318W        W19935   0.959   4.036  16.101 -0.0426  0.0377  0.1635
 4319W        W19936   5.049  15.098   3.571  0.0621 -0.1793 -0.0250
 4320W        W19937  10.705   0.530  15.625  0.0903  0.0037  0.1282
 4321W        W19938  13.354   7.420  12.607 -0.1575  0.0614 -0.1001
 4322W        W19939   3.256   0.496  16.739  0.0355 -0.2465 -0.1719
 4323W        W19940   8.101   4.039  14.174  0.2938 -0.2277 -0.3014
 4324W        W19941  12.073   7.526   3.766 -0.2555  0.0951  0.0982
 4325W        W19942   4.412  17.520   1.457  0.0280  0.0910 -0.0287
 4326W        W19943  17.138   8.973   5.127 -0.1856  0.1538  0.0002
 4327W        W19944  16.949  11.486   1.902 -0.0698  0.0966  0.1637
 4328W        W19945  11.742  12.695  13.652 -0.1919  0.1656  0.1008
 4329W        W19946   2.976  17.267  14.979  0.1349 -0.3343  0.0151
 4330W        W19947  16.667  13.668  12.234 -0.2897 -0.0663  0.2005
 4331W        W19948   2.292   0.033  11.262 -0.0231 -0.1083  0.0867
 4332W        W19949  16.807  14.055  16.010  0.2493 -0.0388  0.1912
 4333W        W19950   7.113   6.660  11.371 -0.3095  0.0274 -0.2676
 4334W        W19951  10.209   6.117  11.879  0.1243 -0.0781 -0.0692
 4335W        W19952   1.510  11.675   1.723  0.0023 -0.2890 -0.0081
 4336W        W19953   8.347  11.034   5.713  0.0524 -0.1403 -0.2153
 4337W        W19954  14.649   9.249  15.450  0.0279 -0.1106  0.0632
 4338W        W19955   8.349  11.065  14.596  0.0063 -0.0352 -0.0446
 4339W        W19956  13.410   3.039  13.109  0.1965  0.1258  0.1035
 4340W        W19957  13.945   6.525   0.360  0.0169 -0.0498 -0.1077
 4341W        W19958  10.051  12.787   4.694 -0.0667 -0.0959 -0.2044
 4342W        W19959  14.301   5.266   0.447 -0.3141 -0.1192  0.0648
 4343W        W19960   6.355  10.612   3.330  0.3248 -0.1031 -0.2189
 4344W        W19961  13.156   0.299   3.607  0.1330  0.0485 -0.0496
 4345W        W19962   8.822   1.470   0.502  0.0346  0.1955  0.2447
 4346W        W19963   9.917  15.599  14.682 -0.0783  0.0959  0.0633
 4347W        W19964  10.310   3.601   4.764 -0.1064 -0.0167 -0.4331
 4348W        W19965  10.138  15.375  15.083  0.1076  0.1277  0.2728
 4349W        W19966   2.339   6.966   1.449 -0.1785  0.3730  0.0142
 4350W        W19967   1.573   1.251   4.217 -0.2459 -0.0320 -0.2426
 4351W        W19968   2.163   3.011   0.010 -0.0307  0.0710  0.0614
 4352W        W19969  14.623   8.064   2.503  0.1342  0.2090  0.1608
 4353W        W19970  15.108   2.088  14.535 -0.1973 -0.1104 -0.1366
 4354W        W19971  11.761  15.410  13.839  0.3071  0.1671 -0.0916
 4355W        W19972  16.896  10.695  12.548  0.2182  0.2896  0.2253
 4356W        W19973  16.168  14.534   4.527  0.2346  0.0881  0.0068
 4357W        W19974  13.966   0.164  11.865  0.2487 -0.0019 -0.0419
 4358W        W19975   6.466   2.733  11.531 -0.0757 -0.0145  0.2020
 4359W        W19976   9.380  14.988   4.891 -0.1638  0.0523  0.0268
 4360W        W19977   0.599   0.134  13.134 -0.1018 -0.1959  0.1314
 4361W        W19978   9.743  17.649   0.760 -0.1768 -0.1849  0.0928
 4362W        W19979   2.362   9.230  15.538 -0.0127  0.1016 -0.3650
 4363W        W19980   1.021   1.430   5.414  0.0951 -0.0484  0.1361
 4364W        W19981  15.889   4.458   1.906  0.2474  0.0239 -0.0370
 4365W        W19982  13.911   1.164  14.298  0.0325 -0.4728 -0.1024
 4366W        W19983   5.736   8.931   1.721 -0.1676 -0.1317 -0.2012
 4367W        W19984  14.241  12.226   6.153 -0.1988  0.0266  0.0293
 4368W        W19985  14.827  10.503  11.873 -0.0008 -0.2270  0.3611
 4369W        W19986   9.351   1.268   0.281 -0.0156  0.1213  0.0354
 4370W        W19987   9.817   3.608   4.652  0.0815  0.1176  0.2131
 4371W        W19988   4.192  14.547  15.598  0.1945  0.0614  0.1661
 4372W        W19989  12.471  13.812  12.031  0.1803  0.2648 -0.1501
 4373W        W19990   3.429  17.623  15.210  0.0994  0.0144  0.2178
 4374W        W19991   8.270  14.834  13.956  0.0737  0.2427  0.1166
 4375W        W19992   8.258   0.108  10.383  0.0555  0.1359 -0.0728
 4376W        W19993  15.019  15.807  11.873 -0.1675  0.0494  0.1954
 4377W        W19994  13.482  13.707  14.023 -0.4815 -0.0572 -0.0759
 4378W        W19995   1.956  11.453   3.903  0.1521 -0.1677 -0.0358
 4379W        W19996   7.524  13.303   1.657 -0.2104 -0.0568 -0.4395
 4380W        W19997   2.181  10.322  16.528 -0.2387 -0.1627  0.0317
 4381W        W19998   2.546  12.412   6.001  0.2304 -0.1584 -0.0609
 4382W        W19999   3.685  14.446   2.944  0.5286 -0.1512 -0.0216
 4383W        W20000   2.813  14.881  14.217 -0.0245 -0.0169 -0.1723
 4384W        W20001  15.805   7.410  15.848  0.2936 -0.2529  0.0185
 4385W        W20002  13.601   2.010   0.123 -0.0277 -0.1098  0.2608
 4386W        W20003   6.017   1.440   2.459 -0.0313  0.0810  0.1123
 4387W        W20004   3.397  17.399  14.679  0.1669 -0.0195 -0.1392
 4388W        W20005   5.408  12.406   0.830  0.0161  0.0598  0.0752
 4389W        W20006  11.677   2.365  12.552  0.3740 -0.1100 -0.2761
 4390W        W20007  15.984  16.069   5.685 -0.1905 -0.1647  0.0775
 4391W        W20008   6.167  13.662   2.280  0.0299 -0.1644  0.2102
 4392W        W20009   6.641   3.767  16.780  0.4647 -0.1431 -0.3197
 4393W        W20010  16.226   4.392  16.133  0.0299  0.0708 -0.0872
 4394W        W20011   3.346   3.842   0.799  0.0919 -0.0896  0.3086
 4395W        W20012   2.554   3.571  13.879 -0.0642 -0.1669  0.3665
 4396W        W20013   9.678  18.033  16.432 -0.0578  0.2659 -0.2670
 4397W        W20014  16.020   8.832   2.728  0.1488  0.0606 -0.1869
 4398W        W20015  17.899   9.916   3.537  0.0203  0.0409 -0.2402
 4399W        W20016   8.303   0.644   1.049 -0.2214 -0.2674 -0.2126
 4400W        W20017   2.993   9.748  14.250  0.1832  0.0839  0.0181
 4401W        W20018   5.452  16.903   0.256 -0.0406  0.1922 -0.0252
 4402W        W20019  17.415  13.356   5.809  0.2303 -0.2591 -0.2058
 4403W        W20020  17.866  17.322  12.236  0.2352  0.4077 -0.1227
 4404W        W20021  16.553   3.635   3.045  0.0038 -0.0433 -0.0134
 4405W        W20022   6.888   7.177  12.862 -0.0203 -0.2335 -0.0442
 4406W        W20023  11.126   0.530   0.410  0.1482  0.0719 -0.0466
 4407W        W20024  12.299  11.400  12.389 -0.0776 -0.3112  0.2186
 4408W        W20025   6.620  15.696  14.166 -0.3409  0.1225 -0.0446
 4409W        W20026   7.680   3.334  11.908 -0.3139  0.0648 -0.0069
 4410W        W20027  10.867  11.045   5.162  0.3731 -0.0969 -0.0257
 4411W        W20028   7.046  16.315   3.503 -0.1243 -0.0377 -0.0696
 4412W        W20029   9.878  15.730  16.165 -0.3394  0.1755  0.1778
 4413W        W20030  13.423   5.897   6.212  0.1358 -0.2193  0.0418
 4414W        W20031  16.784   8.747  13.835  0.1669 -0.4009 -0.1228
 4415W        W20032  17.356  17.547  13.084  0.2756  0.0226 -0.1482
 4416W        W20033   6.769   6.475   4.812 -0.1357 -0.2309 -0.1412
 4417W        W20034  14.480   6.439   1.320  0.3599 -0.1298  0.1327
 4418W        W20035  13.436   1.968  11.901 -0.0064  0.3572 -0.0214
 4419W        W20036   0.261  13.220   1.592 -0.0956 -0.3782  0.1025
 4420W        W20037  12.762   5.314  13.890 -0.1077  0.0980 -0.2306
 4421W        W20038   2.310  11.165  16.645  0.4300  0.1292  0.0474
 4422W        W20039   6.883   2.610  12.656  0.0198 -0.0307 -0.0055
 4423W        W20040  15.073  13.440   4.448  0.1417 -0.0817  0.2381
 4424W        W20041  10.346  10.605   4.977  0.0206 -0.4139  0.2365
 4425W        W20042  12.177   8.713   5.342 -0.0387  0.2759 -0.0779
 4426W        W20043   9.959   4.222  14.904  0.0935 -0.2641 -0.1306
 4427W        W20044   6.363   0.458  12.169  0.2137  0.0864 -0.1657
 4428W        W20045   9.894   6.513  12.839 -0.1216 -0.0036  0.5351
 4429W        W20046   2.904  16.793  12.304 -0.3688  0.3050  0.0736
 4430W        W20047   5.711   7.158  14.525  0.1016 -0.0951  0.1121
 4431W        W20048   3.039  11.649   5.148  0.0042 -0.0108  0.0192
 4432W        W20049   8.510  13.046  16.536  0.1852 -0.1686  0.0613
 4433W        W20050  17.372  14.282  12.113  0.0827  0.0508  0.0393
 4434W        W20051  15.602  17.279  16.551  0.0166  0.0436 -0.0084
 4435W        W20052  15.678  10.053   5.133 -0.1664  0.2806 -0.0832
 4436W        W20053  15.343   3.532   1.506 -0.1189 -0.1785 -0.2035
 4437W        W20054  10.534  11.130  14.238 -0.0495  0.1827  0.0070
 4438W        W20055  14.368   5.192   3.557  0.1828  0.3476  0.0352
 4439W        W20056   2.546   0.048   4.846  0.2694  0.1082  0.1737
 4440W        W20057  14.084  11.652   0.977  0.3206  0.1800  0.0160
 4441W        W20058   5.762  11.404  11.759  0.0511 -0.2108 -0.0362
 4442W        W20059   3.489  12.402   2.689 -0.0655 -0.3411 -0.0241
 4443W        W20060   5.388   6.996  16.127 -0.4061 -0.1678 -0.0531
 4444W        W20061  17.230   6.218   4.017  0.1540  0.0423 -0.3614
 4445W        W20062   6.547   6.626   3.497 -0.1718  0.1128  0.2283
 4446W        W20063  11.813  12.372   3.345 -0.1937  0.0566  0.2215
 4447W        W20064  13.652   3.696   3.390  0.1176  0.1514 -0.0014
 4448W        W20065  17.594   0.218   5.779  0.2309 -0.0957 -0.0129
 4449W        W20066  12.479   4.560   5.394  0.1555 -0.0085 -0.0942
 4450W        W20067  15.553   0.799   6.402  0.2935 -0.3226 -0.0290
 4451W        W20068   2.806   6.360   0.752  0.1148 -0.0902 -0.0322
 4452W        W20069  16.022   9.651   1.949 -0.0173 -0.0276 -0.1947
 4453W        W20070   3.004  13.398   4.475 -0.0888 -0.1788  0.2549
 4454W        W20071   6.355   5.713  15.081 -0.0953  0.1227  0.1628
 4455W        W20072   1.381   8.724   5.854  0.1133  0.1526  0.2735
 4456W        W20073   7.612  13.217  15.724  0.0090  0.2588  0.1652
 4457W        W20074   2.455   3.727  14.784 -0.0255 -0.2353 -0.0511
 4458W        W20075   1.352   5.645   2.226 -0.1463 -0.2001 -0.1688
 4459W        W20076  13.710  16.980  15.311 -0.0225 -0.0411 -0.2035
 4460W        W20077   1.938  12.315   2.290  0.1306 -0.1129  0.0445
 4461W        W20078   6.989   0.233   2.654 -0.0536 -0.3945 -0.0319
 4462W        W20079   5.633   6.560  11.412  0.0129  0.1921  0.4906
 4463W        W20080   7.139   5.545  16.581  0.4165 -0.3813 -0.3012
 4464W        W20081  13.641   0.439   5.851  0.3285 -0.1216 -0.2726
 4465W        W20082   7.937  16.736   1.200  0.1057  0.1039  0.2552
 4466W        W20083   1.880  16.288   0.307 -0.2537  0.2133 -0.1051
 4467W        W20084   3.789   7.726  14.208 -0.0134 -0.3173 -0.1792
 4468W        W20085  15.985  12.202  11.396 -0.0369 -0.4128 -0.0080
 4469W        W20086   1.773   3.645  12.952 -0.1233  0.3048 -0.1178
 4470W        W20087   0.202  14.058   3.714 -0.0856 -0.2866  0.0557
 4471W        W20088   0.780  15.939   5.775  0.1810 -0.3550  0.2303
 4472W        W20089  17.488  12.409   4.707  0.1755 -0.0328 -0.0248
 4473W        W20090  17.682   8.701   0.783 -0.0932 -0.0589  0.0504
 4474W        W20091   5.748   9.446  12.636  0.0109  0.1440 -0.0521
 4475W        W20092   6.276  10.584  12.253  0.0843  0.1398 -0.1170
 4476W        W20093   1.065   1.064  14.055 -0.0036  0.0252  0.0295
 4477W        W20094   0.379   0.756   3.919  0.2607 -0.0324 -0.1675
 4478W        W20095   0.888  12.243  15.336  0.0143 -0.0582 -0.3548
 4479W        W20096   4.784  15.354  15.977  0.0855 -0.0426  0.1358
 4480W        W20097  10.488   7.346  12.669 -0.0125  0.1648  0.3521
 4481W        W20098  16.977   2.710  11.258 -0.1514  0.0316 -0.3622
 4482W        W20099   3.961  16.824  12.177  0.0651 -0.2902 -0.0647
 4483W        W20100  17.251  15.576   2.449  0.2214  0.0677  0.1059
 4484W        W20101  13.736  13.739   2.815  0.0683 -0.0404  0.1509
 4485W        W20102   9.118   7.983  12.311  0.2286 -0.0568 -0.1922
 4486W        W20103  11.027   0.853  13.993  0.0682  0.1233 -0.0318
 4487W        W20104   0.782  17.885   2.658 -0.0561  0.1691  0.1863
 4488W        W20105  17.653   2.945  12.386  0.3381  0.1379 -0.0310
 4489W        W20106  15.069  12.226   6.051  0.0666  0.0061  0.0295
 4490W        W20107  15.885   0.516   0.880  0.2806 -0.2905 -0.0059
 4491W        W20108   8.692   2.166  11.420 -0.2767  0.2400  0.2368
 4492W        W20109   2.944   6.120   1.255 -0.1263  0.0136  0.1722
 4493W        W20110  17.173   0.358   5.021 -0.1183  0.2549 -0.0717
 4494W        W20111   4.348   3.612   1.480  0.2737 -0.0243 -0.2224
 4495W        W20112  12.229   3.263  14.585  0.1888  0.1177  0.1545
 4496W        W20113   4.480   6.753  16.228 -0.3831  0.0893  0.3028
 4497W        W20114  12.490   2.908  11.383  0.0644  0.0989  0.0879
 4498W        W20115   5.095  14.832   3.090  0.3143 -0.1126  0.0269
 4499W        W20116   0.143  12.036   0.678  0.2709 -0.0890 -0.0477
 4500W        W20117  14.617   8.463   0.831  0.0570 -0.1589  0.1337
 4501W        W20118  13.270   7.212   1.218 -0.1106 -0.2712  0.2712
 4502W        W20119  10.697  12.387   0.611 -0.1100 -0.0473 -0.0543
 4503W        W20120   3.804  12.519  13.672  0.2663  0.1424  0.2843
 4504W        W20121   1.614  16.509  14.311  0.0898 -0.0066  0.1338
 4505W        W20122   6.342  14.214   1.693 -0.2348 -0.2401  0.1889
 4506W        W20123   9.901   9.203   2.563  0.4675 -0.1008 -0.0165
 4507W        W20124   3.728   9.887  13.377  0.1978  0.2305  0.0867
 4508W        W20125   3.445   8.910  15.225  0.0904 -0.1490 -0.0040
 4509W        W20126   4.570  12.631   0.358  0.0676  0.3472  0.0623
 4510W        W20127   4.166   7.820  14.716 -0.4519  0.2444  0.1177
 4511W        W20128   2.170   5.453   1.031  0.0551  0.0484  0.0599
 4512W        W20129   5.077  12.657   1.072  0.1969  0.0692 -0.0572
 4513W        W20130  13.476   5.217   0.643 -0.2604  0.2730  0.2094
 4514W        W20131  11.564   2.700  11.349 -0.1247  0.3765  0.4143
 4515W        W20132   3.125  14.572  11.868 -0.2848 -0.0626  0.0770
 4516W        W20133  17.223   8.884   3.286  0.0813 -0.0705  0.3235
 4517W        W20134  15.420  16.362   0.642  0.2793 -0.0326 -0.1797
 4518W        W20135   5.062  17.283  14.037  0.3790 -0.2517  0.0235
 4519W        W20136  11.814   8.227  14.344 -0.3817  0.0735 -0.1234
 4520W        W20137   9.362  12.115   1.130 -0.0370 -0.0594 -0.0006
 4521W        W20138  12.766  16.495  12.563  0.0825 -0.0063  0.0332
 4522W        W20139  12.118   6.083   4.514 -0.1035 -0.0069 -0.1070
 4523W        W20140   7.953  16.281  11.786 -0.1644 -0.0629 -0.0598
 4524W        W20141   3.769   2.153  14.589 -0.2887  0.0302 -0.0152
 4525W        W20142  11.576  14.865   1.329 -0.0790 -0.1545  0.0628
 4526W        W20143   2.698   8.781   2.470  0.0193  0.0840 -0.1017
 4527W        W20144  15.950   7.240  16.310  0.0928 -0.4501  0.1080
 4528W        W20145   5.978   1.157   5.183  0.2566 -0.1568 -0.1108
 4529W        W20146  12.419   6.788  14.161 -0.1368  0.0881  0.0747
 4530W        W20147   0.637  10.904  13.698 -0.2653  0.2463  0.0584
 4531W        W20148  12.374   6.202   2.119 -0.0396  0.2358  0.2107
 4532W        W20149   1.907   1.643   4.191  0.0494  0.1093  0.2377
 4533W        W20150   5.604  14.823  16.447  0.1428 -0.2374 -0.1744
 4534W        W20151  10.333   3.456  12.186  0.0047  0.0569 -0.0455
 4535W        W20152   1.628   9.399   5.309 -0.2493  0.4020  0.0080
 4536W        W20153  14.522  14.525   1.885 -0.3033  0.3447  0.2578
 4537W        W20154   0.291   3.792  14.855  0.1710 -0.0431  0.1952
 4538W        W20155   5.208  16.727   5.678  0.2384 -0.0104 -0.3374
 4539W        W20156  16.963   0.576   0.840 -0.4066  0.1674  0.3287
 4540W        W20157   0.615  14.097   3.059 -0.1630 -0.3194 -0.0653
 4541W        W20158   5.112   3.205   5.674 -0.1617  0.1983 -0.2492
 4542W        W20159  10.823   6.225   6.320 -0.3776 -0.1041  0.0883
 4543W        W20160   8.907  16.964   0.107  0.2048  0.4853 -0.2621
 4544W        W20161   6.984  13.952   0.291 -0.2712  0.4197 -0.0073
 4545W        W20162   5.296   9.931  16.355 -0.1544 -0.0943  0.0828
 4546W        W20163  11.472   0.745  11.861 -0.2906 -0.2392  0.2561
 4547W        W20164  12.829   9.253  13.794  0.0662 -0.4080  0.2087
 4548W        W20165   0.909   6.560  13.732 -0.1538 -0.0623 -0.2827
 4549W        W20166   2.939   4.947  16.576  0.0553  0.0854  0.2424
 4550W        W20167   1.086  13.201  14.147 -0.1111 -0.2147 -0.1095
 4551W        W20168   0.578  10.888  11.408  0.0960 -0.0967 -0.3668
 4552W        W20169   5.596  13.311   3.936 -0.0973  0.2586 -0.2196
 4553W        W20170  13.137   0.828   4.057 -0.1403 -0.1227  0.0322
 4554W        W20171   9.045   3.621   0.216 -0.0904  0.0883  0.0930
 4555W        W20172  15.185  11.254   5.922  0.0586  0.2642  0.0985
 4556W        W20173  17.350   4.565   4.306 -0.1644 -0.1708 -0.1373
 4557W        W20174   1.790   5.648  15.914 -0.1989 -0.2816  0.0537
 4558W        W20175  17.311   7.825   4.517 -0.0490  0.0037 -0.0375
 4559W        W20176   3.912   7.571  11.225 -0.1569  0.3167  0.0346
 4560W        W20177  10.608  16.500  13.674  0.2365 -0.4318 -0.3315
 4561W        W20178  16.465   0.437  15.436 -0.2835 -0.1474  0.0234
 4562W        W20179  11.430   1.618  12.199 -0.0011  0.0309  0.0549
 4563W        W20180   9.758  12.772  11.372 -0.1834 -0.0108  0.1029
 4564W        W20181   0.262   4.425   4.658 -0.0885  0.0273 -0.0522
 4565W        W20182   9.174   8.099   0.004 -0.2086 -0.2203  0.0332
 4566W        W20183  15.743   7.164  15.035 -0.3008 -0.0590 -0.1899
 4567W        W20184  12.942  13.276   0.078 -0.0948 -0.2082  0.1291
 4568W        W20185  13.997   1.805   6.089  0.1023 -0.0623 -0.1257
 4569W        W20186   1.482   0.542   6.437  0.1977 -0.2232 -0.0450
 4570W        W20187  17.845   2.133   1.027  0.1122  0.0902  0.0011
 4571W        W20188  13.502   9.638  11.723  0.0199  0.3138 -0.0615
 4572W        W20189  14.427  11.979  16.527  0.0530 -0.0526 -0.1779
 4573W        W20190  14.229   1.565   4.495 -0.0394 -0.2861  0.0001
 4574W        W20191  17.626  13.880  12.663  0.0385  0.1103 -0.0934
 4575W        W20192  11.045   2.143   3.551 -0.2000 -0.2607 -0.2111
 4576W        W20193  14.640   9.890   0.322  0.1706 -0.0751  0.0571
 4577W        W20194   9.314  16.277   2.795  0.0801 -0.1237 -0.3323
 4578W        W20195   8.433  14.426  11.048  0.0187 -0.1874  0.0819
 4579W        W20196   0.730   5.496  14.688  0.0748 -0.0874  0.0836
 4580W        W20197  12.685  16.836   5.580  0.0815 -0.0994  0.0493
 4581W        W20198   7.912   9.620   3.362  0.1621  0.3340  0.2493
 4582W        W20199  13.028   1.712  15.168  0.2468 -0.0423 -0.0439
 4583W        W20200   8.763  12.487  14.465 -0.2255 -0.0651 -0.1670
 4584W        W20201   5.511   6.694   5.498  0.0549  0.1305 -0.3098
 4585W        W20202   7.555  14.860   1.957  0.1769  0.3467 -0.1158
 4586W        W20203  16.697   7.146  13.523  0.1139  0.1114 -0.0910
 4587W        W20204   9.288  15.257  10.313 -0.4335 -0.0973  0.2265
 4588W        W20205   0.975   7.883   0.619 -0.0796 -0.0447  0.0925
 4589W        W20206   4.068  16.215   3.238  0.2086  0.2373 -0.0557
 4590W        W20207   3.602   8.147  12.374  0.3298  0.3093  0.2164
 4591W        W20208   9.252  15.493   0.896  0.0230  0.3537 -0.2119
 4592W        W20209   6.518   6.650   0.294  0.0504  0.3704 -0.0685
 4593W        W20210   3.831  12.518  15.954  0.4303 -0.1358 -0.1423
 4594W        W20211  13.751  12.146  10.913 -0.2230 -0.1999 -0.1475
 4595W        W20212  12.534  14.821  12.417  0.1680 -0.2016  0.4336
 4596W        W20213   2.515   2.918  16.323  0.3606  0.1255 -0.0971
 4597W        W20214   2.118   4.580   1.014  0.1648  0.0648 -0.1049
 4598W        W20215   8.345  14.349  13.707  0.1065  0.0351  0.0987
 4599W        W20216  15.336  10.281  12.004 -0.1156  0.1488 -0.2380
 4600W        W20217   4.850   6.777   3.612 -0.1396 -0.2433  0.2981
 4601W        W20218   7.734  14.724   2.859 -0.1798 -0.0257  0.1014
 4602W        W20219   7.884   3.732   2.873  0.1032 -0.2093  0.2146
 4603W        W20220   8.645   1.519  13.288  0.4083  0.3432 -0.1229
 4604W        W20221   9.519   7.379  11.056  0.0499 -0.3540 -0.0516
 4605W        W20222  17.364   2.456  11.536  0.1105  0.0988 -0.0123
 4606W        W20223   7.474   7.829   0.387 -0.0535  0.4389  0.0715
 4607W        W20224  14.096  12.076  11.840 -0.0727 -0.1066  0.0795
 4608W        W20225  16.465   2.277   3.250 -0.1827 -0.0317  0.0097
 4609W        W20226  11.405   8.157   5.095 -0.0569 -0.2408 -0.0145
 4610W        W20227   4.492  10.685  13.350  0.1636  0.0384  0.1682
 4611W        W20228  14.768   8.444  10.349  0.1346 -0.0273  0.1262
 4612W        W20229   5.881  17.155   0.446  0.1844  0.0681  0.0943
 4613W        W20230  14.554  11.652  14.599 -0.0602  0.1643 -0.5056
 4614W        W20231  14.423   8.923   1.126  0.5683  0.0312 -0.0539
 4615W        W20232   4.936  13.971   2.651  0.4530 -0.0963 -0.2336
 4616W        W20233   3.972   3.331   1.694 -0.2214 -0.0312 -0.2927
 4617W        W20234   3.217  11.471  15.891  0.0230  0.1399 -0.4959
 4618W        W20235   6.324  11.936  15.700 -0.1996  0.1476 -0.1716
 4619W        W20236   9.194  15.203   1.526  0.3202 -0.0433  0.0601
 4620W        W20237   9.140   1.303  14.152 -0.0922 -0.2092 -0.1722
 4621W        W20238  14.979  16.294  11.250  0.1759  0.0384  0.2081
 4622W        W20239   0.118   2.566   1.216 -0.1711 -0.1268  0.1698
 4623W        W20240  13.317   6.053   5.179  0.1553  0.3700 -0.0496
 4624W        W20241   0.876   4.170  12.170  0.0596  0.0408 -0.2528
 4625W        W20242   7.223   6.027  15.779 -0.2308 -0.0205  0.0224
 4626W        W20243  17.962   5.353  15.199  0.2082  0.3882  0.0184
 4627W        W20244  10.614   9.672   2.117 -0.3232 -0.2424  0.1420
 4628W        W20245  17.048  11.268  14.740 -0.0366  0.0523  0.2108
 4629W        W20246  15.555   4.100   3.479  0.2157  0.1849  0.2573
 4630W        W20247   6.796   4.322   0.753 -0.0132  0.2223 -0.1059
 4631W        W20248   4.578  14.853  15.803 -0.1007  0.2054 -0.0762
 4632W        W20249  12.574   2.807  14.522  0.2283 -0.0560  0.2897
 4633W        W20250   1.589   9.070  13.500  0.1590 -0.0000  0.1031
 4634W        W20251   7.721  11.890  14.227  0.2062  0.1153 -0.0253
 4635W        W20252  13.722  11.814  12.715 -0.0715  0.2685  0.2842
 4636W        W20253  14.156   0.349  16.498  0.0774 -0.1444 -0.1525
 4637W        W20254   3.439   9.851   5.367 -0.0785 -0.6095 -0.4498
 4638W        W20255   7.393  16.814   1.267  0.0887  0.0730  0.4527
 4639W        W20256   7.667   4.248   1.122  0.1437  0.0248 -0.2857
 4640W        W20257   4.366   9.407  11.402  0.1546  0.0853  0.2524
 4641W        W20258   2.599   4.279   0.191  0.4720  0.5176  0.0504
 4642W        W20259   7.905  15.523   2.259 -0.1255  0.0556  0.0525
 4643W        W20260  17.669   1.822   0.161 -0.0064 -0.2316 -0.1347
 4644W        W20261  15.172   7.362  13.040  0.1085  0.1431 -0.1155
 4645W        W20262  15.704  14.014  11.640  0.1092  0.1772 -0.0437
 4646W        W20263  13.418   5.748   1.733  0.0842 -0.0379  0.0957
 4647W        W20264   5.167  17.986  13.133  0.0178  0.0414 -0.0545
 4648W        W20265  17.074  13.113   2.963  0.4648  0.2150  0.0679
 4649W        W20266   1.395  11.469   3.776 -0.2121  0.2302  0.1517
 4650W        W20267   4.111   4.030   1.492  0.1897 -0.1101 -0.1702
 4651W        W20268   0.160   7.320  13.759  0.2160 -0.1225  0.0599
 4652W        W20269   3.918  15.953  10.961 -0.0632 -0.0518 -0.2962
 4653W        W20270  11.811   2.923  13.005  0.0040 -0.1418  0.1757
 4654W        W20271  15.915   1.724  14.688 -0.1248  0.2092 -0.0906
 4655W        W20272   5.214   7.025   0.671  0.0875  0.2923  0.1121
 4656W        W20273   5.952  11.278   4.413  0.1512  0.0376  0.0447
 4657W        W20274  11.484  10.571  16.543  0.1564 -0.3027  0.1135
 4658W        W20275   6.408  13.603  12.594 -0.1495  0.0570 -0.3302
 4659W        W20276   2.716   3.263  14.310  0.2741  0.2408 -0.1228
 4660W        W20277  11.607   4.661  12.544  0.2757 -0.0071  0.0138
 4661W        W20278  16.581  10.113   3.560 -0.2568  0.0575 -0.0999
 4662W        W20279  10.762   9.529   4.162 -0.0014  0.0577  0.3353
 4663W        W20280   1.694  13.043   4.082 -0.1068 -0.7850 -0.3541
 4664W        W20281  11.234  13.790   0.916 -0.1074  0.0212  0.2402
 4665W        W20282   4.492   3.226   3.872 -0.0094  0.0205 -0.1834
 4666W        W20283  14.721  13.539   3.047 -0.2386 -0.1823  0.0933
 4667W        W20284  17.750  14.242  16.280 -0.1763  0.1823  0.0652
 4668W        W20285   8.212  11.441   3.124  0.1227  0.1073  0.1455
 4669W        W20286  15.034  10.891   1.468  0.0314  0.2637  0.0218
 4670W        W20287   5.313  13.613   3.172  0.1504 -0.0827 -0.3566
 4671W        W20288   0.766   0.490   0.886 -0.0340  0.1003 -0.1436
 4672W        W20289  12.436  14.907   4.819  0.0730  0.1777 -0.2233
 4673W        W20290   4.685   5.667   4.340 -0.3012 -0.3104  0.0420
 4674W        W20291   0.594   1.817  16.650  0.3357 -0.1341 -0.0577
 4675W        W20292   8.870   9.641  12.120 -0.0135 -0.2459 -0.0382
 4676W        W20293  14.444   6.280  13.431  0.0076  0.1750 -0.0399
 4677W        W20294   8.807  14.815  15.343 -0.1802 -0.3643 -0.2797
 4678W        W20295   6.772   3.169  15.066  0.0360 -0.0835  0.0020
 4679W        W20296  15.773   1.936   3.776 -0.2387 -0.2213 -0.1390
 4680W        W20297  10.750  16.849  12.805  0.1297 -0.2083  0.1658
 4681W        W20298  11.246   2.869   1.491  0.1392  0.3018 -0.0699
 4682W        W20299   1.529  14.388   4.367 -0.0131 -0.0428  0.2035
 4683W        W20300   3.676  12.532   0.177  0.0009  0.0003  0.1218
 4684W        W20301   5.957  11.545   2.446 -0.0790 -0.3954  0.0451
 4685W        W20302  10.876  16.078  11.804  0.2487  0.0769 -0.0379
 4686W        W20303  14.600   8.980   2.548  0.0434  0.1105 -0.1289
 4687W        W20304  18.026  15.975   0.914  0.1098 -0.1502  0.1350
 4688W        W20305   1.769  13.590   5.074 -0.1611  0.4405 -0.0517
 4689W        W20306  16.622  16.033  12.896 -0.0710 -0.1606  0.1522
 4690W        W20307   5.695   1.054  16.176 -0.2477 -0.0864 -0.1932
 4691W        W20308  13.042   4.257  13.246 -0.5523  0.0536  0.1712
 4692W        W20309   2.401  13.026   1.320 -0.0833  0.0370 -0.1660
 4693W        W20310   9.230  15.104  11.146 -0.2028  0.1531 -0.1486
 4694W        W20311   8.496  12.675  15.895  0.0445  0.4434  0.0943
 4695W        W20312  16.971   0.370   3.854  0.0644  0.1079  0.3025
 4696W        W20313  13.747   0.673  13.068 -0.0446 -0.2882  0.1474
 4697W        W20314  12.759   7.975   1.095 -0.0338  0.1707 -0.0271
 4698W        W20315   1.319   3.426   2.557  0.0992 -0.0126  0.0221
 4699W        W20316  14.194   4.594   0.933  0.1420 -0.2130 -0.1826
 4700W        W20317   0.725   4.420   3.346 -0.1432  0.1086  0.0157
 4701W        W20318   1.314   8.680  12.687  0.0883 -0.1142  0.2065
 4702W        W20319   5.956   7.963   4.156  0.0082 -0.0230 -0.1883
 4703W        W20320  10.354   5.305   4.836 -0.1680  0.1878 -0.0852
 4704W        W20321   2.863  15.036   2.843 -0.1550 -0.1265 -0.0426
 4705W        W20322  11.802   1.905  15.558 -0.0447 -0.0695 -0.0651
 4706W        W20323   0.720   8.019   1.812  0.2017  0.0388 -0.2590
 4707W        W20324  12.972  14.565  12.258 -0.2065 -0.0833  0.0353
 4708W        W20325  13.950   1.143   4.637 -0.2244  0.0340 -0.2709
 4709W        W20326  14.239   1.708   4.032 -0.0280  0.1154  0.0708
 4710W        W20327   0.358  17.414   1.330  0.4548  0.0440 -0.0207
 4711W        W20328   3.366   4.567  14.447 -0.2119 -0.2014  0.2258
 4712W        W20329   1.256  12.433  15.719 -0.1639  0.1677 -0.2801
 4713W        W20330   6.261  16.624   4.623  0.1279 -0.1238  0.0319
 4714W        W20331  13.658   8.252   5.231  0.0386 -0.2144  0.0044
 4715W        W20332   4.074  11.541   4.231 -0.3075  0.0781 -0.2023
 4716W        W20333   1.739   6.704  16.322 -0.0840  0.0516 -0.0130
 4717W        W20334   5.943   0.415   2.639  0.1386  0.1617 -0.0210
 4718W        W20335   7.125  15.190  14.627  0.1308 -0.1351  0.0673
 4719W        W20336   0.307  12.809  15.070  0.4414 -0.1587  0.2382
 4720W        W20337  14.998   5.776  12.326  0.1326  0.1727  0.2778
 4721W        W20338  17.539   0.107   5.234  0.1975  0.1196  0.0584
 4722W        W20339  10.483  11.322   0.894  0.2204  0.0945  0.2256
 4723W        W20340   2.369  16.008   1.021  0.1265 -0.0857 -0.1362
 4724W        W20341   4.131   1.287   0.010  0.2398 -0.2082 -0.0833
 4725W        W20342   6.914  13.884   1.116  0.2461  0.2808 -0.0627
 4726W        W20343   6.901   7.959   3.842  0.0558  0.0643 -0.1419
 4727W        W20344   0.250   6.177  16.764 -0.1528 -0.1255 -0.3355
 4728W        W20345   1.225   9.480  13.414  0.0113  0.1971 -0.2440
 4729W        W20346   4.707   9.516  14.892 -0.0352  0.0167  0.0314
 4730W        W20347   2.969  16.341  11.513 -0.0762 -0.1533 -0.2425
 4731W        W20348   8.537   0.042  13.099 -0.0985 -0.1037 -0.1632
 4732W        W20349  11.568  11.204  11.363  0.0001  0.2027  0.0771
 4733W        W20350  12.886  15.172   4.994 -0.0008 -0.0018  0.1375
 4734W        W20351   9.211   4.321   2.809  0.0130 -0.2733  0.2379
 4735W        W20352   2.167  14.616  11.896  0.0509  0.0872  0.0864
 4736W        W20353   8.910  15.413   1.903  0.0805 -0.1505  0.2367
 4737W        W20354  10.575   0.606   6.187 -0.2330  0.0063 -0.2047
 4738W        W20355  11.812  17.776   5.043  0.2078  0.2773 -0.0504
 4739W        W20356  15.048  13.804   6.377  0.0144 -0.2446 -0.1325
 4740W        W20357  10.669   9.770  11.437 -0.5045  0.1507 -0.0176
 4741W        W20358   2.640  12.587  11.480  0.3310  0.0898  0.0690
 4742W        W20359  11.453  12.604   4.256  0.0247  0.0501  0.1388
 4743W        W20360  15.866  13.822   0.254 -0.1668 -0.1234  0.1085
 4744W        W20361  14.765   8.155  13.214  0.1726 -0.1054 -0.0059
 4745W        W20362  12.996  14.390   1.786 -0.0304  0.0124 -0.1080
 4746W        W20363  17.357   5.788  15.508 -0.0172  0.2340  0.0591
 4747W        W20364   0.696   5.113  15.387 -0.0980  0.2784 -0.0229
 4748W        W20365   2.637  15.893  15.047  0.0745  0.0792 -0.1686
 4749W        W20366   9.345   6.635   6.089  0.1384  0.1172  0.4196
 4750W        W20367  11.136   0.567   1.008  0.0680 -0.1071 -0.0832
 4751W        W20368  13.013   0.096  12.297 -0.0135 -0.0742  0.2663
 4752W        W20369   5.970  18.009   1.907  0.1030 -0.2354  0.0536
 4753W        W20370  16.790   6.174  14.179 -0.0305  0.1414 -0.1787
 4754W        W20371  14.110   3.657  12.110  0.3428  0.0386 -0.0589
 4755W        W20372   2.540  15.947   4.610  0.1655 -0.3831  0.0917
 4756W        W20373  15.115  16.574  15.605 -0.0451  0.1433 -0.0960
 4757W        W20374   3.490  12.579  13.179 -0.3004  0.1382 -0.2457
 4758W        W20375  15.656  17.685  12.311 -0.3350 -0.0283 -0.1280
 4759W        W20376   3.756  13.324  15.895 -0.0150 -0.0399  0.1124
 4760W        W20377   3.027  11.445  14.329  0.0602  0.0541 -0.1711
 4761W        W20378  10.381  11.359  11.918 -0.2092  0.1219 -0.1464
 4762W        W20379  15.899  16.840  13.220  0.2040 -0.1160 -0.0043
 4763W        W20380   0.494  12.371  12.081 -0.1110 -0.0763  0.1928
 4764W        W20381  13.945   8.416  16.249  0.1802 -0.2926  0.0145
 4765W        W20382  11.296  13.006   2.789  0.0107 -0.0781 -0.3569
 4766W        W20383  13.527   8.763  15.611 -0.0518 -0.2362  0.0219
 4767W        W20384  16.189  15.115   0.974  0.0972  0.0523  0.4477
 4768W        W20385  16.249   3.081  12.526  0.1943  0.0722  0.1887
 4769W        W20386   3.152   1.864  12.290 -0.0116  0.1131 -0.2217
 4770W        W20387   8.137   0.850   5.250 -0.0140 -0.2191  0.4791
 4771W        W20388   1.532   3.723  11.611  0.0199 -0.1717 -0.0271
 4772W        W20389  13.182  16.437   4.350  0.0549 -0.1084  0.1784
 4773W        W20390   4.946  17.149  14.892  0.0066  0.0902  0.1426
 4774W        W20391   6.516   5.432  16.377 -0.3753 -0.0969 -0.0845
 4775W        W20392   0.459   4.641   5.032 -0.3964  0.1657 -0.2141
 4776W        W20393   6.853  12.955  11.467  0.0755  0.0175 -0.2165
 4777W        W20394   0.488  10.977  14.356 -0.2159 -0.3195  0.0293
 4778W        W20395   7.118  12.388  14.482  0.1985  0.2147  0.3042
 4779W        W20396  17.460  10.174  15.286  0.2351 -0.1038 -0.4919
 4780W        W20397   6.836   9.550  14.484  0.0923  0.1041  0.0608
 4781W        W20398   2.095  11.264   2.181  0.0299  0.2064  0.3071
 4782W        W20399   8.469   4.003   2.392 -0.2574  0.0991  0.1834
 4783W        W20400  16.492  14.914   4.511  0.0710  0.4622  0.1422
 4784W        W20401   0.308   5.129  14.572 -0.0163 -0.1423  0.1980
 4785W        W20402   0.725  15.894  12.341  0.0591  0.1360  0.0584
 4786W        W20403   6.895  11.862  16.509  0.0840  0.1397  0.1827
 4787W        W20404   9.807   8.879  16.139  0.2153  0.1391 -0.2221
 4788W        W20405   8.909   1.489   5.197 -0.0947 -0.1201 -0.0045
 4789W        W20406   9.839   2.438   5.504  0.2255 -0.3488  0.1361
 4790W        W20407   6.766  12.212   2.042 -0.0894  0.2889  0.0577
 4791W        W20408  13.909  14.426   1.534 -0.1443 -0.0707  0.1309
 4792W        W20409   1.289   8.842  15.652 -0.1733  0.2255  0.1784
 4793W        W20410   2.589  15.217   4.268  0.0880  0.1862  0.0405
 4794W        W20411   5.677  16.863  15.576  0.0264  0.0800  0.1090
 4795W        W20412  10.377  13.732  14.980 -0.0782  0.1466  0.1737
 4796W        W20413   6.223   1.634   4.689  0.0183  0.0061 -0.0739
 4797W        W20414   5.339   4.467  11.979 -0.2877 -0.0809 -0.1100
 4798W        W20415   1.630   0.607   3.086 -0.2001 -0.0349 -0.0197
 4799W        W20416   4.673  16.593   0.892  0.0720  0.0769  0.2752
 4800W        W20417  11.768   2.443   5.576 -0.1767  0.1770  0.1461
 4801W        W20418  11.534  13.737  12.453 -0.0675 -0.2051 -0.2292
 4802W        W20419   3.648  11.624   0.061  0.1975  0.1045  0.1405
 4803W        W20420  14.353   3.490  16.168 -0.0498  0.0006 -0.3565
 4804W        W20421  15.530   8.301   5.245 -0.2532  0.0870 -0.1227
 4805W        W20422   3.895   5.298  14.206 -0.1167  0.0948 -0.0373
 4806W        W20423  16.263  15.671   4.137 -0.1735  0.2693  0.3384
 4807W        W20424  14.933  16.510   3.921 -0.0657 -0.1514  0.2507
 4808W        W20425   1.942   5.579   0.187 -0.0939 -0.2131  0.1468
 4809W        W20426  16.728   9.589  16.232 -0.2119  0.1560  0.2724
 4810W        W20427   5.946   4.063   5.372  0.1096 -0.1859 -0.0423
 4811W        W20428  15.457  12.247   5.136  0.0502 -0.3582  0.1404
 4812W        W20429  15.793   4.799   3.899 -0.2073  0.1564  0.0453
 4813W        W20430  14.160  12.012   1.869 -0.6459  0.0242 -0.3881
 4814W        W20431  14.498  12.346   1.656  0.4357  0.0420  0.1566
 4815W        W20432   9.030   7.502   5.505  0.0789  0.2407 -0.1129
 4816W        W20433  16.521  10.883   1.945 -0.1829 -0.1377 -0.2825
 4817W        W20434   6.184   2.641  16.561  0.1127  0.4016  0.0287
 4818W        W20435   4.257   3.184   1.291  0.4740  0.2875 -0.1924
 4819W        W20436   8.779   0.520   4.085  0.0300  0.2480 -0.1861
 4820W        W20437   6.167   0.020   3.643 -0.1293 -0.1676 -0.1299
 4821W        W20438   6.921  11.108  10.989 -0.0449  0.0735  0.0569
 4822W        W20439   1.761   2.385   3.557 -0.0325 -0.0768  0.1483
 4823W        W20440   1.017   4.413   3.854  0.1704 -0.0960  0.0174
 4824W        W20441  17.936  15.967  10.898  0.0232  0.2823 -0.0248
 4825W        W20442   0.530   5.174   4.116  0.4010 -0.2354  0.0495
 4826W        W20443  15.725  14.651  12.161 -0.0319  0.1162  0.0757
 4827W        W20444   6.274  16.727   5.761  0.1346 -0.1265 -0.0598
 4828W        W20445   8.656  16.396  16.717  0.1896 -0.0271 -0.0717
 4829W        W20446  13.216   0.185  13.646  0.0988 -0.2682 -0.2201
 4830W        W20447  10.240  18.035  12.164 -0.2184  0.1469  0.0925
 4831W        W20448   0.879  15.989   2.926  0.1716  0.0457  0.0868
 4832W        W20449  12.866   9.318   3.560  0.0820 -0.0809 -0.1626
 4833W        W20450   7.084  10.010  14.453  0.3196  0.0082 -0.0115
 4834W        W20451   9.524  17.742   0.033 -0.2549  0.1251  0.0588
 4835W        W20452   9.176   4.712   2.467  0.2781 -0.0019  0.1045
 4836W        W20453   1.215   0.234   5.228 -0.1778  0.1474  0.2553
 4837W        W20454   2.253   2.048   4.212  0.1856 -0.2830 -0.3261
 4838W        W20455   9.036   6.658   0.547 -0.0484  0.0478 -0.4649
 4839W        W20456  17.858  10.676  12.893  0.2311 -0.1163 -0.1119
 4840W        W20457   5.634  11.968   0.042 -0.0212  0.1151  0.0002
 4841W        W20458   2.784   7.779   4.950  0.3155 -0.0725  0.0402
 4842W        W20459   7.035   7.272  15.228  0.5213 -0.0439  0.0623
 4843W        W20460  17.053   1.169   2.948  0.3069  0.0498  0.2376
 4844W        W20461   0.266  15.690  16.374 -0.0743  0.1770 -0.2266
 4845W        W20462  10.874  17.700  14.374  0.2611 -0.0108  0.2221
 4846W        W20463   8.280   5.891  11.034 -0.2317 -0.0754 -0.1184
 4847W        W20464   9.604   1.426  11.769  0.1472 -0.0487  0.1910
 4848W        W20465   8.818   6.661   1.278  0.0287 -0.2327  0.0365
 4849W        W20466   7.713  17.981  16.377 -0.0223 -0.2964  0.1732
 4850W        W20467   5.220  16.729  14.261  0.0643 -0.1581 -0.0480
 4851W        W20468   9.775  13.883   3.204  0.2852  0.2368 -0.2377
 4852W        W20469  15.885  11.756  16.726 -0.6093 -0.0950  0.0515
 4853W        W20470  10.802   8.320   1.488  0.2333 -0.1452  0.2153
 4854W        W20471   8.585   1.096  12.295 -0.1858  0.1855 -0.2546
 4855W        W20472  14.527   3.848  13.672  0.0242 -0.0405  0.4146
 4856W        W20473   2.330  10.177  12.501 -0.0546 -0.1878  0.4230
 4857W        W20474   3.183   9.339   2.873  0.0981  0.4136 -0.1853
 4858W        W20475   4.494   7.575   3.371 -0.0605 -0.1096  0.1099
 4859W        W20476  12.798  11.635   3.498 -0.0360  0.0554  0.0677
 4860W        W20477   0.422   4.981   2.632 -0.0785  0.3441  0.2050
 4861W        W20478  14.271   0.848   2.479  0.1607 -0.1337  0.0426
 4862W        W20479   1.649  14.477   1.305  0.0832  0.0415 -0.1325
 4863W        W20480  15.065   4.567   0.998 -0.1908  0.0020  0.2737
 4864W        W20481   6.940  11.233   4.609 -0.2989  0.3477 -0.0777
 4865W        W20482   3.013   7.524   4.592 -0.3603  0.1526 -0.1956
 4866W        W20483   8.233   9.478  14.567  0.0249 -0.0956 -0.1078
 4867W        W20484   9.024   0.596  13.425  0.4022 -0.0861 -0.2101
 4868W        W20485   8.497   8.494  15.736  0.2383 -0.1781  0.1092
 4869W        W20486  13.723   3.740   2.273  0.0588  0.0983  0.5725
 4870W        W20487   6.004   4.204  15.350  0.1585  0.0724  0.0950
 4871W        W20488   1.548  15.949  13.065 -0.2064 -0.0215 -0.2118
 4872W        W20489  10.519  15.785  11.433 -0.1342  0.1321 -0.2239
 4873W        W20490  11.290  10.539   0.163  0.1546  0.0904  0.0527
 4874W        W20491   0.860   2.031   2.817 -0.3234  0.2469 -0.2142
 4875W        W20492  10.525   4.369  16.775  0.1995 -0.0246 -0.0400
 4876W        W20493  13.637  15.705  15.352  0.1917 -0.0788 -0.2200
 4877W        W20494   2.225   9.820  14.692  0.0193  0.1225 -0.0463
 4878W        W20495   7.957   6.858   5.812 -0.2832  0.3202  0.2743
 4879W        W20496   4.578   0.174   4.450 -0.3744  0.0669 -0.2246
 4880W        W20497   7.898   3.158   3.732 -0.0208  0.4075 -0.2981
 4881W        W20498   9.130  10.121  12.511 -0.0881  0.0737 -0.0378
 4882W        W20499  13.645   6.994  12.980 -0.1392 -0.0953  0.0647
 4883W        W20500  12.457   8.743   3.054 -0.1643 -0.2190  0.2535
 4884W        W20501   2.662   9.621  15.448 -0.0454  0.2474  0.4471
 4885W        W20502  12.287  15.378   2.399 -0.0579  0.1063  0.1873
 4886W        W20503   8.957   7.437  14.657  0.0801 -0.0004  0.2357
 4887W        W20504   1.616  15.196  14.022 -0.0567 -0.1391 -0.1013
 4888W        W20505   5.055   3.170  15.116  0.0602  0.0732 -0.0577
 4889W        W20506   8.507   8.510  12.481 -0.1492 -0.1178  0.4041
 4890W        W20507   7.356  16.450  13.856  0.4897  0.0680  0.1063
 4891W        W20508   6.852   9.807   0.720  0.2348 -0.0618 -0.0271
 4892W        W20509   5.752   6.171   4.547  0.0490 -0.0929 -0.1543
 4893W        W20510  10.405   6.419  16.113 -0.1905  0.4000  0.1526
 4894W        W20511  16.720   0.773  12.859 -0.1195  0.0994 -0.0650
 4895W        W20512   2.381   4.451   1.446  0.1936  0.2272 -0.2291
 4896W        W20513   2.618  16.472  16.155  0.0497  0.0080 -0.0211
 4897W        W20514   8.988   4.590   1.371 -0.0954 -0.1591 -0.0046
 4898W        W20515  13.759  17.369  16.521 -0.1550  0.4023 -0.2046
 4899W        W20516   8.966   8.710   1.308 -0.0914 -0.0206 -0.0787
 4900W        W20517   3.120   3.139  11.816  0.1016  0.3066 -0.1618
 4901W        W20518  15.470   4.557   0.570 -0.3984 -0.2776  0.5445
 4902W        W20519   5.455  14.608   1.413  0.2694 -0.2069  0.0113
 4903W        W20520   6.258   2.499   3.202  0.2794  0.4617 -0.0757
 4904W        W20521   2.211   9.770  15.622  0.2640  0.0357  0.1447
 4905W        W20522   4.660   4.853   1.456 -0.0756 -0.0752  0.4182
 4906W        W20523  11.785   3.174   1.462  0.0860  0.0733  0.3017
 4907W        W20524   7.430   2.376  15.124  0.0384  0.1125 -0.0092
 4908W        W20525   7.236   3.524  14.139  0.3187 -0.0060  0.4219
 4909W        W20526   3.414   2.552   4.008 -0.1402 -0.1274 -0.2549
 4910W        W20527   7.991  16.434  12.692  0.2220 -0.0092  0.0360
 4911W        W20528   9.659   2.230   4.964  0.1922  0.0934 -0.4927
 4912W        W20529  17.626  12.456  15.823  0.2137  0.1342  0.1239
 4913W        W20530   3.287   1.362   6.002  0.0475  0.1206 -0.1436
 4914W        W20531   6.904   6.384   0.023  0.0449 -0.4394 -0.2044
 4915W        W20532  11.085   8.134  13.064 -0.1723  0.2287 -0.3223
 4916W        W20533  16.885   6.183  14.699 -0.4456  0.2586  0.1196
 4917W        W20534  11.542   3.111  11.607 -0.0921 -0.3690 -0.3385
 4918W        W20535   3.178   6.880  16.038  0.3508  0.3077  0.0601
 4919W        W20536   2.169  14.363   3.075 -0.1427 -0.0110  0.2325
 4920W        W20537   4.877  15.669  15.592  0.1099 -0.0305 -0.1049
 4921W        W20538   3.475   8.531  12.065  0.2282  0.2868  0.0398
 4922W        W20539  16.722  10.539   3.297  0.2801  0.3100 -0.0763
 4923W        W20540   4.566  16.925  11.561  0.0811  0.2637 -0.2687
 4924W        W20541  15.848   7.715   0.775 -0.0473  0.0993  0.1867
 4925W        W20542  17.432   1.385  15.614  0.2976  0.0846  0.1327
 4926W        W20543   6.238   5.134   2.086  0.2502  0.4257 -0.2524
 4927W        W20544   9.234   9.109   1.090  0.3246  0.0207 -0.1701
 4928W        W20545  11.180   7.189  14.052  0.2949  0.0303  0.0394
 4929W        W20546   7.047  17.861  12.262  0.2173 -0.2301  0.1763
 4930W        W20547   5.711   5.059  15.415  0.3486 -0.3866  0.1372
 4931W        W20548  14.192  10.340  14.630 -0.0737  0.0646  0.0457
 4932W        W20549  11.672   0.692  15.740 -0.0809  0.0883  0.1020
 4933W        W20550   6.879  15.342  16.444  0.0624 -0.1488  0.1489
 4934W        W20551  13.579   7.845  11.955 -0.0454  0.0474  0.1263
 4935W        W20552  15.127  14.837   0.086  0.0373 -0.3788 -0.1289
 4936W        W20553   8.237   8.728   3.868 -0.1960 -0.2071 -0.0044
 4937W        W20554   7.307   9.690   5.630  0.3161  0.0237 -0.1833
 4938W        W20555  17.699   3.551   1.338  0.0763 -0.1356  0.2051
 4939W        W20556   2.288  15.244   6.021 -0.0846  0.0373 -0.1353
 4940W        W20557   1.597   9.850  12.896 -0.1882 -0.2432 -0.0255
 4941W        W20558  11.474  16.032   0.480  0.3942 -0.0729  0.2194
 4942W        W20559   7.056  16.281  11.958 -0.3564  0.0545 -0.1915
 4943W        W20560  10.041  11.704   2.488 -0.0630  0.2813  0.2430
 4944W        W20561  15.483  13.991   3.729  0.0454  0.1337 -0.1126
 4945W        W20562   3.590  10.428  13.453  0.1593  0.0140  0.1911
 4946W        W20563   9.726   1.453   3.989  0.0213 -0.0353  0.0761
 4947W        W20564  17.588  11.309  14.773  0.3510  0.1744  0.4164
 4948W        W20565   0.761   0.484   4.778 -0.1898 -0.0859  0.0049
 4949W        W20566  11.752  16.949  15.606  0.0953 -0.0030 -0.2815
 4950W        W20567  14.293   3.449   5.022  0.0069  0.0883 -0.1939
 4951W        W20568  17.178  14.423  15.117  0.0610 -0.1987  0.0391
 4952W        W20569  15.377  11.655  15.559 -0.0218  0.1088 -0.0787
 4953W        W20570  14.033  13.770  13.956  0.2160 -0.5022 -0.1332
 4954W        W20571  17.426   7.793   3.475  0.0089  0.1619 -0.1152
 4955W        W20572   0.935  13.477   5.222 -0.2447 -0.0245  0.1090
 4956W        W20573   7.810  15.403   4.324  0.2415 -0.0305  0.0115
 4957W        W20574  13.372   7.030   0.359  0.1872  0.1917  0.5422
 4958W        W20575   2.850   8.568  12.974 -0.1966 -0.1772  0.2545
 4959W        W20576  14.724  15.550   1.928  0.5027  0.1574  0.5093
 4960W        W20577   8.408  16.212   4.185 -0.0180  0.2306 -0.0208
 4961W        W20578  15.027  14.576  13.595  0.1361 -0.0578  0.2051
 4962W        W20579   0.421   8.807  15.835 -0.0017 -0.3556  0.2860
 4963W        W20580  16.580   0.196   0.249  0.0666  0.1340  0.2966
 4964W        W20581  10.365   1.719  13.686  0.0218  0.0287 -0.0677
 4965W        W20582   6.740   8.021   4.286  0.1846  0.3306 -0.3807
 4966W        W20583  16.835  14.358   3.643  0.1510 -0.3418  0.0773
 4967W        W20584   5.626  13.535  11.972  0.1093 -0.1908  0.0378
 4968W        W20585   3.657   9.308   5.229 -0.0635  0.1783  0.0548
 4969W        W20586   1.383  13.109   0.138 -0.1698  0.0625 -0.1505
 4970W        W20587   4.343  11.590  16.158  0.2327  0.0707  0.2288
 4971W        W20588  17.083   9.500   3.866 -0.2517 -0.1682 -0.0124
 4972W        W20589  15.578   8.562   1.670  0.5525 -0.4911  0.0901
 4973W        W20590  11.599   8.818  14.494  0.1334 -0.0307  0.1981
 4974W        W20591  14.193   3.166  14.741 -0.2016  0.0467  0.2342
 4975W        W20592   2.468  15.038  11.935 -0.0258 -0.4360  0.1452
 4976W        W20593  14.061   7.633  12.186 -0.0206  0.1477  0.0701
 4977W        W20594  12.013  16.905   4.938 -0.0601 -0.1307 -0.1336
 4978W        W20595  17.608   9.293   5.805 -0.3696 -0.2324  0.2660
 4979W        W20596  14.009   3.471   1.891 -0.1172  0.2339 -0.3263
 4980W        W20597   5.842  16.407  14.971 -0.1614 -0.2088  0.2337
 4981W        W20598   1.723  11.848   4.757 -0.0817 -0.2568  0.3375
 4982W        W20599  15.273   8.135  16.106 -0.2592  0.1923  0.0609
 4983W        W20600   5.079   7.186   2.870  0.0234 -0.3384  0.3452
 4984W        W20601   0.533   1.887  15.316 -0.1437 -0.2610 -0.2056
 4985W        W20602   9.546  15.209  12.104 -0.4383  0.3948 -0.0987
 4986W        W20603  11.857   7.802  16.069  0.0053  0.1321 -0.3310
 4987W        W20604  15.759  14.883  16.491 -0.2506  0.0081 -0.1768
 4988W        W20605  16.545  14.449   0.185 -0.3277 -0.2176  0.1943
 4989W        W20606  12.089   1.822  16.369  0.0322 -0.0086 -0.1790
 4990W        W20607   7.226  17.207   3.506  0.2313 -0.0233  0.4303
 4991W        W20608   6.505  14.438  15.269  0.0669  0.1124  0.1811
 4992W        W20609  15.485  15.176   3.765 -0.1876  0.1602  0.0995
 4993W        W20610  17.271   5.307  16.352  0.1022 -0.0451  0.3557
 4994W        W20611   6.654  10.082   5.634 -0.1103  0.3922  0.0432
 4995W        W20612  11.659   8.694   0.555  0.0994  0.1754 -0.1249
 4996W        W20613   6.564   7.161  11.980  0.1791 -0.1139 -0.2703
 4997W        W20614   8.061   2.077   2.216  0.0480 -0.2457 -0.0301
 4998W        W20615  10.055   5.100   0.508 -0.0045 -0.1802  0.0304
 4999W        W20616  16.414   2.947   1.428  0.1086  0.0360 -0.0988
 5000W        W20617  17.782  13.867  14.176 -0.0850 -0.2168  0.1114
 5001W        W20618  11.151  16.057  10.786 -0.2916  0.1537 -0.0326
 5002W        W20619   3.882   1.192  12.071 -0.0759  0.2659 -0.1010
 5003W        W20620  17.425   1.058  13.557 -0.0453 -0.1113 -0.0129
 5004W        W20621  16.617  17.573   2.660  0.0900  0.0183  0.0644
 5005W        W20622   9.995   4.293  12.643  0.2584  0.1659 -0.1076
 5006W        W20623   5.339  10.567   0.896 -0.0351 -0.0617 -0.0190
 5007W        W20624   2.299   4.561  14.807 -0.1988 -0.3706  0.1082
 5008W        W20625   2.561   8.586   0.647 -0.0356 -0.1765 -0.1014
 5009W        W20626   9.921   8.405  15.764 -0.4701 -0.2368 -0.0872
 5010W        W20627  14.099  13.603  10.912  0.2981  0.1963  0.0929
 5011W        W20628  17.259  16.393  16.041 -0.0699 -0.0594 -0.0812
 5012W        W20629  10.452   5.338  12.645  0.2917  0.1097  0.1955
 5013W        W20630  17.794  10.727  14.580  0.0979  0.2253 -0.4613
 5014W        W20631  10.009  13.753   4.505 -0.1064  0.2374  0.0512
 5015W        W20632  11.872   5.288   1.471  0.1628 -0.0337 -0.0029
 5016W        W20633   8.709  11.648   2.230  0.1442  0.0556  0.0458
 5017W        W20634   8.843   5.388   3.834  0.0506 -0.1955  0.2174
 5018W        W20635   8.339  17.288   2.435 -0.0222  0.1047 -0.2825
 5019W        W20636   3.980  14.025   2.605 -0.2163 -0.2584 -0.0163
 5020W        W20637   9.517   8.884  11.826  0.0290 -0.4778  0.3219
 5021W        W20638   7.056   8.962   1.219  0.2329 -0.1705  0.1206
 5022W        W20639   3.566   6.690   2.295  0.0648 -0.2023  0.0021
 5023W        W20640   4.780  11.585  12.440  0.1878  0.1562 -0.2511
 5024W        W20641  15.341  15.227  14.192  0.1235  0.2481 -0.1852
 5025W        W20642   9.644  13.479   2.962  0.0032  0.0279 -0.2094
 5026W        W20643  12.032  15.159   5.802  0.2721 -0.3207 -0.1717
 5027W        W20644  15.251  15.844  13.430  0.1499  0.0849  0.0055
 5028W        W20645  10.554   3.740   3.402  0.2657 -0.1005  0.3088
 5029W        W20646   5.733  16.279  15.577  0.1916  0.0469  0.0367
 5030W        W20647   9.998  10.359  11.753  0.2814  0.1073 -0.1254
 5031W        W20648   6.446  14.070  12.994  0.2640  0.2404  0.0546
 5032W        W20649   8.390   7.408  15.595 -0.0772 -0.2090 -0.0305
 5033W        W20650   7.772  10.814  12.277 -0.2854  0.3707 -0.1916
 5034W        W20651   8.220  16.462  16.430 -0.3047  0.0402 -0.3000
 5035W        W20652   0.593   7.076  13.676 -0.3088 -0.1490 -0.0782
 5036W        W20653   7.262   5.946   4.113  0.4090 -0.0144  0.0839
 5037W        W20654  16.065   9.021   4.923 -0.1909  0.2320 -0.1231
 5038W        W20655  12.990  10.270   1.104  0.1052 -0.0512 -0.1867
 5039W        W20656   1.065   3.573   4.168 -0.1343  0.0725  0.4290
 5040W        W20657  17.694   1.883   1.477  0.0728 -0.2841 -0.2637
 5041W        W20658  10.219  16.090   1.690 -0.1721 -0.0439  0.3231
 5042W        W20659  14.791   7.732   3.443  0.2094  0.0530  0.3766
 5043W        W20660   2.055  17.197   4.931 -0.1492 -0.2467  0.4368
 5044W        W20661  16.503   5.432  12.060 -0.1716 -0.2184 -0.1538
 5045W        W20662  16.903  10.855   2.958 -0.1583 -0.1463  0.5017
 5046W        W20663   5.886   5.624   4.581  0.2392 -0.1158  0.0290
 5047W        W20664  12.530   6.681   5.001  0.0463 -0.1016  0.0920
 5048W        W20665   1.403   3.205   1.530 -0.1300 -0.0475  0.0023
 5049W        W20666   6.423   1.832   0.963 -0.1320  0.0779 -0.0407
 5050W        W20667  11.624   2.170   2.993 -0.2443 -0.0209  0.3097
 5051W        W20668  14.962  14.536  16.052  0.1551  0.3844 -0.1351
 5052W        W20669  12.959   7.781   0.698  0.3950  0.2849 -0.2040
 5053W        W20670   4.297  15.544   1.582  0.0842  0.0248  0.0178
 5054W        W20671   8.965   5.099   1.584 -0.2148 -0.2535 -0.0258
 5055W        W20672   2.344   7.589   5.612  0.0382  0.1422 -0.4578
 5056W        W20673   5.402   9.887   1.293 -0.2286  0.1820 -0.0474
 5057W        W20674  13.775   6.811   4.113 -0.0731 -0.0065  0.2140
 5058W        W20675  15.046   6.851  13.037  0.2079  0.1167 -0.1421
 5059W        W20676  11.923   1.200   5.457  0.2681 -0.3077 -0.0321
 5060W        W20677  17.366  12.063   2.928  0.1312 -0.1897 -0.1497
 5061W        W20678  11.998  13.834  14.537  0.0645  0.1653 -0.0299
 5062W        W20679   1.765   6.427  14.359 -0.0273 -0.1135 -0.0511
 5063W        W20680   2.850   1.296   2.187  0.4391 -0.2215  0.0268
 5064W        W20681   7.680  17.548   4.987  0.0501  0.0939  0.1701
 5065W        W20682  16.725   2.279   5.654  0.2134  0.3008  0.0470
 5066W        W20683  11.673  13.397  13.821 -0.0655 -0.2877  0.2436
 5067W        W20684   6.203   4.293  11.291 -0.1171  0.2399  0.1821
 5068W        W20685  12.352  11.048   2.971  0.1924  0.1344  0.0231
 5069W        W20686   0.421   0.628  13.961  0.1808 -0.1734  0.0015
 5070W        W20687  14.982  16.849   4.374 -0.0984  0.0065 -0.0538
 5071W        W20688  10.325  16.301   0.465  0.0846  0.2770  0.0129
 5072W        W20689  15.098   7.497   3.824  0.0598 -0.2040 -0.3923
 5073W        W20690  16.612  15.227  14.629  0.4594 -0.2882  0.0595
 5074W        W20691  10.113   8.791   2.835 -0.1875  0.3131  0.0528
 5075W        W20692   8.463  14.417   5.136  0.0596 -0.1334  0.0343
 5076W        W20693   2.195  15.766  13.803  0.0660  0.0260  0.2955
 5077W        W20694  11.041   9.006  12.735 -0.0495  0.0689 -0.0829
 5078W        W20695   3.134   8.000   4.131  0.1567  0.1184  0.0687
 5079W        W20696   1.826  14.221  15.203  0.2247  0.2141 -0.1613
 5080W        W20697   3.615   5.479   0.358 -0.0777 -0.0577 -0.1130
 5081W        W20698  12.214   5.088  16.713  0.0445 -0.1358  0.1528
 5082W        W20699   9.814  11.342   5.861  0.1565 -0.0249 -0.1575
 5083W        W20700  12.550   3.127   3.489  0.1096  0.0321 -0.0690
 5084W        W20701  16.707   9.434  15.744 -0.0215 -0.3515 -0.1900
 5085W        W20702   2.090  12.194   3.875  0.4275  0.0269  0.2572
 5086W        W20703  16.022   6.599   1.933  0.2795  0.0344 -0.0131
 5087W        W20704   4.375  12.617   1.580 -0.1532  0.0114 -0.0252
 5088W        W20705   1.986  16.520   5.443  0.0334 -0.1200 -0.0510
 5089W        W20706   3.451   1.727  13.754  0.1296  0.0959 -0.0661
 5090W        W20707  14.236  17.675  15.830 -0.1525  0.0811 -0.1084
 5091W        W20708   2.696  15.599   1.128  0.0916 -0.3618  0.2341
 5092W        W20709   9.987  11.495   1.539  0.1262 -0.0890  0.1441
 5093W        W20710   8.697  11.470  12.924  0.3137  0.1151 -0.0013
 5094W        W20711  12.783   4.363   2.593 -0.0305 -0.2101 -0.1768
 5095W        W20712  10.283   6.447  14.397  0.3004  0.0119 -0.2557
 5096W        W20713   4.998   6.796  14.104 -0.0515 -0.1048 -0.0081
 5097W        W20714  12.806   8.925  11.518  0.1195 -0.3084  0.0928
 5098W        W20715  16.858  16.615   4.862  0.2261  0.0031  0.0139
 5099W        W20716  15.112   9.506  15.283 -0.2312  0.1020 -0.1633
 5100W        W20717   3.700  10.998  11.777 -0.2982 -0.1058  0.2105
 5101W        W20718   7.014  17.352  16.027  0.2057  0.1533  0.2235
 5102W        W20719  17.466   6.524  14.652  0.0020 -0.1927 -0.0120
 5103W        W20720  15.885  12.251   4.749  0.4055 -0.4569  0.1134
 5104W        W20721   3.912  11.834  14.284 -0.0054  0.1454  0.4867
 5105W        W20722   7.103   6.254   5.235  0.0317 -0.0748  0.0587
 5106W        W20723   8.691   7.027  14.765 -0.1624 -0.0137 -0.2040
 5107W        W20724  13.097   7.193  15.867 -0.2439  0.2611 -0.0396
 5108W        W20725   6.656  17.253   5.432  0.1755 -0.0205 -0.2171
 5109W        W20726  11.759   6.786   3.564  0.4961 -0.2473  0.3991
 5110W        W20727   4.282   7.358   0.853 -0.2128 -0.0638  0.1062
 5111W        W20728   5.400  16.922  12.693 -0.1380  0.2557  0.0553
 5112W        W20729  17.857   5.722   1.007  0.3335  0.1757 -0.1345
 5113W        W20730  16.360   3.658  16.402  0.1141  0.1211  0.1576
 5114W        W20731   4.503  12.553   3.887  0.1076  0.1676  0.1706
 5115W        W20732   3.679   7.487  13.469 -0.0325  0.0426 -0.1112
 5116W        W20733  12.584  10.995  14.987  0.0539  0.2004 -0.1314
 5117W        W20734   5.306  12.742  16.022  0.0838 -0.0323 -0.2646
 5118W        W20735   4.826   0.436   1.471 -0.0496  0.1637  0.0001
 5119W        W20736  14.687  11.988  14.929  0.1016 -0.0877  0.0561
 5120W        W20737  12.523  11.628   2.331 -0.0038 -0.0793 -0.2590
 5121W        W20738  11.234  10.672   4.963 -0.2414 -0.1413  0.0824
 5122W        W20739   4.460  11.869  13.458 -0.1412  0.2132 -0.0991
 5123W        W20740   0.311  10.412   4.110  0.0399 -0.2282  0.0743
 5124W        W20741  16.155   4.961   3.218 -0.1935 -0.2793 -0.1638
 5125W        W20742   2.279  12.684  12.576  0.2148  0.1971  0.1967
 5126W        W20743  14.793  11.166   1.962  0.2303  0.3532 -0.1778
 5127W        W20744  15.769  10.194   1.054 -0.1368 -0.1867 -0.0332
 5128W        W20745   6.185   9.009  13.920 -0.4027 -0.3304  0.0249
 5129W        W20746   5.891   4.917  16.183  0.0277  0.0794  0.1028
 5130W        W20747  15.222   0.193   3.765 -0.1377 -0.0270 -0.2707
 5131W        W20748   3.502  14.248   3.480 -0.1337  0.0153 -0.0513
 5132W        W20749   7.550   3.791  13.836 -0.0647  0.0784  0.1826
 5133W        W20750   1.144   9.107   3.727  0.2792 -0.3186 -0.3255
 5134W        W20751  15.147   0.004   4.273 -0.1634 -0.0365  0.0443
 5135W        W20752   0.705  15.670  16.072 -0.0254  0.3535 -0.0797
 5136W        W20753  17.113  10.720  14.522  0.2425  0.0189  0.0481
 5137W        W20754   4.105   5.572   2.923 -0.2069  0.1883  0.2696
 5138W        W20755  17.412  16.989  15.911 -0.1780 -0.1249 -0.1596
 5139W        W20756   0.817   9.616  15.471 -0.0455  0.0455  0.0838
 5140W        W20757   8.936  17.883  14.385  0.1245 -0.1471  0.1169
 5141W        W20758   9.046  10.538   5.550  0.1408 -0.1781  0.1374
 5142W        W20759  11.181  16.603   3.911  0.2976  0.0358  0.0814
 5143W        W20760   3.672  17.899   1.109  0.0947  0.1044 -0.2332
 5144W        W20761   8.620   2.739  13.793 -0.0486 -0.3520 -0.4003
 5145W        W20762   7.712  16.118   2.421  0.1284  0.1231  0.2831
 5146W        W20763   1.555   9.262   2.469 -0.3144 -0.1726  0.0788
 5147W        W20764   2.001   4.458  14.346  0.0241  0.0382  0.1734
 5148W        W20765  15.257   4.184   4.806  0.1233  0.2843  0.0737
 5149W        W20766  16.084   0.607   2.191 -0.0146 -0.2579  0.5257
 5150W        W20767  14.800  14.937  11.380 -0.1323  0.0795 -0.0844
 5151W        W20768  15.152   5.417  14.055 -0.1650  0.3610 -0.2753
 5152W        W20769   4.815  12.703   2.202  0.2263 -0.0275  0.3160
 5153W        W20770  14.492  17.640   0.311  0.1087 -0.0740  0.1311
 5154W        W20771  12.773   6.271  15.161  0.1148 -0.1478 -0.0576
 5155W        W20772  13.743   1.128  12.245  0.1352 -0.1753  0.0822
 5156W        W20773  17.764   9.534  14.500  0.2009 -0.1126 -0.2818
 5157W        W20774  14.818   1.125   2.137  0.2179  0.0612 -0.1256
 5158W        W20775  10.834   3.769  15.866 -0.0120 -0.0825 -0.0723
 5159W        W20776  16.432   3.474  15.953  0.0393 -0.1671 -0.0237
 5160W        W20777   3.628   2.778   5.155  0.1121 -0.0311  0.0939
 5161W        W20778  14.150   4.933   3.987 -0.1648  0.3281  0.0456
 5162W        W20779   4.747   5.315  12.298  0.0325  0.0361 -0.0517
 5163W        W20780  10.151   1.009   4.931  0.0345  0.0834 -0.0691
 5164W        W20781   7.760   1.617   2.397  0.0639 -0.0560 -0.0052
 5165W        W20782   4.547   2.560  12.048 -0.1925  0.4014 -0.0204
 5166W        W20783   9.422  11.615   2.799 -0.1073  0.2349 -0.0066
 5167W        W20784  11.405   1.076   4.640  0.2698 -0.1357  0.0224
 5168W        W20785   1.733   1.097   1.260  0.2878 -0.0038  0.2007
 5169W        W20786  16.013   5.841  13.717 -0.1176  0.2294  0.0247
 5170W        W20787  10.427   6.284   3.684  0.3111 -0.0560 -0.1564
 5171W        W20788  14.176   7.167  12.034 -0.2371  0.2723 -0.0218
 5172W        W20789  14.474   0.070  13.692  0.1323  0.2860  0.0936
 5173W        W20790   1.351   5.428  12.449  0.0877  0.1087  0.1193
 5174W        W20791   9.363  13.578  10.757 -0.1588 -0.1195 -0.1340
 5175W        W20792  12.035  10.810   2.669  0.0394 -0.1874  0.0786
 5176W        W20793   5.743  14.095   0.411  0.0437  0.1636 -0.2782
 5177W        W20794  15.133   2.356  16.681  0.2175  0.0533 -0.0404
 5178W        W20795   8.185  14.493  15.324 -0.0750  0.3070  0.0070
 5179W        W20796  15.176  15.260  12.004  0.0233  0.0743  0.1596
 5180W        W20797  12.992   2.231   2.535  0.0225  0.1676 -0.3060
 5181W        W20798  11.476  11.139   3.020 -0.0456  0.0065 -0.1718
 5182W        W20799  14.390  11.673  15.164 -0.1222 -0.2113  0.0506
 5183W        W20800   9.156  17.761  11.968 -0.2054  0.1447  0.1379
 5184W        W20801   5.706   2.738  14.573  0.3789  0.0744 -0.1559
 5185W        W20802   4.501  10.160   0.029  0.4114  0.0050 -0.0246
 5186W        W20803  13.395  14.765  14.731 -0.2032 -0.0520 -0.0206
 5187W        W20804   7.688  10.304  11.415  0.1527 -0.0240  0.0625
 5188W        W20805   4.955   5.592  15.013  0.1235  0.1026 -0.0747
 5189W        W20806  10.983   8.623  16.338  0.0192 -0.1323  0.1461
 5190W        W20807  14.219   0.727   3.139  0.0302 -0.1037  0.0125
 5191W        W20808   1.239  11.082   1.757 -0.0318 -0.1859 -0.3829
 5192W        W20809   0.713  17.396   5.518  0.0281  0.1582  0.0104
 5193W        W20810   3.131   1.421   1.041  0.0088 -0.0325  0.0527
 5194W        W20811   8.167   1.441  15.839  0.3227 -0.3806  0.0484
 5195W        W20812  11.764  12.042   4.854 -0.2656  0.0433 -0.0980
 5196W        W20813  14.209  16.858   5.594  0.2193 -0.0226 -0.2556
 5197W        W20814   4.063   2.629   5.819 -0.1455  0.0502 -0.2005
 5198W        W20815   1.915  15.716  14.994  0.1053  0.0810 -0.3096
 5199W        W20816  12.153   0.613   3.241 -0.2609 -0.1585  0.1788
 5200W        W20817   3.806  16.203   0.905 -0.2218 -0.0261  0.1719
 5201W        W20818   0.481  16.326   2.890 -0.0026 -0.1562 -0.1438
 5202W        W20819  16.751  14.216  16.502 -0.1468 -0.0095  0.5451
 5203W        W20820  10.474  10.502  13.382  0.2990 -0.0418 -0.2524
 5204W        W20821   9.409   5.426  16.683 -0.1909 -0.0328  0.0329
 5205W        W20822   3.920   6.386   6.399 -0.0993 -0.1618  0.1068
 5206W        W20823  17.036   0.531   4.535  0.0246 -0.2339 -0.1367
 5207W        W20824  15.342   6.887   0.049 -0.4494 -0.2067  0.0726
 5208W        W20825  11.820   6.293   3.618  0.1373  0.1155 -0.2029
 5209W        W20826   3.380   2.510   4.804 -0.0147 -0.0260  0.1433
 5210W        W20827  16.458   9.583   0.215 -0.0172 -0.0428  0.0540
 5211W        W20828   7.731   4.263   4.711 -0.0677  0.4303 -0.0745
 5212W        W20829   5.194  18.046  10.955 -0.1523 -0.2282 -0.1492
 5213W        W20830   4.394   8.423   2.777  0.3597 -0.0142 -0.1814
 5214W        W20831  11.660  11.067  11.837 -0.0431  0.0706 -0.0080
 5215W        W20832   4.443  11.894   5.171  0.1101  0.1111  0.0941
 5216W        W20833   1.517  17.715  11.542 -0.2186  0.1337  0.1209
 5217W        W20834  15.099  14.400  13.100  0.0998 -0.3048 -0.1804
 5218W        W20835  16.906   9.993  15.965  0.0807 -0.0251 -0.2672
 5219W        W20836   2.942  14.196  14.356 -0.0368  0.2742  0.0489
 5220W        W20837  16.835  12.323   4.807  0.1711 -0.1135 -0.1892
 5221W        W20838   7.760   2.171  12.795  0.1325  0.0343  0.1276
 5222W        W20839   4.389   2.884   1.828 -0.3587 -0.0540  0.2906
 5223W        W20840  15.640  14.731   5.014  0.0589  0.2752 -0.0033
 5224W        W20841   9.617  15.566   3.573  0.0263  0.3590 -0.0387
 5225W        W20842   9.247  14.684  13.725 -0.1481  0.1070  0.2146
 5226W        W20843   1.260  17.291  14.234 -0.0084  0.2190 -0.3950
 5227W        W20844  10.278   8.576  13.301 -0.0262  0.0838  0.2079
 5228W        W20845   1.547  10.446   2.985 -0.1603  0.1187 -0.3084
 5229W        W20846  15.420   8.956   1.999  0.1538 -0.3644  0.1048
 5230W        W20847   8.573   5.112   1.832 -0.1369 -0.3105  0.0704
 5231W        W20848  15.765  13.027  16.695  0.1155  0.1977  0.5222
 5232W        W20849   7.923   4.214  12.082  0.0899 -0.1902  0.2692
 5233W        W20850  17.244   1.917   2.640  0.2287  0.0496 -0.1129
 5234W        W20851  16.003  11.066  13.472 -0.0070 -0.2873  0.1712
 5235W        W20852   6.123  17.089  16.458  0.1644  0.3888 -0.0793
 5236W        W20853  16.937   1.140   3.816  0.0044  0.1713 -0.1516
 5237W        W20854   2.401  16.096  16.438 -0.2628  0.4473  0.0696
 5238W        W20855  14.318  17.476   1.298  0.0940 -0.3458  0.1311
 5239W        W20856   1.258   0.439   3.872  0.3693 -0.1243 -0.0076
 5240W        W20857   2.811   9.657   2.138 -0.2080  0.0151 -0.0166
 5241W        W20858  14.473  17.475  14.945 -0.5617  0.0762 -0.0365
 5242W        W20859   7.734  12.096   0.013 -0.2856 -0.0988  0.1520
 5243W        W20860  15.579   9.105   5.170  0.0098 -0.3791 -0.3149
 5244W        W20861  11.403   9.932  11.927 -0.2002 -0.1745 -0.2953
 5245W        W20862  16.729  12.714   3.958 -0.0558  0.0872  0.2458
 5246W        W20863  14.206  10.256   5.267 -0.0219  0.0431 -0.0562
 5247W        W20864   9.506  12.969   2.380  0.1809 -0.2877 -0.1730
 5248W        W20865  15.930  14.329   4.922  0.0989  0.1599  0.1286
 5249W        W20866   7.165   9.666  12.122 -0.0048  0.0477 -0.0294
 5250W        W20867   0.948   9.043   5.674 -0.0016 -0.0314  0.1536
 5251W        W20868   5.641  11.622   4.664  0.1720 -0.0674 -0.4424
 5252W        W20869   0.394  17.198  15.773  0.0134  0.1756  0.0071
 5253W        W20870  13.437   8.942  16.733 -0.1768 -0.1564 -0.0944
 5254W        W20871  10.480  15.013  10.931 -0.0222 -0.0819 -0.0703
 5255W        W20872  11.812   9.738   0.466 -0.1891  0.1823 -0.2687
 5256W        W20873  10.307  17.495   4.685  0.0111  0.1550  0.4190
 5257W        W20874  14.001   9.124   1.675 -0.1307  0.0106 -0.3080
 5258W        W20875   8.930  12.356   0.068 -0.0206 -0.0259 -0.2476
 5259W        W20876   0.057  17.492   0.832 -0.3976 -0.2421  0.4410
 5260W        W20877  10.001   6.641   5.265  0.1446 -0.0468  0.0411
 5261W        W20878  13.434  12.428   2.402  0.1437 -0.1262  0.2329
 5262W        W20879   6.154   4.964  14.940  0.0925 -0.2261  0.0076
 5263W        W20880   1.086  15.203  15.434  0.0211  0.2091 -0.1145
 5264W        W20881   7.959  15.907   4.947 -0.2219  0.2076 -0.0482
 5265W        W20882  14.057  14.090   3.035 -0.1178  0.1413  0.1118
 5266W        W20883   3.514  16.930   3.100 -0.1561 -0.2663 -0.0384
 5267W        W20884   7.952  17.835   0.609  0.1411  0.2881 -0.3361
 5268W        W20885   7.852  10.585   2.805  0.0479  0.0802 -0.0651
 5269W        W20886   5.255   0.358  12.232  0.4223  0.1611  0.1699
 5270W        W20887   8.386  10.255   2.398 -0.1591 -0.2116 -0.3199
 5271W        W20888   5.669   3.829   0.472 -0.1352 -0.0816  0.2938
 5272W        W20889   0.779  12.375   1.193  0.2410  0.1448 -0.1748
 5273W        W20890   2.920  12.960  14.736 -0.0680  0.1836  0.1279
 5274W        W20891   8.307  17.100  11.189 -0.1582 -0.0275  0.3591
 5275W        W20892  12.217  10.550   3.639  0.2775  0.1563  0.1218
 5276W        W20893   4.775  12.558  10.766 -0.0070 -0.2581 -0.2009
 5277W        W20894   8.000   1.258   4.294  0.3810 -0.1458 -0.0857
 5278W        W20895  13.459  12.259   3.865  0.4443 -0.1194 -0.1516
 5279W        W20896  11.694   0.377  12.412  0.1562  0.1469 -0.2283
 5280W        W20897  16.816   3.052  10.937  0.0489  0.2686  0.0601
 5281W        W20898   6.329   3.150  13.141  0.1139  0.2476  0.2615
 5282W        W20899   2.321   4.304   2.809 -0.1805 -0.1541 -0.1433
 5283W        W20900  16.714  11.245   1.541 -0.0276  0.0731  0.2091
 5284W        W20901   7.284  12.122   3.642  0.0743 -0.0700  0.0448
 5285W        W20902   6.613  12.244   4.972 -0.0386 -0.1743 -0.0958
 5286W        W20903  17.758  13.043   4.198  0.0594  0.2569 -0.1600
 5287W        W20904  17.664   8.910  11.977  0.1469 -0.1918  0.0021
 5288W        W20905  17.919   2.892   1.554  0.1932 -0.1076 -0.0688
 5289W        W20906   1.804  11.615   0.506  0.1226 -0.0305  0.0207
 5290W        W20907  16.898  13.486  15.299 -0.2163 -0.1889 -0.1532
 5291W        W20908   8.861  16.429   2.403 -0.0006  0.0859 -0.1753
 5292W        W20909   5.352   8.005  15.420 -0.3280  0.2227  0.2731
 5293W        W20910  11.545   4.626   1.949  0.1245 -0.2465  0.0092
 5294W        W20911   0.346   1.104   1.381  0.2873  0.0860 -0.0266
 5295W        W20912   6.139   0.449  15.761  0.1071 -0.2884 -0.0931
 5296W        W20913   6.004  16.632  16.350  0.0040  0.2155  0.0100
 5297W        W20914   4.652  14.481  15.390  0.1186  0.4034 -0.0015
 5298W        W20915  15.016  14.240  14.012 -0.2909 -0.0789 -0.2844
 5299W        W20916   8.753   6.284   2.771  0.1362 -0.0001  0.2663
 5300W        W20917  17.543   8.419   2.377  0.1003 -0.2657  0.2306
 5301W        W20918  16.206  16.590  14.212 -0.2158  0.3374  0.0443
 5302W        W20919  17.805   4.618   4.677 -0.0965 -0.0084  0.2211
 5303W        W20920   1.247  16.140   5.928 -0.1057  0.0361  0.1527
 5304W        W20921  14.514   3.176  12.053  0.1469  0.1751  0.0886
 5305W        W20922  17.400  12.499   2.732  0.1166  0.0818  0.1731
 5306W        W20923   5.210  17.150   4.263  0.0450  0.2041 -0.0526
 5307W        W20924   3.995  11.466  13.404 -0.0952 -0.0584  0.1144
 5308W        W20925  16.722   3.919   5.357 -0.3669 -0.0526 -0.3792
 5309W        W20926  13.928   5.191  12.428  0.3033 -0.0886  0.0037
 5310W        W20927  17.441  15.397   1.002  0.0726  0.2407 -0.2865
 5311W        W20928  17.831  14.350  11.661 -0.2234  0.1371 -0.1058
 5312W        W20929  11.107   5.509  15.665  0.1399 -0.2392 -0.1444
 5313W        W20930  16.354   9.173   1.134  0.0355  0.2300  0.1454
 5314W        W20931  16.935  14.543   1.087 -0.0481 -0.1530 -0.1460
 5315W        W20932   6.915  11.947  13.215 -0.0397 -0.0000 -0.1918
 5316W        W20933  14.495   9.983  12.654  0.0295 -0.4744  0.0897
 5317W        W20934   7.390  11.559  16.468  0.4901 -0.3453 -0.0896
 5318W        W20935  11.296  12.175  14.855  0.1151 -0.0344  0.1057
 5319W        W20936   9.773  15.175  14.547  0.2001  0.1279  0.0296
 5320W        W20937   1.789  17.959   0.752 -0.3125 -0.2046 -0.1172
 5321W        W20938  11.518   7.495  11.709  0.1000 -0.2066 -0.0594
 5322W        W20939   5.080   4.259   3.382  0.0841  0.3845 -0.0315
 5323W        W20940  15.618  14.882  14.644 -0.1191  0.0292 -0.2208
 5324W        W20941   8.192   6.713  14.870  0.1187 -0.1398 -0.0939
 5325W        W20942   7.040  14.686   2.067  0.1133 -0.0415  0.2995
 5326W        W20943   9.964  17.642  16.198  0.2203  0.1535  0.0441
 5327W        W20944   7.574  13.016   5.486 -0.0474 -0.0939 -0.1561
 5328W        W20945  10.906   5.144  12.037 -0.0915  0.0371  0.1712
 5329W        W20946   2.420   6.803  11.248 -0.0673 -0.0293  0.3145
 5330W        W20947   6.165   3.980  16.428 -0.0549  0.0230 -0.0848
 5331W        W20948  17.892  13.340   1.350 -0.1076  0.1988  0.1320
 5332W        W20949  10.474   3.070   5.603 -0.3873  0.1498 -0.1923
 5333W        W20950  15.388   3.617  15.405  0.0100  0.0398  0.1389
 5334W        W20951   8.790  14.545   1.142 -0.0063 -0.1203  0.1138
 5335W        W20952   8.310   9.433  13.289  0.1724  0.2440  0.0621
 5336W        W20953   9.106   4.241   5.669  0.0856  0.4169 -0.0394
 5337W        W20954  15.153   6.576  11.755  0.2456 -0.3474  0.1667
 5338W        W20955   1.173  15.545  11.388 -0.0811  0.0797  0.2127
 5339W        W20956  12.291   0.540  11.599  0.1829 -0.0097  0.1996
 5340W        W20957   4.021  14.069   3.689  0.1088  0.2230  0.0861
 5341W        W20958   0.003   4.871   1.304 -0.1436 -0.1477  0.6211
 5342W        W20959  16.335  15.663   5.746 -0.1588  0.0641  0.0200
 5343W        W20960   9.219  16.749   2.185  0.2528  0.0143  0.0034
 5344W        W20961  13.504   2.048   1.286 -0.0481  0.0670 -0.0256
 5345W        W20962  15.252   0.834   1.007 -0.0912  0.0489  0.1442
 5346W        W20963   3.453  13.546   2.037  0.1461  0.2287  0.1689
 5347W        W20964   5.025   2.800  15.822 -0.0065 -0.1382 -0.1126
 5348W        W20965   6.893  11.445   0.728 -0.0064  0.0928  0.1636
 5349W        W20966  17.428  18.016  13.851 -0.1126  0.1864  0.0517
 5350W        W20967   8.073   0.756  13.402  0.1944  0.1646 -0.0343
 5351W        W20968  13.684  17.509  12.676 -0.3065  0.1518  0.0570
 5352W        W20969   6.151   1.179  14.182  0.2655  0.2333  0.1810
 5353W        W20970  15.945  12.491   0.543 -0.1080  0.1426  0.3212
 5354W        W20971   7.181  17.991   5.049  0.3614  0.0624 -0.3365
 5355W        W20972   2.578  10.004  14.330  0.1135 -0.1688  0.0454
 5356W        W20973   3.942   6.973   1.938  0.2679 -0.2486  0.2634
 5357W        W20974  16.996   8.478   1.136 -0.1858 -0.0315 -0.0700
 5358W        W20975   0.840   9.234  15.161  0.4176  0.1444  0.1761
 5359W        W20976   2.904  12.759   2.329  0.0306  0.1931  0.0167
 5360W        W20977  10.272   2.740  14.023 -0.1851  0.3692 -0.0067
 5361W        W20978  10.283  10.495   1.863 -0.1326 -0.1351 -0.0888
 5362W        W20979   9.743   9.487   3.314 -0.1419  0.0222 -0.1794
 5363W        W20980   8.486   6.101   3.411 -0.2622 -0.1112 -0.2767
 5364W        W20981  16.574   8.795  14.868  0.1791 -0.1031 -0.2101
 5365W        W20982  16.601   6.259  11.829  0.0876 -0.1107 -0.1748
 5366W        W20983   9.578   6.991   0.802  0.0444  0.0865 -0.0859
 5367W        W20984   1.598  10.583   4.397 -0.0308 -0.0479 -0.0474
 5368W        W20985   6.224   0.228  14.601 -0.1883  0.0907 -0.3115
 5369W        W20986   2.640   9.816   0.613 -0.2054 -0.1896 -0.1826
 5370W        W20987   9.514  11.360   1.301 -0.0996 -0.0077  0.1881
 5371W        W20988  17.246  12.424  11.913  0.1495  0.2857  0.1032
 5372W        W20989   4.256  13.428  12.686 -0.0190  0.0518 -0.3162
 5373W        W20990   5.553   5.597   3.713 -0.2944  0.0723 -0.0115
 5374W        W20991   1.485   7.755   5.657 -0.2314 -0.0708  0.2792
 5375W        W20992   5.191  16.722  11.657 -0.0740 -0.0811 -0.1933
 5376W        W20993   7.582   1.849   3.145 -0.1061  0.3095 -0.0214
 5377W        W20994  11.501   1.133  15.984  0.1105 -0.1595 -0.2076
 5378W        W20995   7.791   2.481   1.212 -0.3658 -0.1107 -0.0841
 5379W        W20996  12.655  16.946  16.237 -0.1868 -0.1450 -0.1937
 5380W        W20997  12.916   9.105   5.056  0.1037  0.1761  0.1993
 5381W        W20998   5.191   7.625  11.872  0.0131 -0.0589 -0.1627
 5382W        W20999  10.088   6.857  14.185 -0.2434 -0.0406  0.1419
 5383W        W21000  12.970   5.709  13.245  0.1060  0.2583 -0.0527
 5384W        W21001   0.757   6.445   4.490 -0.1128  0.0619 -0.1105
 5385W        W21002   1.706   2.316   3.008  0.1182 -0.0078 -0.1747
 5386W        W21003  14.008   5.227  16.467  0.2329  0.3264  0.0170
 5387W        W21004   7.753   6.886  13.951  0.0395 -0.0010 -0.2676
 5388W        W21005  16.792   8.647  15.586  0.0715  0.1640 -0.1837
 5389W        W21006   9.121   7.054   4.269 -0.3399  0.0754 -0.2898
 5390W        W21007   7.289  17.969   0.124 -0.2862  0.1837 -0.2172
 5391W        W21008   1.853  10.802   5.440 -0.2342  0.0921  0.1672
 5392W        W21009   0.623   9.373  10.453  0.0239 -0.2547 -0.4103
 5393W        W21010  16.385   9.591   2.270 -0.0607 -0.0313 -0.0147
 5394W        W21011   2.024  12.796  16.134 -0.1554  0.2164  0.1101
 5395W        W21012   4.250  17.175   4.217 -0.0709  0.3210  0.2118
 5396W        W21013   4.731   0.131  15.758  0.1129 -0.0701 -0.3116
 5397W        W21014   5.254  14.999  12.990  0.2473  0.0851 -0.3172
 5398W        W21015  13.948   2.737   5.663 -0.0034  0.3219 -0.0518
 5399W        W21016  17.792   2.666  12.787  0.1574  0.2646 -0.1386
 5400W        W21017   6.703   2.116   2.705 -0.0296 -0.0224  0.2785
 5401W        W21018  14.125  11.535  12.600  0.0443 -0.0421 -0.1313
 5402W        W21019   7.974  13.350  14.792 -0.1257  0.2144 -0.1197
 5403W        W21020  14.949   1.803   5.143  0.2380 -0.0628 -0.1640
 5404W        W21021  16.696  11.431   4.467 -0.3782  0.0148 -0.0785
 5405W        W21022   6.858   7.276  15.941 -0.0008 -0.0577 -0.2668
 5406W        W21023  14.962  10.773  13.906  0.1866 -0.0857  0.1096
 5407W        W21024  16.413   1.826   2.862 -0.1036 -0.4550 -0.0725
 5408W        W21025   5.403   6.285  12.078  0.2136  0.3462 -0.0826
 5409W        W21026   9.212  11.511  13.264 -0.1277 -0.0959 -0.0613
 5410W        W21027   8.587  10.232  15.084  0.2677 -0.2989 -0.1833
 5411W        W21028   5.179   1.023  16.067 -0.2172  0.2922 -0.1008
 5412W        W21029   9.133   3.099  13.022 -0.1689  0.0156 -0.0751
 5413W        W21030   7.105  16.270   4.507  0.0092  0.3266  0.2106
 5414W        W21031  17.689  15.793   4.975 -0.2481 -0.0824  0.2892
 5415W        W21032  16.541  12.485  10.749  0.3763  0.1012 -0.4217
 5416W        W21033   0.767   5.801   0.949 -0.1823  0.0136 -0.0915
 5417W        W21034   8.086   7.541  12.713  0.0755 -0.1173 -0.1014
 5418W        W21035  13.031   5.998   0.388  0.0972 -0.0776  0.2814
 5419W        W21036   8.309  10.624   3.679  0.2808 -0.0510  0.0883
 5420W        W21037  11.858  17.185   4.503 -0.2916  0.0958 -0.0546
 5421W        W21038   7.788   1.152  13.560 -0.1549  0.0218  0.0592
 5422W        W21039   9.041  12.987   3.438  0.0292 -0.2309  0.0086
 5423W        W21040   0.191  17.903   3.555 -0.1741 -0.2200  0.0672
 5424W        W21041  11.436   5.330  14.340 -0.4117  0.0198 -0.0949
 5425W        W21042  16.215  11.395  16.661  0.4058  0.1575  0.1469
 5426W        W21043   3.228   8.605   1.151 -0.1880 -0.0140  0.1746
 5427W        W21044   6.068   5.884   0.436  0.0928  0.0373 -0.0259
 5428W        W21045   2.368   0.164  13.369 -0.2166 -0.0504 -0.0196
 5429W        W21046   0.493   9.543  14.071 -0.0050 -0.1212 -0.2344
 5430W        W21047   5.274   3.041   1.487 -0.1644 -0.1292  0.0265
 5431W        W21048  12.751   6.460   0.363 -0.0735  0.1338  0.0437
 5432W        W21049  16.928  14.372  14.706 -0.1111 -0.0965  0.1377
 5433W        W21050   6.789  14.408   4.966 -0.0753 -0.0342  0.1491
 5434W        W21051  16.643  15.983   2.457  0.2049  0.0338 -0.3204
 5435W        W21052   0.354   9.194  11.841  0.0372 -0.1049  0.2539
 5436W        W21053   1.899  10.454  12.320  0.1549  0.2534  0.5210
 5437W        W21054  10.162  13.318  13.730 -0.0373  0.1374 -0.1991
 5438W        W21055   5.558   3.974  15.164 -0.0584  0.3403  0.0861
 5439W        W21056   2.263   0.439   5.107  0.4585 -0.1396  0.0624
 5440W        W21057   8.882   3.785   0.710 -0.1537  0.4260 -0.3722
 5441W        W21058  17.005  13.532   4.619 -0.0855 -0.0058  0.0868
 5442W        W21059  11.081   9.668   5.994 -0.0388 -0.2427 -0.0760
 5443W        W21060  14.573  15.663   4.032  0.4613  0.1719 -0.0410
 5444W        W21061   3.523   4.775  16.573 -0.0270 -0.0538  0.0795
 5445W        W21062  12.717  12.400  16.675 -0.1608  0.0808 -0.0656
 5446W        W21063  15.559   8.956  11.598  0.1646  0.1007 -0.0964
 5447W        W21064  10.095  17.565   2.723 -0.2679 -0.1779 -0.0869
 5448W        W21065   4.427  14.037  16.264  0.0931 -0.0133 -0.2701
 5449W        W21066   1.243   3.899  13.783  0.2610  0.0119  0.1727
 5450W        W21067   8.946  16.776  13.569 -0.1287 -0.3116 -0.1917
 5451W        W21068   9.895   2.448   0.547 -0.1391  0.0094  0.0734
 5452W        W21069  11.333   2.895  16.346 -0.4942 -0.0792 -0.0270
 5453W        W21070  11.767  11.268   2.558  0.1800  0.3234  0.0876
 5454W        W21071  14.193   6.333   2.667  0.2713  0.1679  0.0550
 5455W        W21072  14.164   8.267  13.507  0.0224 -0.0241  0.0868
 5456W        W21073  14.028  14.715   0.024  0.0020 -0.2465  0.1305
 5457W        W21074   5.181  15.931   1.929 -0.0491 -0.3265  0.0998
 5458W        W21075  11.660  13.428   4.834 -0.0100 -0.2217  0.0195
 5459W        W21076   1.082  13.533  13.753 -0.2189 -0.0602 -0.2378
 5460W        W21077  12.693  10.600   1.328 -0.1514  0.0583 -0.1064
 5461W        W21078   3.191  17.381  13.497 -0.1501  0.0645 -0.1557
 5462W        W21079   1.054  13.070  14.676 -0.0908 -0.1536  0.1358
 5463W        W21080   3.777   8.061   0.967  0.2148 -0.3020 -0.0276
 5464W        W21081  10.703  10.001  15.018 -0.0820  0.0843  0.1388
 5465W        W21082   4.737   7.506   1.796 -0.3779 -0.3425  0.2082
 5466W        W21083  13.106   1.518  14.457 -0.3062 -0.3079  0.3083
 5467W        W21084   6.575   9.405   2.743 -0.1058 -0.2184  0.2131
 5468W        W21085   1.406  14.425  15.571  0.0262 -0.2376  0.0423
 5469W        W21086  14.231   8.947   6.336  0.0673 -0.0254  0.1441
 5470W        W21087  10.314   6.879  15.956  0.0204 -0.1168  0.0361
 5471W        W21088  16.541  13.291   3.336 -0.0277  0.1724  0.0469
 5472W        W21089   2.483   3.566   4.562 -0.0699 -0.1593  0.2330
 5473W        W21090  12.317   0.262   4.033  0.2044  0.0604 -0.0522
 5474W        W21091  12.193   5.122   3.993  0.1588 -0.0401  0.2541
 5475W        W21092   3.541   9.510  15.305  0.1718 -0.1894 -0.1054
 5476W        W21093   9.326  13.986   4.894 -0.2090  0.0359  0.0324
 5477W        W21094  17.922   3.699  12.279 -0.2977 -0.2224 -0.1074
 5478W        W21095   2.635   3.068   3.328  0.1151  0.1160  0.0265
 5479W        W21096   7.173  14.111   2.871 -0.0249 -0.1638  0.0516
 5480W        W21097  16.226  12.519   0.993 -0.1330 -0.1070 -0.3390
 5481W        W21098   7.662  13.212  14.123  0.0835 -0.1211  0.1108
 5482W        W21099   3.090  12.476   5.638  0.0519  0.2905 -0.3586
 5483W        W21100   5.043  14.516   0.590  0.0425 -0.0616 -0.0187
 5484W        W21101  16.135  15.848  15.292  0.0625  0.0517 -0.0668
 5485W        W21102   2.515  10.715  16.478  0.0352 -0.1603 -0.1110
 5486W        W21103   5.051  12.540   3.052  0.3411  0.1995 -0.1339
 5487W        W21104   7.968   1.467   0.705  0.2820 -0.1816 -0.1363
 5488W        W21105  12.657   4.735  14.135  0.2611  0.0114  0.2587
 5489W        W21106  11.359  17.204  16.048 -0.0832  0.4098 -0.1831
 5490W        W21107   8.429   2.780  15.521  0.0794  0.0890 -0.0842
 5491W        W21108  15.168   3.061   5.579 -0.1336  0.1413 -0.1631
 5492W        W21109   4.399   1.315  12.031  0.1524  0.0639  0.0559
 5493W        W21110   1.844   9.861   1.556  0.1562  0.3064  0.0891
 5494W        W21111   6.011   3.484  13.307 -0.0625 -0.2481  0.2702
 5495W        W21112  13.369   6.232   2.139 -0.1459  0.0765  0.1199
 5496W        W21113  10.070  15.378  16.461  0.0280 -0.1381 -0.0793
 5497W        W21114  17.641  15.175  15.412  0.0641 -0.0678  0.1951
 5498W        W21115  13.314  17.774  12.448 -0.0776 -0.1599  0.1740
 5499W        W21116   5.058   1.615  15.270  0.1547 -0.2969 -0.1414
 5500W        W21117  10.238  14.191  15.139  0.1296 -0.0388 -0.3062
 5501W        W21118   2.738   5.832  11.534 -0.0282  0.2331 -0.2672
 5502W        W21119  12.531   9.400  11.453 -0.0825  0.1259 -0.0972
 5503W        W21120  17.624   1.213   0.975 -0.1055  0.0972  0.0236
 5504W        W21121   4.183   2.694   2.209  0.0904  0.0775 -0.4043
 5505W        W21122  18.028   5.339   0.612 -0.3055 -0.3428 -0.0049
 5506W        W21123  11.955   6.169  11.399 -0.0614  0.0346  0.0580
 5507W        W21124   2.747   4.471  15.044  0.0755 -0.0682 -0.0125
 5508W        W21125   5.411   0.172  15.024  0.0925  0.0770  0.0648
 5509W        W21126   9.122   1.768  13.872  0.0592 -0.2031  0.2888
 5510W        W21127  16.244   3.827  13.689  0.2419  0.0932  0.0477
 5511W        W21128  14.336  14.341   0.247  0.0346 -0.1723  0.5540
 5512W        W21129  12.077  17.066   3.020  0.0754 -0.1255 -0.0761
 5513W        W21130   9.423  13.788  14.088 -0.0649 -0.2100  0.0870
 5514W        W21131  15.575   3.951   1.735  0.2996  0.0513 -0.0641
 5515W        W21132   4.678  10.896   3.117  0.2197 -0.1570 -0.3212
 5516W        W21133   7.282   7.444   0.030  0.3470  0.0284 -0.2589
 5517W        W21134   7.876  17.905  14.565  0.0721  0.1511  0.1218
 5518W        W21135   3.418  15.294  16.645 -0.1862 -0.1405  0.3892
 5519W        W21136  17.048  15.565  16.789 -0.1345 -0.1458 -0.1156
 5520W        W21137   0.024  12.107   0.146 -0.0519 -0.0605 -0.0818
 5521W        W21138  12.302   8.973  11.504  0.3729  0.1122  0.0702
 5522W        W21139   9.480  14.728   4.130  0.0854  0.0155  0.3747
 5523W        W21140  16.077   4.904   5.658 -0.1389 -0.3711 -0.2921
 5524W        W21141   9.946   4.687   0.864 -0.1023  0.1103 -0.2217
 5525W        W21142   1.610   7.473   3.919 -0.0231 -0.1869 -0.2991
 5526W        W21143   9.154   3.980   1.859  0.0634  0.0391  0.0806
 5527W        W21144   6.148   1.940   2.105 -0.3899 -0.2652  0.0672
 5528W        W21145   4.630  14.878   5.626  0.1648 -0.0086 -0.1186
 5529W        W21146   9.300  16.494   0.877  0.0183 -0.0302  0.0553
 5530W        W21147  16.781  10.111   4.764  0.2421 -0.1603  0.0624
 5531W        W21148   2.569   4.510  13.251 -0.0854  0.1643 -0.0198
 5532W        W21149   6.044   2.599   1.123  0.1305  0.1729  0.2264
 5533W        W21150  10.932   3.562  13.249 -0.3463  0.1580  0.0747
 5534W        W21151   7.936  15.813  16.509 -0.0203 -0.0816 -0.0122
 5535W        W21152   4.771  15.958   6.061  0.0553 -0.0288  0.0082
 5536W        W21153   9.246  10.476  11.660 -0.0188 -0.0159 -0.0487
 5537W        W21154  14.119  12.450  12.367 -0.0156  0.0952 -0.2983
 5538W        W21155   1.018   0.757  14.520  0.2632  0.3483 -0.2785
 5539W        W21156  11.701   6.552   0.548 -0.1971  0.2444  0.0185
 5540W        W21157   6.512  14.192  15.689 -0.2781  0.2505  0.3000
 5541W        W21158  16.106   7.817   0.223 -0.1055 -0.2268  0.1095
 5542W        W21159   0.828  15.529   2.739  0.0644  0.3838  0.2375
 5543W        W21160  16.714   0.361  14.078 -0.3646 -0.0528  0.1365
 5544W        W21161  10.665  11.037  15.896 -0.0645 -0.2184  0.0822
 5545W        W21162   2.273  12.650   3.365 -0.1167 -0.2161  0.1648
 5546W        W21163   5.337  16.583   4.384  0.1326  0.1495 -0.1417
 5547W        W21164   5.385  10.978   1.291  0.2039  0.0076 -0.2677
 5548W        W21165   9.669   9.736  10.463  0.1323  0.1105  0.2573
 5549W        W21166   5.517   3.589  12.826  0.2224 -0.1064 -0.0839
 5550W        W21167  11.226   2.350   4.137 -0.2583  0.1200  0.2191
 5551W        W21168   7.237  13.311   0.683  0.0685 -0.0336  0.2607
 5552W        W21169   1.065  15.137  12.276 -0.0141 -0.2069  0.0239
 5553W        W21170  14.102  11.497  13.476 -0.1573  0.1230  0.2490
 5554W        W21171   7.317  15.431  15.081  0.0979 -0.0972 -0.1007
 5555W        W21172  13.824   6.944   0.624  0.0534 -0.1055  0.0236
 5556W        W21173   0.010  16.078   0.203  0.0152  0.2174 -0.1027
 5557W        W21174   2.120   4.577   1.998 -0.3350  0.2600  0.3616
 5558W        W21175   7.916  16.765   5.887 -0.1844 -0.1630  0.2679
 5559W        W21176  15.232   2.936   2.282  0.1392  0.1956  0.0355
 5560W        W21177  10.385  12.070  11.294  0.0678 -0.1491  0.0072
 5561W        W21178  12.181   2.975  14.176 -0.3449 -0.1219 -0.2263
 5562W        W21179   2.656  13.070  10.804  0.1243  0.2194  0.1882
 5563W        W21180  15.212   6.190   5.669  0.1421 -0.1889  0.1442
 5564W        W21181  16.545  10.716   0.816 -0.2299 -0.1506  0.1019
 5565W        W21182   7.660   3.372   0.507 -0.2741 -0.0612 -0.4180
 5566W        W21183   6.279   2.132  12.326  0.0721 -0.3322  0.0132
 5567W        W21184   6.755  13.069  12.945  0.1711 -0.2378  0.0290
 5568W        W21185   8.175  11.645   5.508  0.1167 -0.1272 -0.2820
 5569W        W21186  17.720   5.466   4.296  0.2367 -0.1113  0.1764
 5570W        W21187   5.472   3.649  16.295  0.1093  0.1061 -0.2022
 5571W        W21188   3.715   0.881  14.714 -0.3632  0.2480 -0.0527
 5572W        W21189   5.982   4.287   3.655 -0.1189  0.0492  0.0259
 5573W        W21190   7.049  12.303   0.138  0.1040  0.0123  0.1868
 5574W        W21191   4.768   9.809  11.344  0.4143  0.0084  0.1152
 5575W        W21192   5.111  15.465   2.629 -0.0067 -0.1336  0.1412
 5576W        W21193   3.289  13.959  14.110 -0.1750  0.0677  0.2161
 5577W        W21194   4.988   2.952   4.732 -0.0627  0.2312  0.0941
 5578W        W21195  14.799   6.585  12.557  0.0317 -0.0979 -0.0501
 5579W        W21196   1.103   7.438   5.571 -0.1265 -0.5187  0.0628
 5580W        W21197   2.973   6.538   6.096  0.2081  0.0394 -0.0151
 5581W        W21198   1.037   3.051  13.871 -0.0230 -0.1085 -0.0061
 5582W        W21199   4.086  17.863  16.190  0.0480  0.0239 -0.0088
 5583W        W21200   3.827   9.161  11.639 -0.1147 -0.1075  0.1108
 5584W        W21201   7.860   2.399  12.338  0.1012 -0.0417  0.4222
 5585W        W21202  12.292   8.410  12.186  0.0719 -0.0427  0.0480
 5586W        W21203   1.642  10.181   6.099 -0.2975 -0.0284  0.0552
 5587W        W21204  14.143  12.326  13.474 -0.0592  0.0620 -0.0899
 5588W        W21205   9.305   4.136  16.601  0.0368 -0.0479 -0.1414
 5589W        W21206  13.308   6.920   4.944  0.1888 -0.0186 -0.0513
 5590W        W21207  10.813   2.391  14.781  0.1458 -0.1387 -0.3413
 5591W        W21208  11.857  14.200  14.127 -0.1100 -0.1565  0.0427
 5592W        W21209   1.305   0.357   4.416 -0.0047 -0.0308 -0.1511
 5593W        W21210  10.298   5.797  12.287  0.1552  0.0719 -0.2404
 5594W        W21211   4.106  12.972   2.977  0.1929  0.1677 -0.0288
 5595W        W21212  14.921  16.865  13.034 -0.0517  0.1874  0.0971
 5596W        W21213   3.428   9.450  14.264 -0.0234  0.1814 -0.1105
 5597W        W21214   3.263   4.836  13.789  0.0415  0.0698 -0.2217
 5598W        W21215  11.134   4.443  15.144  0.2589 -0.0497  0.1909
 5599W        W21216  11.859   3.826   5.227 -0.0514  0.0777  0.2089
 5600W        W21217  15.753  16.197  15.778 -0.2274 -0.0646  0.1735
 5601W        W21218   2.555   3.619  15.613 -0.2303 -0.1726 -0.2174
 5602W        W21219  13.293   6.901   3.897  0.0306 -0.0302 -0.1991
 5603W        W21220   4.481  16.801  12.958  0.0257 -0.2232  0.3129
 5604W        W21221  16.798  12.061   0.672  0.1414  0.0105 -0.2513
 5605W        W21222  15.835  12.136   0.841 -0.2126  0.0991 -0.0651
 5606W        W21223   5.528  12.915   0.032 -0.1109  0.0661 -0.3488
 5607W        W21224   4.177  14.273   2.084  0.1144 -0.0280  0.1652
 5608W        W21225   1.432   5.487   2.903 -0.1262  0.0677 -0.3997
 5609W        W21226  14.493   2.504   1.200  0.1232 -0.0057  0.1676
 5610W        W21227   9.476   1.094   2.284  0.1703 -0.1033  0.1794
 5611W        W21228   2.856  10.124   1.362 -0.2463  0.1198  0.1912
 5612W        W21229  14.258   4.967  14.646  0.0017  0.0649  0.2458
 5613W        W21230  15.738   6.775  16.506 -0.3211  0.1833 -0.0033
 5614W        W21231  15.199   3.595  16.745  0.1872 -0.0582 -0.0500
 5615W        W21232   2.940   4.462  15.658 -0.3045 -0.1213 -0.2667
 5616W        W21233  14.143   2.968  12.394  0.1330 -0.0799 -0.2437
 5617W        W21234   9.344   0.386  14.792 -0.1310  0.4527  0.2266
 5618W        W21235   0.811  12.110   4.605  0.1398 -0.4106  0.2565
 5619W        W21236   4.143   3.276  15.430 -0.1368  0.0549 -0.0375
 5620W        W21237   3.796   8.832  13.108 -0.1197 -0.1739 -0.0110
 5621W        W21238   1.205   0.547  11.979 -0.1345 -0.0779 -0.0777
 5622W        W21239   9.135  11.037   2.805  0.0188 -0.2546  0.0699
 5623W        W21240   8.198   2.577  16.575  0.3257  0.0020  0.2692
 5624W        W21241  15.512   6.720  15.225  0.1044 -0.3356 -0.2281
 5625W        W21242  15.929   5.566  14.614 -0.2450  0.2405  0.0932
 5626W        W21243   9.518  12.136   3.576 -0.0867 -0.0151 -0.1758
 5627W        W21244  11.703   4.094   1.977  0.0471  0.1439 -0.0473
 5628W        W21245  15.974  14.719   4.044  0.0968 -0.0047  0.0299
 5629W        W21246   7.179  14.642   3.618  0.0238 -0.1746 -0.2960
 5630W        W21247   9.023   9.399  16.751  0.0365 -0.2350  0.1217
 5631W        W21248   0.961   7.659  14.987 -0.0438  0.2148 -0.1455
 5632W        W21249  12.937   3.689   4.580 -0.0648  0.3028 -0.2123
 5633W        W21250  10.697   6.235   4.952  0.1282  0.4583 -0.3542
 5634W        W21251  12.271  17.912  15.474  0.2692  0.2314 -0.2859
 5635W        W21252  13.612  10.831  14.062 -0.0105  0.0372 -0.2071
 5636W        W21253  16.789   1.475   4.266 -0.3745  0.2499  0.1178
 5637W        W21254   1.211   7.894   4.914  0.0035 -0.0116 -0.0432
 5638W        W21255   2.422   1.135   5.743 -0.0116 -0.1140 -0.1120
 5639W        W21256   7.920  16.431   2.099 -0.1142 -0.1187  0.2460
 5640W        W21257  12.597   5.733   2.131 -0.1600  0.0805 -0.0324
 5641W        W21258   1.967   9.043   1.053  0.2070 -0.0255 -0.0100
 5642W        W21259  16.482   4.134  16.542  0.1802 -0.0144  0.1409
 5643W        W21260   7.273  16.573  14.356  0.2981 -0.2648  0.2026
 5644W        W21261   4.157   8.208  14.261 -0.2042 -0.1697 -0.1534
 5645W        W21262   6.716  10.164   5.112  0.0916  0.1528  0.0047
 5646W        W21263  16.265  10.553   5.523  0.0077 -0.3108 -0.2707
 5647W        W21264   2.741   3.718  12.993  0.2200 -0.0248 -0.0461
 5648W        W21265   6.657   0.018   3.818 -0.1621 -0.2919  0.3589
 5649W        W21266   1.271  17.780  14.235 -0.0708 -0.1320 -0.1171
 5650W        W21267  17.541   0.354   0.699  0.0268 -0.0380 -0.0925
 5651W        W21268  12.184   2.174   5.405 -0.1639 -0.1772  0.2078
 5652W        W21269  17.448   4.534  13.572 -0.0012  0.2870 -0.0854
 5653W        W21270  16.020  12.816  15.140  0.3802 -0.2061 -0.0079
 5654W        W21271  13.771  15.581   3.063  0.0366  0.2410 -0.0367
 5655W        W21272   2.673  10.547  12.884  0.2233 -0.2451 -0.1154
 5656W        W21273   4.969  14.046  16.246  0.0668 -0.3950  0.1957
 5657W        W21274   7.594  11.142   0.584 -0.0848 -0.0164 -0.1109
 5658W        W21275   8.448  10.527   1.636 -0.0692  0.0883  0.0003
 5659W        W21276   0.012   4.242  14.746  0.1144  0.3372  0.3616
 5660W        W21277   2.273   9.781  16.362 -0.0236 -0.1089 -0.3488
 5661W        W21278  12.451   2.714   0.081  0.0551 -0.2502  0.3122
 5662W        W21279   5.011   5.358   4.531 -0.2692 -0.0088  0.1290
 5663W        W21280  13.122   8.525  11.896 -0.2498 -0.0468 -0.0716
 5664W        W21281  15.429  14.971   4.277  0.1550 -0.2831 -0.1205
 5665W        W21282  11.510  11.237  12.872 -0.0796 -0.0018 -0.1958
 5666W        W21283   8.758  18.035   5.725  0.1093  0.1683 -0.1420
 5667W        W21284   6.554  12.185   3.363  0.2013 -0.5012 -0.0274
 5668W        W21285   5.082  12.214  15.069 -0.3609  0.1241 -0.2623
 5669W        W21286  17.463   1.169   1.989 -0.1130 -0.1414 -0.2299
 5670W        W21287  16.612  12.537  13.465 -0.1659  0.1129 -0.2588
 5671W        W21288  12.042   2.973  15.822  0.1373  0.2932  0.2466
 5672W        W21289   8.795   1.132   4.867 -0.0612 -0.2625 -0.0311
 5673W        W21290  17.010  13.187   1.102 -0.3903  0.1240  0.1155
 5674W        W21291   6.927   3.762   0.781  0.2787 -0.0633  0.0639
 5675W        W21292   9.915   0.316   2.218  0.0502  0.1601  0.2025
 5676W        W21293  11.824  10.360   0.299 -0.1908  0.2290 -0.0011
 5677W        W21294  11.691   2.924   2.971 -0.2534  0.0179 -0.3638
 5678W        W21295  13.491  10.361  13.946 -0.1887  0.1004 -0.1356
 5679W        W21296   9.841  12.935  12.284 -0.0595  0.2374 -0.3601
 5680W        W21297  15.913   4.932   2.787  0.1428  0.2953 -0.2488
 5681W        W21298   1.195  11.036  11.923 -0.1839 -0.0990  0.3544
 5682W        W21299  14.324   8.890   5.235 -0.2700  0.1334 -0.2978
 5683W        W21300   6.794  17.545   5.928  0.1635 -0.0200 -0.1570
 5684W        W21301   2.702  11.172  14.567  0.1365  0.1006 -0.0415
 5685W        W21302   2.076  10.325   5.344 -0.1211  0.0141  0.0371
 5686W        W21303   5.270  17.909  12.134  0.0165  0.4939 -0.0175
 5687W        W21304  12.914  15.902   5.213  0.0305  0.0087 -0.2705
 5688W        W21305  10.735   4.716   4.229 -0.1938 -0.0705  0.3230
 5689W        W21306   7.558   5.711  13.726  0.0898  0.0943 -0.0180
 5690W        W21307  14.461  16.080   3.436  0.2217 -0.2370  0.1596
 5691W        W21308  14.968  14.222   1.234 -0.0641 -0.0546 -0.0195
 5692W        W21309   7.480   0.387   4.117  0.2085  0.1201  0.0459
 5693W        W21310  12.446   1.484   2.785 -0.0946  0.0310 -0.0710
 5694W        W21311   3.256  11.260   6.446  0.3369  0.1676  0.0270
 5695W        W21312   2.216  14.801   1.389 -0.0667 -0.0686 -0.0205
 5696W        W21313   2.865  17.774  14.972  0.0966  0.0665 -0.0577
 5697W        W21314   7.997   1.095   5.649 -0.2650 -0.0989 -0.0234
 5698W        W21315  10.362  17.386  15.081  0.1058  0.0897 -0.3013
 5699W        W21316   9.533   7.404   5.670 -0.1393  0.0827  0.1394
 5700W        W21317  13.023  10.262  13.910  0.0231 -0.3896 -0.3371
 5701W        W21318  13.931  13.507   3.601 -0.1158  0.0533  0.0095
 5702W        W21319   3.788   7.284   1.564  0.0121  0.3944  0.3212
 5703W        W21320   1.640  16.415  12.843 -0.1035  0.0539 -0.2593
 5704W        W21321   3.980   2.484   1.501 -0.1488  0.0001  0.1047
 5705W        W21322  10.750   0.602   3.203 -0.0083 -0.3088 -0.1473
 5706W        W21323   9.389   4.640  10.667  0.0355 -0.0706 -0.1485
 5707W        W21324   4.488   6.006   0.232  0.1404 -0.1010 -0.1491
 5708W        W21325  10.150   3.882   4.379  0.1117  0.0670  0.1318
 5709W        W21326  13.943   0.988   1.798  0.0308 -0.1177  0.6467
 5710W        W21327  14.237   8.685   0.409  0.0144 -0.0279 -0.0789
 5711W        W21328   5.393  16.812  13.347 -0.2248 -0.2882  0.0715
 5712W        W21329   2.755  16.319   4.432  0.1400 -0.0292 -0.4472
 5713W        W21330   9.424  15.384   2.040  0.2141 -0.0558 -0.2288
 5714W        W21331  11.342  14.303  13.675 -0.1205  0.0640 -0.1558
 5715W        W21332  18.003  12.963  16.785  0.0785 -0.0804  0.0714
 5716W        W21333  11.176  10.236  14.969 -0.0125 -0.0038  0.1215
 5717W        W21334  15.812   4.737  16.007  0.0371 -0.1764  0.1701
 5718W        W21335   1.382   4.458   1.455 -0.1922  0.0926  0.0477
 5719W        W21336  14.704  12.051   4.284 -0.0787  0.0791  0.0203
 5720W        W21337   4.575  17.017   5.165  0.2453 -0.0545  0.1524
 5721W        W21338   7.268   1.468   3.056  0.0704  0.1437 -0.1928
 5722W        W21339   6.917   6.654   1.054  0.0927 -0.3653  0.3510
 5723W        W21340  10.971  14.066  13.278 -0.1578 -0.4810  0.0269
 5724W        W21341  17.434  15.128  14.625 -0.0161  0.0864  0.0853
 5725W        W21342  16.196  14.942   5.868  0.4808 -0.0712  0.1248
 5726W        W21343   8.078  12.554  11.611  0.0828  0.2094 -0.1135
 5727W        W21344   0.984  16.929   1.746 -0.0873  0.1611 -0.2559
 5728W        W21345   7.438  17.700   1.468  0.3414  0.1689 -0.1394
 5729W        W21346  17.159  13.630  14.205 -0.1112  0.2064 -0.0777
 5730W        W21347  12.280  10.129  16.163 -0.0738  0.3287  0.0893
 5731W        W21348  10.151   8.779   1.687  0.1095 -0.0094  0.0946
 5732W        W21349   5.791  14.510  15.717 -0.1421  0.2263 -0.1773
 5733W        W21350   9.827  15.713  12.684  0.0031  0.1401  0.1486
 5734W        W21351   3.534   8.377  15.216  0.2837  0.6158 -0.2086
 5735W        W21352   4.082   5.346   1.932  0.2222 -0.2010  0.2018
 5736W        W21353  11.196  17.718   1.920  0.1708  0.1661  0.0658
 5737W        W21354   6.539   3.042  16.080  0.0218 -0.0387 -0.0330
 5738W        W21355   1.139  17.424  13.297 -0.0188  0.0007 -0.1486
 5739W        W21356   2.425   6.120   0.527  0.1903  0.1601 -0.0356
 5740W        W21357   3.121   9.472  12.648 -0.0085 -0.1932  0.0241
 5741W        W21358   6.127   4.852   5.624 -0.3724  0.0252  0.0041
 5742W        W21359  11.297   9.783  15.946  0.4005 -0.2987  0.1249
 5743W        W21360  17.925   1.475  15.818 -0.3249 -0.0496  0.0756
 5744W        W21361   1.180   9.195  12.151  0.0468 -0.0684 -0.3695
 5745W        W21362  10.773  11.252   1.364 -0.1349  0.1025  0.1851
 5746W        W21363   2.829  10.785  11.386 -0.2118  0.1787  0.0382
 5747W        W21364   5.768   0.830   1.275 -0.2517 -0.1224  0.1017
 5748W        W21365  15.633   8.463  11.466 -0.4924  0.0904  0.1847
 5749W        W21366   8.835   6.585  11.442 -0.0569  0.0945  0.2050
 5750W        W21367  11.947   8.782   4.128  0.1730 -0.1654 -0.1177
 5751W        W21368   9.931  14.224   3.520 -0.0179  0.1657 -0.1146
 5752W        W21369  11.305  15.783  15.188  0.1051  0.1684 -0.0991
 5753W        W21370  12.787   3.922   2.347 -0.1943  0.0476 -0.0487
 5754W        W21371  11.214   2.619   3.706  0.3232 -0.4288 -0.3293
 5755W        W21372   4.913   9.000   5.388 -0.3100  0.2957  0.0560
 5756W        W21373   9.389   8.047   3.557  0.0351 -0.0415  0.3210
 5757W        W21374  12.654  16.564  15.297  0.2352  0.2360 -0.0036
 5758W        W21375  14.295  17.213  10.772  0.3539 -0.4402 -0.3609
 5759W        W21376   6.388   2.687  13.198 -0.1927 -0.2127  0.0795
 5760W        W21377  12.740  16.545   0.210  0.4606  0.0123 -0.1120
 5761W        W21378   2.199   2.080   2.399  0.0581  0.1667  0.0391
 5762W        W21379   4.639  13.391  14.608  0.0912 -0.1440 -0.0726
 5763W        W21380   5.213  15.440   5.262 -0.2580 -0.0464  0.2186
 5764W        W21381   9.209  17.754   4.176  0.0771  0.0252 -0.1412
 5765W        W21382   8.810   9.954   1.194  0.0115  0.3072 -0.1145
 5766W        W21383   9.768   4.809   0.248 -0.1462 -0.0250 -0.1811
 5767W        W21384   1.626   8.771   2.597  0.0529 -0.1272 -0.0261
 5768W        W21385   3.521  14.340   4.039 -0.1626  0.1385  0.1127
 5769W        W21386   9.617   4.777  14.116  0.0824  0.0991  0.0603
 5770W        W21387   8.670   0.505  13.007 -0.1825  0.1040  0.2756
 5771W        W21388   9.930   1.931  16.321  0.0325 -0.0498  0.0815
 5772W        W21389   0.320   3.393   3.444  0.2236  0.0222 -0.2405
 5773W        W21390   4.252  16.035   4.307  0.1002 -0.0542 -0.1398
 5774W        W21391  16.398   0.937   3.956 -0.1385  0.1875 -0.1292
 5775W        W21392   5.903   1.768  12.389 -0.2687 -0.2733 -0.1031
 5776W        W21393  12.139  10.601   0.669 -0.0572  0.1695 -0.1727
 5777W        W21394  12.439  16.009   4.851  0.0478  0.1378  0.3887
 5778W        W21395   5.908   9.978   2.568  0.3267 -0.0409 -0.1468
 5779W        W21396   9.213  15.134   4.178 -0.0497  0.1288 -0.2813
 5780W        W21397  11.867   8.210   3.922  0.0654 -0.0076  0.1283
 5781W        W21398   2.750   6.079  13.472  0.0946  0.0199  0.2802
 5782W        W21399   6.115  11.715   1.720  0.0290 -0.0163 -0.0697
 5783W        W21400   6.882  12.243  12.760  0.2965 -0.1447 -0.1332
 5784W        W21401  14.773   4.277   2.580 -0.0802  0.1980 -0.2656
 5785W        W21402  13.759   5.183  11.118 -0.1219 -0.1702  0.1925
 5786W        W21403   3.592  17.389   2.301 -0.2548 -0.1375 -0.1769
 5787W        W21404   1.412   5.892  14.200  0.0244  0.0139 -0.1530
 5788W        W21405   5.170   3.105  12.148 -0.0504 -0.1015 -0.1411
 5789W        W21406   7.451   7.466   1.299 -0.0777 -0.0685  0.0298
 5790W        W21407   7.534  16.622   0.058 -0.1211  0.1895  0.1471
 5791W        W21408  14.198   9.179   3.767  0.0463  0.0282 -0.0811
 5792W        W21409   7.033   9.110  12.246 -0.0127  0.1444 -0.2625
 5793W        W21410   2.930  12.775  16.195  0.0561  0.3250  0.0599
 5794W        W21411  11.845   3.715   2.316  0.0860 -0.1057 -0.1271
 5795W        W21412   3.008   6.086   3.306 -0.3673  0.0694  0.0330
 5796W        W21413   0.554  12.373  14.166  0.0072  0.0421 -0.2060
 5797W        W21414   7.825   1.314   2.927 -0.1168 -0.1008  0.3356
 5798W        W21415  10.815  13.670   3.520  0.0761  0.2168 -0.0899
 5799W        W21416   6.349   7.304  14.421  0.1091 -0.2860 -0.0700
 5800W        W21417   2.925  10.030  15.600  0.0760 -0.0664  0.0965
 5801W        W21418  14.222   0.705   1.419  0.0822 -0.1176  0.1160
 5802W        W21419   0.933   3.861   2.777  0.1261 -0.0533 -0.2030
 5803W        W21420  17.711   6.838   0.986  0.1470 -0.2370 -0.0655
 5804W        W21421   0.891   3.646  16.544 -0.1680 -0.1669  0.1568
 5805W        W21422   3.614   2.560  12.562 -0.0403 -0.1320 -0.0974
 5806W        W21423   1.201   6.130  16.807  0.3111 -0.0111 -0.2423
 5807W        W21424   7.232   2.982  15.891 -0.0375 -0.0756  0.0917
 5808W        W21425   6.134   6.223   4.868 -0.0149  0.3571  0.1251
 5809W        W21426   7.691   3.271   2.349 -0.1537 -0.1719  0.0082
 5810W        W21427  15.918   7.648  16.613 -0.1300  0.0367 -0.1210
 5811W        W21428   3.866   6.265   0.728  0.2545  0.1191  0.1333
 5812W        W21429  10.996  11.971   0.559 -0.1043 -0.4193  0.0775
 5813W        W21430  15.123  16.024  14.437  0.2626 -0.0463  0.1031
 5814W        W21431  12.522  10.437  14.801 -0.1938  0.0213  0.0353
 5815W        W21432   9.515   7.564  12.747 -0.0696 -0.1045 -0.3804
 5816W        W21433   4.535   1.125  12.875  0.0618  0.2379 -0.0524
 5817W        W21434  17.440  11.242   1.137 -0.0759  0.1185  0.1895
 5818W        W21435  14.697  13.464   3.537  0.2741  0.2244 -0.2592
 5819W        W21436   1.055  17.133  15.210 -0.0498 -0.0101 -0.2329
 5820W        W21437  15.588   7.436   5.301 -0.2854  0.1562  0.2481
 5821W        W21438   1.481   5.311  13.328  0.0076 -0.0108  0.2411
 5822W        W21439   2.673  14.375  11.971 -0.0719  0.1710  0.1913
 5823W        W21440  10.513   0.440  16.674  0.3321 -0.1242 -0.0576
 5824W        W21441   2.246   6.940  15.842  0.1687 -0.1245  0.0618
 5825W        W21442  11.086   7.871   3.842 -0.1257  0.0932  0.5025
 5826W        W21443   4.399  11.209  12.285  0.1621 -0.3275 -0.1367
 5827W        W21444   7.499  17.292  11.514  0.0737 -0.0526 -0.4951
 5828W        W21445  11.361  10.279  12.998 -0.3137  0.0710  0.3112
 5829W        W21446  15.262  15.678  13.962 -0.1600  0.1227 -0.0927
 5830W        W21447   5.956   9.612   4.357  0.2310  0.1278 -0.1477
 5831W        W21448   8.887   7.385   1.875  0.0686  0.0592  0.0715
 5832W        W21449  17.359   3.376   3.384 -0.1262  0.0245 -0.1481
 5833W        W21450   7.661  10.537   6.096 -0.2478  0.1374  0.1126
 5834W        W21451  11.774  12.074  11.828 -0.0973 -0.0615  0.1339
 5835W        W21452   2.779   2.697  13.400  0.4671  0.2565  0.1099
 5836W        W21453   5.803  17.483  14.937  0.1074 -0.0097 -0.2146
 5837W        W21454   1.540   5.048  13.788  0.2231  0.1923  0.1061
 5838W        W21455   1.907  13.084   2.441 -0.1603 -0.0559 -0.4037
 5839W        W21456   9.058  12.796   2.380 -0.0658  0.0469  0.0320
 5840W        W21457  15.002   2.346  15.166 -0.3630 -0.0915 -0.0321
 5841W        W21458  17.302   4.922  14.098 -0.2980  0.0849 -0.0662
 5842W        W21459  13.916  17.101   1.494  0.1418  0.0423 -0.1219
 5843W        W21460   0.864   3.838  12.535  0.3438 -0.0026  0.1625
 5844W        W21461  15.803   3.247  15.074  0.1236 -0.2122 -0.2485
 5845W        W21462   8.288  13.041  11.345  0.1411  0.1929 -0.3207
 5846W        W21463   2.600   2.639   3.917  0.1720 -0.0868  0.4456
 5847W        W21464  14.902  17.561  15.760 -0.1836  0.0230  0.5431
 5848W        W21465   5.406  11.941  15.324 -0.0526 -0.2522  0.2940
 5849W        W21466  10.632   2.261   4.507 -0.1036  0.0613  0.3535
 5850W        W21467   7.744  14.406   4.919  0.0192  0.2042  0.0632
 5851W        W21468   0.852   3.112  13.323  0.0657  0.2276  0.0597
 5852W        W21469  15.512   0.159  13.566 -0.1144 -0.1803 -0.1022
 5853W        W21470   1.576   8.900  14.112  0.0868  0.1565 -0.0494
 5854W        W21471   3.056   0.686   3.995  0.2135 -0.0143  0.1054
 5855W        W21472   6.111  15.910  14.259 -0.2090  0.0667  0.2122
 5856W        W21473  16.703  10.700   4.168  0.0569  0.1453 -0.1306
 5857W        W21474   6.293  15.429  12.841  0.2320  0.0302 -0.1153
 5858W        W21475   0.068  15.963  11.391  0.1567  0.0511  0.0460
 5859W        W21476  13.006  16.295   1.428  0.2751 -0.2242  0.0981
 5860W        W21477   3.416  12.957   2.263 -0.0365 -0.0924 -0.0982
 5861W        W21478   1.722   2.966   4.551  0.2238 -0.2206  0.0794
 5862W        W21479  12.793   9.884   5.019 -0.0941 -0.1438  0.0861
 5863W        W21480   7.317  12.670   1.898 -0.0046  0.0959 -0.2223
 5864W        W21481   1.952   6.511   3.719 -0.4067 -0.0271 -0.1447
 5865W        W21482   3.140   4.761  15.199  0.2816 -0.0918 -0.2294
 5866W        W21483   4.814   9.781  14.126 -0.0792  0.1836 -0.1607
 5867W        W21484  12.955   0.800   1.492 -0.0622 -0.1353 -0.1626
 5868W        W21485   3.403   2.908   6.377 -0.0561 -0.2829  0.0527
 5869W        W21486  16.430   0.247  12.775  0.0857 -0.0096  0.2310
 5870W        W21487  11.211  15.107   1.965  0.0075  0.2217 -0.1854
 5871W        W21488  16.741  11.482  15.057 -0.0010 -0.2550  0.2039
 5872W        W21489  16.680  16.079   0.860 -0.1433  0.1721  0.2486
 5873W        W21490   0.665   3.876   4.100 -0.0903 -0.2263  0.2149
 5874W        W21491   7.298   6.775  15.181  0.4713 -0.2198  0.1572
 5875W        W21492   5.986  16.944   4.941 -0.2955 -0.1307  0.1152
 5876W        W21493   1.819   4.715   2.757 -0.2649 -0.1082 -0.0491
 5877W        W21494  11.078  17.034   4.934  0.2076 -0.0100  0.1780
 5878W        W21495   9.038   2.829   4.982 -0.1254  0.2157 -0.0930
 5879W        W21496  14.287   6.375  11.709  0.0387  0.2067 -0.0241
 5880W        W21497  13.879  11.143   4.226 -0.1328  0.0242  0.3630
 5881W        W21498  14.933  13.003   1.766  0.3610 -0.0737  0.1120
 5882W        W21499   3.809   4.867   1.788  0.2449 -0.1849 -0.0583
 5883W        W21500   1.801   3.316   2.869 -0.1825 -0.0467  0.1870
 5884W        W21501   6.885  15.875  15.636 -0.0813 -0.2409  0.2934
 5885W        W21502  11.772  12.658  12.013 -0.0717  0.0721  0.1040
 5886W        W21503  10.131  14.089  16.023  0.1358  0.0341 -0.2583
 5887W        W21504  11.230  11.503  12.349  0.2169 -0.1801  0.0106
 5888W        W21505   3.017   9.088   4.350  0.4059 -0.0250 -0.4427
 5889W        W21506  17.628  15.486  14.224 -0.2379 -0.0711 -0.0719
 5890W        W21507  14.831  17.510  11.881 -0.0911  0.0636 -0.1643
 5891W        W21508   8.916  11.584  12.320  0.3479 -0.2646  0.0534
 5892W        W21509   5.427  15.565  14.764  0.2248 -0.3217  0.0087
 5893W        W21510  11.420  14.772   0.867  0.2156 -0.2709  0.2779
 5894W        W21511   2.145  16.043  16.003  0.0542 -0.0886 -0.1308
 5895W        W21512   0.762   9.796  16.270 -0.2726  0.0393 -0.0476
 5896W        W21513  12.914  13.491   0.620 -0.1186  0.1407  0.1317
 5897W        W21514   4.419   6.478   6.460  0.3596 -0.0724 -0.1182
 5898W        W21515  13.776   8.998  12.224 -0.1866 -0.0982  0.0775
 5899W        W21516   8.558   9.930  11.340 -0.1873  0.3004 -0.1090
 5900W        W21517   9.595  11.690  16.332  0.3874 -0.0643 -0.4387
 5901W        W21518  17.184  14.687   3.324  0.1520  0.1752 -0.1534
 5902W        W21519   3.388   2.292   3.489 -0.0535 -0.4519  0.0522
 5903W        W21520   0.219   1.581   1.623 -0.1442 -0.1452 -0.0887
 5904W        W21521  11.997  17.437  14.546 -0.1115  0.1707  0.0072
 5905W        W21522   4.489   7.485   4.891 -0.1439 -0.0167  0.2091
 5906W        W21523  16.793   7.789   4.213  0.0728  0.2472 -0.0913
 5907W        W21524  14.298   8.385  14.427  0.0571  0.0387 -0.1821
 5908W        W21525   0.596  10.836  16.759  0.0980 -0.2419  0.1757
 5909W        W21526   3.423   5.718  14.010  0.1424  0.3468 -0.0396
 5910W        W21527  15.311   9.943   2.493  0.2534 -0.0046  0.1830
 5911W        W21528   0.842  16.682  14.745  0.1123  0.1479  0.0606
 5912W        W21529  10.644  10.935  16.411  0.0170 -0.0085  0.3226
 5913W        W21530   9.729   3.263  15.221 -0.1603 -0.1032  0.0185
 5914W        W21531  14.576   3.979  16.102 -0.0044  0.1669 -0.3476
 5915W        W21532   8.163   0.166  12.760 -0.0348 -0.0242 -0.1056
 5916W        W21533  13.823  16.480  15.465  0.3351  0.0827 -0.0559
 5917W        W21534  13.250   9.828  13.898  0.0241  0.1923  0.2330
 5918W        W21535   9.644  15.127   5.585 -0.1099 -0.1315 -0.3360
 5919W        W21536   8.161  11.042  11.417 -0.1632 -0.1574 -0.2216
 5920W        W21537  15.787   9.174   1.332  0.1946 -0.1003 -0.1959
 5921W        W21538  13.765   0.238  13.866  0.0813 -0.0686 -0.0165
 5922W        W21539  11.619   3.286   4.379  0.0423 -0.0042 -0.1116
 5923W        W21540   8.479  13.473  11.532  0.2586  0.1733  0.2922
 5924W        W21541  13.392   3.561   0.250  0.0200  0.1329 -0.0030
 5925W        W21542  13.434  17.608  14.534  0.0610  0.2442  0.1821
 5926W        W21543   3.067  10.312   6.008 -0.0725  0.2698 -0.1214
 5927W        W21544  14.790  12.933   0.935  0.2053  0.2254  0.1090
 5928W        W21545  11.465   6.842  14.442  0.0113  0.0917  0.1050
 5929W        W21546   8.499   0.455  14.003  0.1995  0.0142  0.0507
 5930W        W21547   5.434   9.678   3.898 -0.0718  0.1243 -0.3094
 5931W        W21548   1.791   7.727   2.585 -0.1789 -0.1704 -0.3591
 5932W        W21549   5.505   6.662  15.369 -0.1352 -0.1644 -0.0507
 5933W        W21550  12.016   7.539   4.729 -0.0307 -0.1557 -0.0713
 5934W        W21551   3.283   8.097   1.100 -0.1080 -0.3784  0.1597
 5935W        W21552   8.847   5.010   4.221  0.1070 -0.1008 -0.0451
 5936W        W21553   3.013  16.993  13.259  0.2185 -0.0823 -0.0216
 5937W        W21554  14.542   9.409   0.214  0.1842  0.0274  0.0884
 5938W        W21555  15.779   4.440   2.408 -0.0006  0.2150 -0.0438
 5939W        W21556   8.313   0.468   4.432  0.2331 -0.1454  0.1247
 5940W        W21557  15.335  10.653  15.823  0.1549 -0.0962  0.1132
 5941W        W21558  11.661  15.051  12.847 -0.1976  0.1672  0.0308
 5942W        W21559   6.893  12.390   3.731 -0.0414  0.3762 -0.0871
 5943W        W21560  17.908  13.492  16.665 -0.1683 -0.2983 -0.3069
 5944W        W21561   6.005  12.318   0.125  0.0509  0.2604 -0.0705
 5945W        W21562   5.773   6.091   0.767 -0.0927 -0.4838 -0.1966
 5946W        W21563  15.040  16.586   4.890  0.0420 -0.0158 -0.0480
 5947W        W21564   3.277   1.573   2.903  0.1324  0.3152 -0.2110
 5948W        W21565  12.789  11.391  16.430 -0.1342  0.3594 -0.0031
 5949W        W21566   4.075  12.695  14.690 -0.1172  0.1159 -0.0043
 5950W        W21567   8.652  10.027  12.398 -0.1734  0.0887  0.0833
 5951W        W21568   2.656   6.914  16.165 -0.0903  0.3408  0.2758
 5952W        W21569   7.530  13.012  16.685 -0.0711 -0.0880  0.0991
 5953W        W21570   6.959   3.544   2.685 -0.2660  0.0855 -0.2423
 5954W        W21571  11.831  16.046   1.898 -0.3318  0.0113  0.2528
 5955W        W21572   7.588   2.382   3.064 -0.1463  0.1196 -0.0007
 5956W        W21573   9.715  10.071   0.007 -0.2694 -0.1093  0.1119
 5957W        W21574   9.034  11.662   4.257 -0.0034  0.2809  0.2423
 5958W        W21575  16.309   3.726   2.036 -0.2027 -0.2277 -0.1394
 5959W        W21576   5.332   3.430   0.183  0.0593 -0.3050  0.1939
 5960W        W21577   8.313   4.660  12.052  0.3310 -0.0984 -0.1979
 5961W        W21578   5.059  17.879  14.759 -0.0446  0.0884  0.4119
 5962W        W21579  15.860   2.719  14.929 -0.3237 -0.0770  0.3643
 5963W        W21580  16.908  13.171  16.088 -0.0789 -0.0642  0.0031
 5964W        W21581  14.349   0.889   2.000  0.2475  0.2508  0.1826
 5965W        W21582   4.230   8.577   3.725  0.0557  0.0946 -0.2434
 5966W        W21583  11.147   3.826   1.183 -0.0115 -0.0857  0.0777
 5967W        W21584   1.076   7.717  16.637  0.0626  0.2142 -0.2762
 5968W        W21585   9.492  17.055   3.909 -0.1137  0.0083  0.3047
 5969W        W21586  17.320  12.150  15.051  0.0228  0.3939 -0.2039
 5970W        W21587   9.998   0.274   4.420 -0.0003  0.2466 -0.0808
 5971W        W21588  12.228   3.747  14.515 -0.0335 -0.1954  0.2190
 5972W        W21589   0.199  12.657   3.524  0.0574 -0.1416  0.1948
 5973W        W21590   6.553  14.724   1.897 -0.1002  0.1668 -0.0494
 5974W        W21591  13.803   0.094   1.390 -0.1461 -0.3840  0.3736
 5975W        W21592   4.875   2.737   1.716 -0.2405  0.0434 -0.3232
 5976W        W21593   9.284   0.599   0.828  0.1509  0.0927 -0.0709
 5977W        W21594  16.570  10.836  12.119  0.1654 -0.0255  0.0137
 5978W        W21595  12.159   7.098   1.720  0.0719 -0.1426  0.0357
 5979W        W21596   9.999   9.240   0.420  0.0691 -0.1455  0.1427
 5980W        W21597  12.060  17.228  14.121 -0.0632 -0.0574  0.4360
 5981W        W21598  17.472   5.217   0.507  0.2120 -0.1328 -0.1238
 5982W        W21599  10.849  14.036  16.728 -0.2298 -0.2426 -0.0208
 5983W        W21600  15.201   3.217  14.287  0.1880  0.1984 -0.0704
 5984W        W21601   5.673  11.636  15.090 -0.4579 -0.3303 -0.0341
 5985W        W21602  13.934  16.253   1.018  0.2229  0.2756  0.1700
 5986W        W21603  10.506   1.064   4.037 -0.1153 -0.0237  0.1644
 5987W        W21604   5.317  15.300   0.942  0.2684  0.0455 -0.1694
 5988W        W21605   4.698   5.603   4.841 -0.0900 -0.2034 -0.0178
 5989W        W21606   7.867  15.049   5.426  0.0806 -0.1083 -0.1719
 5990W        W21607   1.542   8.152   1.390  0.1957 -0.0141  0.1924
 5991W        W21608  13.645   9.437   5.105 -0.0546  0.2138  0.1642
 5992W        W21609   8.212   6.343   5.169  0.2693  0.0349  0.2710
 5993W        W21610   6.200   7.325   2.744 -0.2424 -0.0034 -0.2732
 5994W        W21611   4.320  13.332  11.684 -0.4087 -0.0160 -0.3214
 5995W        W21612   5.447   0.162   2.029 -0.3029  0.0430 -0.2063
 5996W        W21613  16.601  15.556  12.751 -0.2113 -0.1325 -0.0289
 5997W        W21614  16.100  15.845  12.865 -0.0244 -0.0693 -0.1879
 5998W        W21615  12.479  17.318   1.571 -0.3177 -0.1842 -0.0353
 5999W        W21616  10.681   7.381   1.631  0.1748 -0.1546  0.1588
 6000W        W21617   0.762  11.927  14.325 -0.0272 -0.2342  0.2975
 6001W        W21618  10.775   7.493  14.006 -0.1025  0.1440  0.0341
 6002W        W21619  14.965  10.107  12.935  0.1276  0.1304  0.2094
 6003W        W21620  14.764  13.275  13.306  0.0294 -0.2277 -0.0855
 6004W        W21621  17.631   1.791   3.590 -0.3466 -0.0725  0.1465
 6005W        W21622  17.122  16.341  12.122 -0.0388  0.1840 -0.0329
 6006W        W21623  12.405  13.332  15.391 -0.0637  0.4841  0.0715
 6007W        W21624   2.624   0.492  10.525  0.2335 -0.1042  0.0767
 6008W        W21625  16.325   2.971  13.654 -0.0753  0.1138  0.0351
 6009W        W21626   6.968  10.792  12.123 -0.1801  0.1379 -0.0073
 6010W        W21627   3.443  16.537  11.469 -0.0139 -0.3738  0.2297
 6011W        W21628   6.094  12.222   4.223 -0.0901  0.0811  0.1243
 6012W        W21629  10.546  14.881   5.058  0.1542  0.0706  0.3956
 6013W        W21630  11.077  13.666   4.880 -0.1855 -0.1484 -0.3732
 6014W        W21631   4.933  15.642   2.234 -0.1459  0.0302 -0.0421
 6015W        W21632  14.387   3.150   1.795  0.0691 -0.1747 -0.3744
 6016W        W21633   2.362  11.407  15.482 -0.0770 -0.3965 -0.4500
 6017W        W21634   9.040   6.378  10.600 -0.3084  0.1487 -0.6013
 6018W        W21635  16.321   8.745  12.147 -0.1297 -0.4217  0.0359
 6019W        W21636   1.949  14.914  14.306 -0.1578  0.1003 -0.2085
 6020W        W21637   3.915   7.571   5.732  0.2304  0.0482 -0.2528
 6021W        W21638  13.308  12.107   5.304  0.2331  0.3348 -0.2092
 6022W        W21639   8.417  12.068  10.898  0.2053  0.0112 -0.1458
 6023W        W21640   7.997   3.917  11.120 -0.1636 -0.2121 -0.1478
 6024W        W21641   2.995  17.008   1.678 -0.0684  0.2644  0.1644
 6025W        W21642  17.369  14.326   1.923 -0.1821 -0.1034  0.1682
 6026W        W21643  17.729   5.413  16.339 -0.3110  0.1639 -0.1699
 6027W        W21644  10.789  16.304  11.127  0.2153 -0.1734 -0.1893
 6028W        W21645  17.179   7.996  11.942 -0.0858 -0.1323  0.2496
 6029W        W21646   5.909   0.905  15.281 -0.2155 -0.1773  0.6164
 6030W        W21647  16.642   6.909  12.285  0.2141  0.0275  0.0248
 6031W        W21648  11.683  10.353  13.370 -0.3192  0.0212 -0.0313
 6032W        W21649   4.754   9.336   2.129 -0.1458  0.0512  0.1424
 6033W        W21650   1.308   5.584  13.746 -0.0390  0.2175 -0.0878
 6034W        W21651   0.639   3.503   3.811 -0.3142  0.0472 -0.1508
 6035W        W21652  10.916   6.529   0.483 -0.0877 -0.1825 -0.2078
 6036W        W21653  12.004   5.206  11.881  0.0894 -0.0558  0.1317
 6037W        W21654   6.397   2.098  13.346 -0.0695  0.2355  0.1961
 6038W        W21655  10.934   6.069  14.056 -0.1793  0.1072 -0.1118
 6039W        W21656   5.212  13.362   0.568 -0.0350 -0.2011  0.1210
 6040W        W21657  17.513   9.802  14.140 -0.2702 -0.0265 -0.1116
 6041W        W21658  14.407   0.425  12.091  0.0373  0.0086 -0.1812
 6042W        W21659  11.676  14.187   3.353  0.2316 -0.0320  0.3749
 6043W        W21660   1.541   6.798   2.460  0.1520  0.0648  0.1201
 6044W        W21661  10.461  13.149   2.657 -0.4281 -0.3360  0.0301
 6045W        W21662   7.495   8.128  14.142  0.3020 -0.2868  0.3294
 6046W        W21663   4.200  12.611   3.394  0.1368 -0.1003 -0.2537
 6047W        W21664   3.041  13.647  11.779  0.1044 -0.0169 -0.2603
 6048W        W21665   3.145   0.555   4.859  0.2021 -0.0582 -0.3195
 6049W        W21666  16.850  12.282  14.804  0.1254 -0.0645  0.1540
 6050W        W21667  10.055   2.218  13.604  0.2173  0.0218 -0.0212
 6051W        W21668  12.994   1.385   2.306  0.1682 -0.1544  0.2169
 6052W        W21669  17.743  16.622   3.452 -0.0905 -0.0408 -0.3629
 6053W        W21670   3.929  14.569   3.388 -0.0882 -0.0816 -0.4546
 6054W        W21671   0.763   3.759   1.920 -0.1749 -0.1484 -0.0826
 6055W        W21672  17.587   6.828   2.128 -0.1770 -0.0265 -0.0893
 6056W        W21673   5.567  14.856   1.806  0.1258 -0.0770  0.1647
 6057W        W21674   2.124   0.210   2.432 -0.0280 -0.3205  0.3575
 6058W        W21675   6.859   4.674  14.253 -0.3001  0.0049 -0.1755
 6059W        W21676  17.072   4.036  13.238 -0.2830  0.4700  0.1428
 6060W        W21677  14.414  10.408   5.720  0.0119 -0.1610  0.1305
 6061W        W21678  17.541   9.065  14.397  0.0395  0.0072 -0.0951
 6062W        W21679  12.397   1.393   0.483 -0.0218 -0.2701  0.1611
 6063W        W21680  16.866  16.162   0.297 -0.0802 -0.0561  0.3433
 6064W        W21681   4.837   5.843   2.334  0.1987 -0.3935  0.4681
 6065W        W21682   5.593   8.679   0.720  0.1535 -0.4083 -0.0681
 6066W        W21683   0.814  12.574   0.318  0.1556  0.1204 -0.0109
 6067W        W21684   3.854   0.073  12.579  0.3217 -0.2332 -0.3760
 6068W        W21685   9.180   7.094   5.880 -0.1096  0.0044 -0.3428
 6069W        W21686   9.587  15.468  14.215  0.0482 -0.1809  0.1810
 6070W        W21687   0.232   6.480   4.704  0.2706  0.0102 -0.1720
 6071W        W21688   2.817   9.271  15.789 -0.2045 -0.1250 -0.0607
 6072W        W21689   0.380   2.549   1.670  0.1127 -0.1898 -0.1104
 6073W        W21690   6.067   5.482  11.525  0.2011  0.0321  0.0431
 6074W        W21691  11.449   4.283  12.866 -0.1353  0.0354 -0.2127
 6075W        W21692  16.594  15.729   5.336  0.0060 -0.1550  0.0455
 6076W        W21693   5.468   1.451  16.035  0.0999 -0.1320 -0.0270
 6077W        W21694   1.298  11.383  16.614 -0.1921  0.1118  0.0571
 6078W        W21695   7.705  11.365  10.457 -0.4389 -0.0833  0.3261
 6079W        W21696  11.867  11.700   1.671  0.0611  0.0665 -0.0229
 6080W        W21697  10.716   2.526  14.234  0.0910  0.0046 -0.0487
 6081W        W21698   6.335  17.738   3.247  0.2363  0.1067 -0.3410
 6082W        W21699  12.527   7.414   1.372  0.3676 -0.0754 -0.1706
 6083W        W21700   2.945  11.217   4.897 -0.3684 -0.2465 -0.0703
 6084W        W21701   6.596  11.228   2.121  0.1755  0.2951 -0.1103
 6085W        W21702  13.176  11.366  13.988 -0.0589  0.1261  0.2987
 6086W        W21703   7.135  11.715  12.746 -0.2267 -0.4684  0.0704
 6087W        W21704   5.684   8.629  12.539  0.2445 -0.3505 -0.1550
 6088W        W21705  14.292   0.271   0.972  0.0075 -0.1084 -0.2970
 6089W        W21706  15.680  17.979  15.509  0.2829  0.4866 -0.0576
 6090W        W21707  16.433  10.449   1.774 -0.3398  0.0297  0.1915
 6091W        W21708  11.732  15.738  14.916 -0.0527 -0.0596  0.2320
 6092W        W21709   3.980   2.359  13.237 -0.0862 -0.0262  0.0339
 6093W        W21710   4.421   8.597   5.114 -0.1379 -0.0488 -0.0997
 6094W        W21711  15.499  15.768   6.370 -0.0132  0.0828  0.1585
 6095W        W21712  11.688   4.739   4.735 -0.1373  0.0059  0.0618
 6096W        W21713   5.807   5.157   2.842 -0.1657  0.2243 -0.0528
 6097W        W21714   4.082   5.651  16.276  0.3130 -0.1822  0.0581
 6098W        W21715  16.794   9.098  12.226 -0.0166 -0.1133 -0.0258
 6099W        W21716   8.696   7.218   1.457 -0.0393  0.1271 -0.1585
 6100W        W21717  10.247   9.119  11.254 -0.2373 -0.2150  0.1775
 6101W        W21718  15.717   3.995  13.801  0.1052  0.0562  0.0376
 6102W        W21719   6.956  13.619  15.850  0.2629  0.2468  0.0000
 6103W        W21720   5.603  10.076   0.853 -0.1858 -0.1927 -0.0416
 6104W        W21721   0.388   0.791   3.399  0.1172  0.3206 -0.2273
 6105W        W21722  14.199   2.613   0.109 -0.1252 -0.1454 -0.1840
 6106W        W21723   2.860   0.375   2.645  0.2801  0.1839  0.1168
 6107W        W21724   3.067   3.395   1.968  0.1073  0.1159  0.2120
 6108W        W21725  14.571   5.275   2.645  0.0354  0.0780 -0.0439
 6109W        W21726   7.381  14.487  12.088 -0.0741 -0.0839 -0.1212
 6110W        W21727   2.875   0.224   3.880  0.0560  0.2116 -0.1098
 6111W        W21728   6.133  12.488  13.842  0.3553  0.0792 -0.1355
 6112W        W21729   4.458  15.071  14.161  0.2317 -0.0701  0.1060
 6113W        W21730  17.425   6.888   4.756  0.4238  0.0515  0.0227
 6114W        W21731   4.072  13.595   0.858  0.1877  0.0277  0.0177
 6115W        W21732  16.496  13.220   5.842  0.1776 -0.2838 -0.3132
 6116W        W21733   8.324  12.933  15.029  0.1857 -0.0772 -0.2030
 6117W        W21734   0.554  13.738  12.923  0.2104  0.2904 -0.0827
 6118W        W21735  12.600  11.791  16.129  0.0191  0.1115  0.0155
 6119W        W21736   0.398  16.973   3.620 -0.0245  0.0413  0.1134
 6120W        W21737  10.100  16.498   1.400  0.2258  0.0811 -0.1245
 6121W        W21738  10.290   9.122   4.841 -0.0797  0.4925  0.0702
 6122W        W21739  14.730   7.077   2.445  0.0925  0.1663 -0.3160
 6123W        W21740   7.752   0.230   2.802  0.4565 -0.1525  0.0178
 6124W        W21741   6.348   5.045  10.237  0.3371  0.0206  0.1357
 6125W        W21742   1.765  17.088   4.464  0.1206  0.0417  0.0147
 6126W        W21743   2.443  11.571   2.347  0.0697  0.2261 -0.0303
 6127W        W21744  17.094   0.302  12.245 -0.1353 -0.0173 -0.0780
 6128W        W21745   6.426   8.865  14.655  0.2806  0.0375 -0.2475
 6129W        W21746   5.346   5.155   0.851 -0.0520  0.0517  0.4014
 6130W        W21747  14.274  13.682   2.288 -0.4418  0.2458  0.1127
 6131W        W21748  13.850   1.059   0.524  0.2126  0.0027  0.0116
 6132W        W21749   3.950   4.441  15.660  0.1326  0.1241 -0.1166
 6133W        W21750  17.272   8.446   4.572  0.1209  0.1410 -0.2279
 6134W        W21751   1.737   9.576  15.437 -0.1773 -0.1323  0.0190
 6135W        W21752   0.201  13.169  13.826 -0.0962 -0.0967  0.1217
 6136W        W21753   6.959   7.590   1.250 -0.1430 -0.0661 -0.1563
 6137W        W21754  14.838   0.192  12.225 -0.4288 -0.1353 -0.0575
 6138W        W21755   0.696   3.803  14.055 -0.0634 -0.2215 -0.2175
 6139W        W21756  15.042   3.319  15.540 -0.2065 -0.0042 -0.1796
 6140W        W21757  14.784   4.534  11.839 -0.2308 -0.2893  0.1228
 6141W        W21758  17.205  15.598   1.417 -0.1852 -0.1035 -0.1537
 6142W        W21759   7.286  11.297  12.507 -0.0934 -0.3273  0.2486
 6143W        W21760  11.219   2.331  14.368  0.0120 -0.1119 -0.0339
 6144W        W21761   7.789   9.934   4.376 -0.1149  0.1867 -0.1622
 6145W        W21762   4.042   4.453  14.814 -0.0365  0.2478 -0.0878
 6146W        W21763  17.286  17.030   0.568 -0.1699  0.1031  0.2014
 6147W        W21764  17.377   2.484  16.574 -0.0211  0.0789  0.0486
 6148W        W21765   0.088   6.260   6.277  0.0589 -0.0923 -0.1563
 6149W        W21766   2.677  14.991  15.331  0.0587 -0.1241  0.3322
 6150W        W21767   0.377   0.191  16.667 -0.0603 -0.0058  0.2440
 6151W        W21768  16.352   0.035   1.498 -0.0878  0.0121  0.1003
 6152W        W21769   2.509   7.281  13.987  0.3722 -0.2479  0.1161
 6153W        W21770   8.470   6.225  12.311  0.2190 -0.1604 -0.1170
 6154W        W21771   6.869   4.556  13.269  0.2025 -0.2298  0.1900
 6155W        W21772   4.368   5.181  14.930  0.3239 -0.0997  0.0560
 6156W        W21773   5.992  12.693  12.546  0.1755 -0.0177 -0.3488
 6157W        W21774   1.776   6.598  12.122 -0.1870  0.3059 -0.1678
 6158W        W21775   9.359   7.114   1.981 -0.1705 -0.3765  0.1648
 6159W        W21776   3.764   5.274  12.312  0.1947  0.1346  0.0370
 6160W        W21777   0.033   6.472   5.804  0.0089 -0.0194 -0.0601
 6161W        W21778   3.804   8.951   5.965  0.0218 -0.3235  0.3010
 6162W        W21779  12.966   2.676  13.826 -0.0057  0.1080  0.1824
 6163W        W21780   0.300   9.444  10.827 -0.2350  0.1771 -0.2600
 6164W        W21781   5.759   2.816  11.932 -0.0615  0.0144  0.0297
 6165W        W21782  14.376  14.459   5.612 -0.3065  0.0125 -0.0889
 6166W        W21783   4.653  15.212   3.928 -0.0394 -0.0368  0.0135
 6167W        W21784  14.781  14.265   4.281 -0.1173  0.2357  0.0610
 6168W        W21785  14.313   7.644  16.337  0.1353  0.3671  0.3098
 6169W        W21786  10.032   4.597   3.699 -0.1733 -0.3786  0.1456
 6170W        W21787  13.435   5.012   2.771  0.1630  0.2216 -0.3668
 6171W        W21788   7.637  10.871  11.237  0.2733  0.0074  0.2690
 6172W        W21789  14.518   7.858  13.556  0.0058 -0.0006  0.0914
 6173W        W21790   6.012  14.475  13.969 -0.3356 -0.1619 -0.3771
 6174W        W21791   6.062  13.671  12.241 -0.2915 -0.1482  0.0232
 6175W        W21792   8.828   9.691  16.315  0.0016  0.1007  0.1354
 6176W        W21793   2.946  11.198  16.234 -0.1996  0.2966  0.0675
 6177W        W21794   4.199   3.527   4.839  0.0712  0.2706 -0.2647
 6178W        W21795   7.574   5.249  11.717 -0.2038  0.1375 -0.3172
 6179W        W21796   8.190   5.920   0.049  0.2065  0.2026 -0.0074
 6180W        W21797   4.131  10.618   4.132  0.0020  0.3761 -0.0641
 6181W        W21798   8.590  11.916   1.473  0.3889 -0.0043 -0.1198
 6182W        W21799   5.991   8.919  11.369  0.3051 -0.0046 -0.2033
 6183W        W21800   2.329   5.775  11.788  0.0235 -0.3253  0.1086
 6184W        W21801  14.640  17.963   5.796  0.0505 -0.1776 -0.4336
 6185W        W21802   6.793   6.197   3.911 -0.0470 -0.0860  0.2172
 6186W        W21803  17.782   0.488  12.576  0.0772  0.0297  0.0815
 6187W        W21804  15.251   4.258  12.561 -0.3034 -0.0503 -0.1794
 6188W        W21805   1.892  14.078   1.533 -0.4010 -0.1027  0.0332
 6189W        W21806  10.852  11.722   4.514  0.3780 -0.1309 -0.1641
 6190W        W21807   0.997  14.501  16.652 -0.0321  0.0426  0.1894
 6191W        W21808   1.063   5.159   2.795 -0.3498 -0.2083 -0.1015
 6192W        W21809  16.261   5.850  11.887 -0.0163 -0.2039 -0.1169
 6193W        W21810   7.667  16.801  12.610 -0.2341 -0.2177  0.0020
 6194W        W21811  11.984  15.995  12.429  0.0792 -0.2376  0.0659
 6195W        W21812   7.723  14.662   1.043 -0.2767 -0.0783  0.2756
 6196W        W21813  10.740   5.921   3.673 -0.1759 -0.2548 -0.2285
 6197W        W21814   3.416  14.787  13.050 -0.0615  0.0747  0.1434
 6198W        W21815  14.329   0.374   2.234  0.2494  0.1963  0.3147
 6199W        W21816   2.491  16.902   1.518 -0.0700  0.1979  0.1310
 6200W        W21817  13.692   3.381  14.748  0.2721  0.0839  0.2041
 6201W        W21818   3.598   0.003   4.444 -0.2332 -0.0873  0.1514
 6202W        W21819  15.252  10.234   4.336 -0.2015  0.3499  0.1267
 6203W        W21820   3.281  15.016   0.225  0.0939  0.3549  0.2131
 6204W        W21821  17.517  14.794   4.886  0.0721 -0.1603  0.2521
 6205W        W21822   0.360   4.603  14.623 -0.1225  0.0227 -0.0145
 6206W        W21823  14.943  11.816  15.335  0.0237  0.0245 -0.1049
 6207W        W21824   3.689  17.533   3.446  0.0445 -0.0384 -0.0618
 6208W        W21825  15.507  12.115   5.719  0.0621 -0.3231  0.1695
 6209W        W21826  11.836   0.849   1.657 -0.1238 -0.1176  0.4621
 6210W        W21827  11.878  11.630  14.830  0.0217 -0.3192 -0.2484
 6211W        W21828  18.036   9.462   5.557 -0.1966  0.2739  0.2257
 6212W        W21829   9.740  12.437   1.426 -0.2422 -0.0687  0.1440
 6213W        W21830  14.759   3.570   3.437  0.0087  0.0167  0.0610
 6214W        W21831   9.062   4.571  14.873  0.1176 -0.3537 -0.1274
 6215W        W21832  12.875  14.841  12.772 -0.0871 -0.0332  0.2758
 6216W        W21833   7.625   8.928   3.491  0.3155  0.2395 -0.1722
 6217W        W21834   6.590  16.726  13.015 -0.0902  0.0754  0.0226
 6218W        W21835   3.069   5.344   2.729  0.3739 -0.4054 -0.0881
 6219W        W21836   3.548  15.208  15.806  0.0551  0.0004 -0.0387
 6220W        W21837   5.150   5.984  15.268  0.3517 -0.1299 -0.1147
 6221W        W21838  16.100  12.124  16.337  0.1299  0.5004 -0.2732
 6222W        W21839   6.437   0.191   5.399  0.1935  0.3234 -0.0687
 6223W        W21840  12.374  16.550   4.248  0.1303  0.3220 -0.0578
 6224W        W21841   7.534   4.946   1.707 -0.0741  0.5935 -0.1356
 6225W        W21842  13.323  14.060  15.842 -0.0904  0.0133 -0.2328
 6226W        W21843   6.574   9.047   0.315 -0.0543  0.3592 -0.1213
 6227W        W21844   6.061  16.053   2.699  0.2057  0.5051  0.0144
 6228W        W21845   4.948  12.732  15.206 -0.0470  0.2316  0.3676
 6229W        W21846  16.348  10.176  12.887 -0.0838 -0.0455 -0.1671
 6230W        W21847  17.447   7.678   2.996  0.0845  0.3675  0.0662
 6231W        W21848  10.478   3.123  13.451  0.0890 -0.4192  0.0640
 6232W        W21849   9.746   3.890  16.551 -0.2253  0.1230  0.0823
 6233W        W21850  13.642  15.608   0.355 -0.1027  0.0489 -0.1058
 6234W        W21851   4.271   9.557  11.860  0.2394  0.0362  0.0603
 6235W        W21852   0.839   8.858  16.199  0.0476  0.0472 -0.0929
 6236W        W21853  11.057  14.119   1.888 -0.0242  0.2449  0.1474
 6237W        W21854  13.867  13.438   5.163 -0.0544 -0.1665 -0.1562
 6238W        W21855   0.392  16.020  15.937  0.2392 -0.0495  0.0657
 6239W        W21856   8.033   6.654   0.811  0.0982 -0.1367 -0.0655
 6240W        W21857  10.814   7.354  11.511  0.2292  0.0494  0.0954
 6241W        W21858   5.509   5.214  13.350 -0.2954 -0.1916 -0.1206
 6242W        W21859  16.022   1.882   4.568  0.0607  0.0458 -0.0320
 6243W        W21860  11.412   6.410  12.100 -0.0416  0.1653 -0.0036
 6244W        W21861  15.090   5.068   2.949 -0.0838 -0.0956 -0.0994
 6245W        W21862   4.495  15.390   2.467  0.1817 -0.0338 -0.0553
 6246W        W21863  11.739   0.060  12.859  0.1153  0.0648  0.1623
 6247W        W21864   6.112  17.031  10.357  0.1593  0.0268  0.0205
 6248W        W21865   3.262   3.987   1.382 -0.0537 -0.1680  0.0224
 6249W        W21866   9.399  12.747   1.921 -0.1223  0.1378 -0.0780
 6250W        W21867  11.972   4.536   3.679  0.1127  0.3765  0.0826
 6251W        W21868   3.775   9.587  11.910  0.1654  0.0985 -0.2023
 6252W        W21869   7.805   2.370   1.884  0.2226  0.0046  0.0882
 6253W        W21870   3.611   3.913  12.828  0.3412  0.0958 -0.2771
 6254W        W21871  12.374   3.923   0.245  0.3047 -0.0223  0.0781
 6255W        W21872   3.790  15.573   1.401  0.1326 -0.3939  0.0438
 6256W        W21873  14.488  15.591   1.452 -0.0523 -0.1697 -0.1679
 6257W        W21874   9.922   6.079   4.756 -0.2293 -0.0695 -0.0542
 6258W        W21875   3.416   0.816  11.614 -0.1392 -0.0240 -0.0527
 6259W        W21876   8.335  15.395   3.202  0.2019 -0.0390  0.3572
 6260W        W21877   3.754   3.386   1.129  0.0462  0.2281  0.0338
 6261W        W21878   0.485  14.138  14.542 -0.1176  0.0145 -0.0184
 6262W        W21879   7.961   7.256  13.182 -0.1891  0.1721 -0.2418
 6263W        W21880   1.692  13.200  12.143 -0.0267 -0.1766 -0.0041
 6264W        W21881  17.830   3.101   1.076  0.0179 -0.0654 -0.3808
 6265W        W21882   2.304   1.072   3.727 -0.1446  0.1485  0.1546
 6266W        W21883  16.698   0.185   3.463 -0.1166  0.0176  0.2103
 6267W        W21884  16.083   2.541   1.553  0.1054  0.0159 -0.0326
 6268W        W21885   5.590   1.091  15.719 -0.0184 -0.2935 -0.1160
 6269W        W21886  17.924   4.041  11.895  0.2102  0.2065  0.3113
 6270W        W21887   9.892   1.006  14.745 -0.2218  0.2316 -0.1244
 6271W        W21888   1.301  15.978  16.295  0.3834 -0.2016  0.2364
 6272W        W21889   3.662   9.081   4.710 -0.0020  0.1306 -0.3483
 6273W        W21890   6.877   8.784  14.897  0.0723  0.1452  0.1533
 6274W        W21891   7.344  12.761   1.379  0.0445  0.1188  0.2478
 6275W        W21892   8.943   9.013  15.061 -0.0300 -0.0992 -0.0255
 6276W        W21893  10.889   6.188   2.621 -0.1513  0.0934 -0.0949
 6277W        W21894  10.547   9.836   5.117 -0.0931 -0.2022 -0.0509
 6278W        W21895   9.443  11.481  15.321 -0.2190 -0.0167 -0.2028
 6279W        W21896  13.123   5.930  14.276 -0.1569 -0.0733 -0.0506
 6280W        W21897  10.385   3.342   2.238 -0.1187  0.1995 -0.0768
 6281W        W21898   2.139  11.555   0.110  0.1506  0.1274  0.0263
 6282W        W21899   6.538   8.059   2.451 -0.3517 -0.1660  0.0071
 6283W        W21900  16.852  10.099   3.096 -0.1617  0.1754  0.1688
 6284W        W21901   2.017   5.593   3.349 -0.1292 -0.0623  0.2658
 6285W        W21902  11.069   2.366  13.425 -0.0004 -0.1042 -0.1406
 6286W        W21903   3.745  16.103  11.430 -0.3457  0.1172 -0.1693
 6287W        W21904   4.579   9.397  13.020  0.1144 -0.2720  0.4107
 6288W        W21905   9.622  11.140  15.630  0.2546 -0.2170 -0.2309
 6289W        W21906   7.491   1.219   5.461  0.3288 -0.0028  0.1667
 6290W        W21907  13.322   0.186  16.644  0.1950  0.5601 -0.1092
 6291W        W21908  12.650  10.239   5.812 -0.0542 -0.1130  0.3040
 6292W        W21909   4.308  16.542   1.258  0.2669  0.2090 -0.0382
 6293W        W21910  13.130   5.321   0.260 -0.5955 -0.0407  0.3390
 6294W        W21911   9.173   9.551  13.703 -0.1399  0.1010 -0.0094
 6295W        W21912  11.849  16.316   0.063 -0.1855  0.0138  0.1169
 6296W        W21913   1.102  10.292   4.466 -0.1748  0.1128 -0.0310
 6297W        W21914   6.968   8.374   5.696  0.1270 -0.1289 -0.1345
 6298W        W21915  12.342   8.412  13.757  0.3702 -0.2675  0.0532
 6299W        W21916  15.582   2.560  16.699 -0.2160  0.0086 -0.1657
 6300W        W21917  16.568   9.287  14.897  0.0104 -0.0545 -0.0848
 6301W        W21918  11.057   9.754   1.907  0.1679  0.0356  0.2214
 6302W        W21919   7.055  12.685   4.838  0.2757 -0.1577  0.5498
 6303W        W21920  12.925   9.424  12.954  0.2733 -0.1671  0.1100
 6304W        W21921   7.224  16.990   1.731  0.3317  0.0016  0.0150
 6305W        W21922  10.340  11.008  13.496 -0.0418  0.0309 -0.1757
 6306W        W21923  13.677   7.226   3.789 -0.3812 -0.2221 -0.4000
 6307W        W21924   0.915  16.122   6.258 -0.0223  0.1947 -0.0555
 6308W        W21925   8.406   1.082   6.313 -0.1021 -0.2543  0.1003
 6309W        W21926   3.743  12.155   1.023  0.1549 -0.3497  0.1688
 6310W        W21927  14.296   5.502   1.567  0.1851  0.2369 -0.1276
 6311W        W21928   4.011   8.203   0.031 -0.0568 -0.4147 -0.1127
 6312W        W21929  13.951  11.206   1.735  0.1709  0.0007 -0.0273
 6313W        W21930   8.029   5.530  10.778  0.0670 -0.3375  0.0389
 6314W        W21931   1.752  10.694  12.729 -0.1846 -0.3269  0.1924
 6315W        W21932  16.065  11.288  12.526  0.0514 -0.3412 -0.1377
 6316W        W21933   0.099  16.823  13.991  0.1038  0.2768 -0.1064
 6317W        W21934  12.795  10.069   2.529  0.1943  0.1564  0.1201
 6318W        W21935   6.037   6.070   4.016  0.2649 -0.0291  0.0560
 6319W        W21936  16.065  14.785   0.169 -0.2678  0.0242  0.0402
 6320W        W21937   3.851   4.023   5.038  0.4301 -0.0349  0.1912
 6321W        W21938   5.003   3.652  13.219 -0.0531  0.1972  0.0605
 6322W        W21939   3.271  10.498  15.376  0.0077  0.1750 -0.0856
 6323W        W21940   0.514  15.203   1.403  0.0805  0.2805 -0.0926
 6324W        W21941  14.227  15.525  16.487 -0.1571  0.0382  0.1428
 6325W        W21942  12.860   2.607   6.315  0.2987 -0.1294  0.3773
 6326W        W21943  10.463  15.795   3.766  0.0351  0.1914  0.0918
 6327W        W21944   2.630   6.196   6.250  0.0619 -0.2795 -0.0824
 6328W        W21945  10.392   2.541   5.524 -0.2669  0.0159 -0.1967
 6329W        W21946  10.211   8.061  11.382 -0.0114  0.2161 -0.2523
 6330W        W21947  11.818   8.606  15.772 -0.1786 -0.3173 -0.0177
 6331W        W21948  10.826  12.785   2.985  0.1689 -0.1784 -0.2278
 6332W        W21949   0.851  15.437  14.980  0.0528 -0.0639 -0.0427
 6333W        W21950  15.865   8.838   3.815 -0.1523 -0.4398 -0.0525
 6334W        W21951   8.675  14.378  15.160 -0.1929  0.2435  0.3129
 6335W        W21952   3.676  10.912  12.258 -0.1072  0.0813 -0.4555
 6336W        W21953  14.973   4.154  14.974 -0.1708 -0.1152 -0.0159
 6337W        W21954  16.291   2.835  12.012  0.1618 -0.0552  0.1630
 6338W        W21955  14.910  15.352   3.769  0.0737 -0.1786 -0.1445
 6339W        W21956   8.908   4.162  13.888 -0.0741 -0.0401 -0.1193
 6340W        W21957  13.317  10.095  15.633 -0.0415 -0.2073 -0.1790
 6341W        W21958   9.624   9.318   5.555  0.0723 -0.0181 -0.2711
 6342W        W21959  11.555  12.697   0.560  0.1875  0.3662  0.2115
 6343W        W21960   1.126   2.184  13.363  0.0383 -0.3689  0.1108
 6344W        W21961   7.214  17.432  11.067  0.0306 -0.0483 -0.0140
 6345W        W21962   6.728  16.729  15.176  0.1713 -0.1783 -0.2005
 6346W        W21963  17.395   8.999   4.627 -0.0329 -0.0497  0.1901
 6347W        W21964   1.120   2.375   1.117  0.2507  0.0615 -0.0081
 6348W        W21965   0.623  17.749  16.403  0.2583 -0.3116 -0.0987
 6349W        W21966  17.964  16.881   3.884 -0.1488 -0.2985  0.1560
 6350W        W21967  11.107  13.221  11.706  0.1480  0.0319 -0.1095
 6351W        W21968   2.445   9.005   3.787 -0.1896 -0.0928  0.1173
 6352W        W21969   4.964  11.724   3.399  0.1394  0.3514  0.1261
 6353W        W21970  16.430  10.551  16.643  0.1088 -0.1717  0.0591
 6354W        W21971   0.155   2.425  12.608  0.0389  0.1955 -0.1254
 6355W        W21972   2.236  12.317  13.005  0.1824  0.0086 -0.2380
 6356W        W21973   7.468  15.705  13.166  0.0591  0.3217 -0.1135
 6357W        W21974   9.863   4.906   1.311  0.1491  0.2333 -0.0660
 6358W        W21975   0.472   3.920   1.184  0.2074  0.0488  0.2400
 6359W        W21976   4.311   6.627   3.802  0.2536  0.2097  0.0570
 6360W        W21977   8.924   4.150  16.191  0.2957  0.2767 -0.0801
 6361W        W21978   2.346   2.026  14.258 -0.2694 -0.1260 -0.0842
 6362W        W21979  14.375  15.795  13.476  0.1261  0.4198 -0.1506
 6363W        W21980   3.789  16.340   1.416 -0.0166 -0.0256  0.0189
 6364W        W21981  17.816   5.496  10.895 -0.0304  0.3027  0.0050
 6365W        W21982   3.974   9.475   0.889  0.1010 -0.2788 -0.2379
 6366W        W21983   3.780  14.149   0.553  0.2617 -0.1242  0.2105
 6367W        W21984   1.978   8.181  13.632 -0.1495 -0.0690 -0.4402
 6368W        W21985   4.343  15.048  15.143 -0.2592  0.1295  0.2093
 6369W        W21986   5.709  11.032  13.892  0.1118  0.0594  0.0582
 6370W        W21987  12.248  13.248   0.373  0.2790  0.1620 -0.0836
 6371W        W21988   3.388  13.968   5.030 -0.0503  0.2775  0.0198
 6372W        W21989  16.479  15.591  16.252  0.0987  0.2025  0.2202
 6373W        W21990  10.694  11.804  15.370 -0.0099 -0.2304 -0.1397
 6374W        W21991  11.932   0.427   4.333 -0.0761  0.0199  0.1675
 6375W        W21992   6.677   5.616  13.256  0.1992 -0.3173 -0.4391
 6376W        W21993  13.418   5.193  15.278  0.3038 -0.1320  0.4076
 6377W        W21994   8.588   1.335  16.037  0.1616 -0.0737  0.0738
 6378W        W21995  16.394   7.889  13.999  0.0946  0.4682  0.0596
 6379W        W21996  15.256  13.119  12.625  0.1986  0.2281 -0.1337
 6380W        W21997   9.984   5.350  12.228  0.0281  0.0224  0.2468
 6381W        W21998   6.841   0.203  13.124  0.2630 -0.1249 -0.2423
 6382W        W21999   7.460   0.958  15.451  0.0399  0.1838 -0.2629
 6383W        W22000  13.847   8.462  13.066  0.0168 -0.1504  0.0548
 6384W        W22001   1.125   4.143  16.711  0.2273  0.0581 -0.0710
 6385W        W22002  17.981  14.773  12.717  0.0306 -0.1209 -0.0167
 6386W        W22003   7.369   3.745   5.968  0.0671 -0.0865 -0.0856
 6387W        W22004   8.368   7.633  15.089 -0.0890  0.0566  0.2194
 6388W        W22005  12.102   4.276   3.258 -0.1094  0.0463  0.2795
 6389W        W22006   4.725  14.341  14.890 -0.2560  0.1449 -0.0282
 6390W        W22007  10.344   3.212   0.638  0.0675  0.0269 -0.2353
 6391W        W22008   2.222  18.027   5.384  0.1170  0.1645 -0.2144
 6392W        W22009  15.536  11.007   5.355  0.1861  0.3359  0.0376
 6393W        W22010   7.286   8.674  12.083 -0.0391 -0.1510 -0.0667
 6394W        W22011  16.259  14.071   5.493  0.2941  0.2847  0.3713
 6395W        W22012   5.713  13.148  15.985 -0.0499 -0.0355 -0.0887
 6396W        W22013   2.262  13.386   0.196 -0.0197  0.0737  0.0446
 6397W        W22014   5.959  11.844  14.785  0.0325  0.1983 -0.1841
 6398W        W22015   5.044   0.835   4.842  0.2492  0.2320  0.0048
 6399W        W22016   8.295  14.587  14.803 -0.0250  0.2915 -0.2398
 6400W        W22017   7.880  11.556  12.126  0.0762  0.0477 -0.1491
 6401W        W22018   6.195   0.953  14.706 -0.2553 -0.0339 -0.0026
 6402W        W22019  11.570  12.246   0.763 -0.0267 -0.2186 -0.0301
 6403W        W22020   2.802   0.493  15.161 -0.2213  0.1891 -0.0510
 6404W        W22021   2.141  16.579  14.229  0.2775 -0.1168  0.2433
 6405W        W22022  16.014  14.525   3.586  0.0240  0.0859 -0.1860
 6406W        W22023   5.323   8.042  14.945 -0.1984  0.0527  0.3115
 6407W        W22024   2.302  15.019   4.736  0.2236  0.1673  0.2401
 6408W        W22025   6.889  18.037  15.506 -0.0830 -0.2503 -0.1786
 6409W        W22026  16.226   4.694  10.966 -0.1826 -0.0662 -0.0415
 6410W        W22027  11.985   2.887   3.322 -0.1274  0.0697 -0.0354
 6411W        W22028   0.522  16.181   3.497  0.2163  0.1524  0.0391
 6412W        W22029   9.604   6.263   4.077  0.1792 -0.1602  0.0657
 6413W        W22030  11.784   1.300   1.314 -0.4816 -0.1402  0.1014
 6414W        W22031   9.398  14.345  14.185  0.2174 -0.3096  0.0875
 6415W        W22032   3.097   8.786  13.836 -0.3044  0.0073  0.1697
 6416W        W22033   8.243   7.547   3.362 -0.0208 -0.3137 -0.0343
 6417W        W22034   1.150  17.022  12.480  0.1939  0.0722  0.0683
 6418W        W22035   5.657  13.802  12.525  0.0616  0.0019 -0.1061
 6419W        W22036  12.778   3.405   3.052 -0.3447 -0.0725  0.1309
 6420W        W22037  10.794   6.307  12.981 -0.1685  0.1244  0.0483
 6421W        W22038   4.405  11.662   1.646  0.0426 -0.0637 -0.1205
 6422W        W22039  11.123   9.527  12.884 -0.0371 -0.3892 -0.2214
 6423W        W22040  13.676  12.318  11.798  0.3512  0.0818 -0.4596
 6424W        W22041  13.823   9.899   2.722 -0.0056  0.0994  0.1112
 6425W        W22042   1.085   8.384   4.987 -0.2868  0.2956  0.1124
 6426W        W22043  17.089  17.616   4.287  0.0829  0.0435  0.0179
 6427W        W22044  14.104  12.505   5.749  0.3447 -0.3820 -0.2325
 6428W        W22045  14.556   8.089   5.090  0.0388  0.0900 -0.3214
 6429W        W22046   8.257   6.587   2.509  0.0655 -0.2036 -0.1508
 6430W        W22047   3.951  17.391   1.390 -0.1093 -0.1133  0.1631
 6431W        W22048   3.580  16.816   2.216 -0.1574 -0.2650  0.3959
 6432W        W22049   7.417   1.052   1.485  0.0210  0.0622  0.1116
 6433W        W22050   1.481  10.174   1.543 -0.0362 -0.2966  0.0948
 6434W        W22051  16.958   4.328  16.491 -0.4020 -0.1319  0.1097
 6435W        W22052  15.168  16.765  15.176 -0.3554 -0.0331 -0.2473
 6436W        W22053  14.890   4.353   1.436 -0.0804  0.0569 -0.1634
 6437W        W22054  13.001   1.033  16.142  0.1032 -0.0621 -0.3965
 6438W        W22055  15.206   1.779  12.398 -0.1582 -0.0454  0.1751
 6439W        W22056  14.465   2.781   3.681 -0.1023  0.0726 -0.0517
 6440W        W22057   3.552  13.469  14.243  0.0334 -0.0593 -0.0663
 6441W        W22058  12.359  17.375  12.124  0.1480 -0.1241 -0.1811
 6442W        W22059   2.370  11.886  16.653 -0.1330  0.0982 -0.1292
 6443W        W22060   9.432   2.610   5.822 -0.0354 -0.0066 -0.2280
 6444W        W22061   2.458   7.005  13.178 -0.1307 -0.0652 -0.1415
 6445W        W22062   5.476   0.349  14.088 -0.4896 -0.4051  0.1172
 6446W        W22063  11.241   2.039   1.763 -0.1366  0.0210  0.1038
 6447W        W22064   5.920   1.236   4.162 -0.1648 -0.2342 -0.0582
 6448W        W22065  10.093   9.944   2.955 -0.1218 -0.2886 -0.0378
 6449W        W22066  11.973   4.210   4.040 -0.4445  0.1263  0.0676
 6450W        W22067   6.610  16.146  11.417  0.0893 -0.1197 -0.1661
 6451W        W22068   4.630   3.309   2.428  0.3873 -0.3021  0.1996
 6452W        W22069   6.303   3.440   2.725  0.0596  0.1992 -0.0420
 6453W        W22070   2.766   1.617  13.211  0.0276 -0.0086 -0.2305
 6454W        W22071   5.615   5.395   6.179 -0.0272 -0.0032  0.0022
 6455W        W22072  10.090   7.004   4.914 -0.0037  0.4765  0.0285
 6456W        W22073   9.138   1.939   2.050 -0.0058 -0.2314 -0.0060
 6457W        W22074  11.770   9.167  12.209 -0.2304 -0.0465 -0.5009
 6458W        W22075   4.124  14.898  14.477 -0.0335  0.0525 -0.1365
 6459W        W22076  16.934  10.242  15.431 -0.0726 -0.0055 -0.0654
 6460W        W22077   1.956  13.303  16.290 -0.1918 -0.1146  0.0007
 6461W        W22078   8.908   8.575  16.096 -0.2987 -0.2029  0.0159
 6462W        W22079   8.039   3.695  11.936 -0.1515  0.1037 -0.0805
 6463W        W22080   5.906   4.320  14.285 -0.4871  0.3557 -0.0020
 6464W        W22081  17.500   3.583  15.253  0.0692  0.2061  0.0120
 6465W        W22082   1.433  10.948   0.054  0.1713 -0.0170  0.1572
 6466W        W22083  17.120   1.520   1.783 -0.0579 -0.2048 -0.2861
 6467W        W22084   0.261   8.874   1.498 -0.0730  0.1050  0.3442
 6468W        W22085  11.926   9.783  16.796  0.1490 -0.0631  0.0672
 6469W        W22086   0.424   9.053  13.806 -0.1087  0.0784  0.1507
 6470W        W22087  14.674   7.374   1.766 -0.0379 -0.0161 -0.0199
 6471W        W22088  14.567   7.967  11.511 -0.0530 -0.0746 -0.0105
 6472W        W22089  12.004   8.360   6.452 -0.3831  0.0483 -0.3701
 6473W        W22090  11.658   3.253   3.873  0.3122 -0.3747 -0.2120
 6474W        W22091  10.564  11.431  16.255  0.4405  0.2865  0.0497
 6475W        W22092  13.568   2.451   5.815  0.2735  0.0957  0.0986
 6476W        W22093  12.333   3.553   4.957  0.2914 -0.1304 -0.0599
 6477W        W22094  15.561   6.224   5.149  0.1689  0.4176 -0.3105
 6478W        W22095  10.677  14.739  16.139  0.1970  0.1244 -0.1480
 6479W        W22096  12.715   9.582   2.586  0.1436  0.1563 -0.0831
 6480W        W22097  14.486   9.316  14.156 -0.0111  0.2641 -0.0210
 6481W        W22098   7.697  11.333   3.609  0.1599 -0.0127  0.2551
 6482W        W22099  11.192   4.187  10.854 -0.1407 -0.3435  0.1742
 6483W        W22100  14.155   8.471   4.994 -0.1801  0.3645  0.0629
 6484W        W22101   8.175   1.510   2.141 -0.1311 -0.3253  0.0239
 6485W        W22102  14.042   9.652   3.822  0.1783 -0.0827  0.2392
 6486W        W22103   1.703   7.931  16.572  0.2702  0.0884 -0.0172
 6487W        W22104  12.620  17.007  14.090  0.0880 -0.0681 -0.1846
 6488W        W22105   6.511  15.753  11.841 -0.0009 -0.0312 -0.0286
 6489W        W22106   1.378  11.686   3.013 -0.0843 -0.2532  0.1145
 6490W        W22107  11.559  13.236  14.287 -0.2347 -0.1081  0.0831
 6491W        W22108  12.318  11.450  16.622  0.2844  0.1851  0.2698
 6492W        W22109   7.816   9.881   2.953 -0.1718  0.1280 -0.0807
 6493W        W22110   7.587  16.888   3.621 -0.0494  0.1248 -0.0442
 6494W        W22111   4.168  12.819  13.832  0.2165 -0.1207 -0.1048
 6495W        W22112  16.059  11.598  14.397  0.0598  0.2048 -0.1270
 6496W        W22113   0.411  13.125  11.380  0.1427  0.1839  0.2787
 6497W        W22114   2.897  12.225  16.366 -0.0600  0.2160 -0.1786
 6498W        W22115   2.693   3.028   2.492  0.2304 -0.3243 -0.1391
 6499W        W22116  13.949   2.055   0.764  0.2342  0.0196 -0.1925
 6500W        W22117  14.188  14.497   4.697 -0.1149 -0.1034 -0.1505
 6501W        W22118   8.290   0.235  15.215 -0.1006 -0.0419  0.1667
 6502W        W22119   7.099   7.275   0.426 -0.3961 -0.1359 -0.3392
 6503W        W22120  14.998   4.255   5.903 -0.1054 -0.0861 -0.0849
 6504W        W22121   7.013   3.512   4.174 -0.0319  0.1224 -0.1144
 6505W        W22122  15.184   5.014   3.459  0.1386 -0.3559  0.2815
 6506W        W22123  17.497  11.692  15.153 -0.3761  0.1081  0.0931
 6507W        W22124   4.425  16.134  14.086 -0.2071 -0.2042 -0.1421
 6508W        W22125   3.680  17.691  12.406 -0.0899  0.1527 -0.2143
 6509W        W22126   8.498  11.964  11.513 -0.1859 -0.1838 -0.2805
 6510W        W22127   0.036   4.896  15.040  0.1042 -0.2492  0.0313
 6511W        W22128   6.759  15.016  12.273 -0.0423  0.0618 -0.2003
 6512W        W22129   9.649   9.100   0.796  0.0090 -0.0902  0.2932
 6513W        W22130  17.081  15.587  13.933  0.1483  0.0564  0.0610
 6514W        W22131  11.746   8.801   1.149 -0.1124  0.0774 -0.0568
 6515W        W22132  10.706   7.890  11.560  0.3466 -0.1433  0.1833
 6516W        W22133   8.238   7.733   4.027 -0.4067 -0.0500 -0.1716
 6517W        W22134  11.890   5.084   1.925 -0.2082  0.0342 -0.0498
 6518W        W22135   8.231   1.092   2.657  0.3719 -0.0503 -0.4061
 6519W        W22136  10.047   4.287  15.422 -0.1423  0.2879 -0.0959
 6520W        W22137   4.236  15.843   2.959 -0.0840 -0.0454 -0.0247
 6521W        W22138  11.019  14.536  16.480  0.5175 -0.3226 -0.0027
 6522W        W22139   0.162   4.666   3.679 -0.1437  0.2572  0.2867
 6523W        W22140  13.363   6.065  11.849 -0.1284  0.1679  0.0607
 6524W        W22141  15.641   2.894  15.376 -0.0281 -0.2970 -0.2572
 6525W        W22142   8.141   5.905   9.977  0.0021  0.1003 -0.2413
 6526W        W22143   8.429  15.994  16.374 -0.0456 -0.2193  0.1394
 6527W        W22144  13.452  10.478   0.992 -0.0819  0.0907 -0.2815
 6528W        W22145   6.481  11.033   5.515  0.2457  0.0791 -0.2018
 6529W        W22146   4.987   4.014   4.546 -0.5230  0.0995  0.0055
 6530W        W22147  15.470   3.663  12.353  0.1361 -0.0110  0.1155
 6531W        W22148  16.201  13.076   5.189  0.0691 -0.0801  0.1893
 6532W        W22149  17.556  15.455  14.970  0.0852 -0.0010  0.1436
 6533W        W22150  16.573   6.513   0.432 -0.3124 -0.3683 -0.0211
 6534W        W22151  15.205   7.740  11.812 -0.2205 -0.3450  0.0840
 6535W        W22152  16.723   0.760  12.187 -0.1748 -0.2419 -0.0413
 6536W        W22153   5.564   0.753   3.481  0.0893 -0.2824 -0.1250
 6537W        W22154  14.132  15.363  13.576  0.0179 -0.0883 -0.0609
 6538W        W22155  15.189   3.639   4.602  0.1171  0.3621  0.2090
 6539W        W22156   8.286   9.174   5.004 -0.1352 -0.2993  0.0848
 6540W        W22157  13.897   6.162   5.880 -0.0650 -0.0338 -0.1732
 6541W        W22158  13.879  13.061   0.672  0.1424  0.2028 -0.1001
 6542W        W22159   7.662   1.438  14.553 -0.2112 -0.0119 -0.1702
 6543W        W22160   1.090  10.995   3.735  0.1590 -0.4901  0.2426
 6544W        W22161  16.160  17.312  15.120  0.0271  0.0884 -0.1456
 6545W        W22162  17.244   6.699   1.086 -0.0594 -0.2907  0.1855
 6546W        W22163   9.065  14.787   0.088  0.0381  0.0129 -0.2642
 6547W        W22164   1.570  15.526  15.513 -0.2334  0.2796 -0.1896
 6548W        W22165   1.744   2.366  14.830  0.0363 -0.0027  0.4398
 6549W        W22166   0.868   2.563   4.873  0.5541  0.2506  0.0967
 6550W        W22167  18.000   5.045   1.864  0.1214  0.2186 -0.2273
 6551W        W22168   7.116  16.239   0.105 -0.0016 -0.2273  0.2158
 6552W        W22169   8.963  12.936  13.642 -0.2144 -0.1268  0.2075
 6553W        W22170  11.960  12.627   2.700 -0.1501 -0.0120 -0.0497
 6554W        W22171  16.776  10.824  15.625  0.0652 -0.1393 -0.0537
 6555W        W22172  14.457   4.343  13.982 -0.3539 -0.1335  0.2100
 6556W        W22173  15.737   2.296   2.501 -0.1290 -0.1532 -0.0312
 6557W        W22174   8.778  13.508   3.374  0.1478  0.0963  0.1294
 6558W        W22175  15.509   1.909  14.909  0.2282 -0.1711  0.1349
 6559W        W22176  17.073  11.078  10.740  0.2390 -0.0008 -0.0597
 6560W        W22177   0.968   6.340  15.796  0.1800 -0.2527 -0.1598
 6561W        W22178  14.262   3.005  14.229 -0.1727  0.3417  0.0404
 6562W        W22179  14.933  10.293   1.755  0.1877  0.2729  0.0698
 6563W        W22180  13.619  14.680  15.954 -0.1427 -0.0541 -0.0061
 6564W        W22181   0.446  10.897  14.786 -0.1268  0.3069 -0.0629
 6565W        W22182   5.189  15.091  16.652  0.0262  0.2506 -0.1717
 6566W        W22183  12.719   0.103  14.810 -0.1897 -0.0974 -0.0658
 6567W        W22184   4.822   1.672   0.457  0.1352  0.1693  0.2355
 6568W        W22185  10.929   2.178   2.697 -0.1479  0.1674  0.2121
 6569W        W22186   6.543  11.433   1.631  0.0302  0.2928 -0.1439
 6570W        W22187  13.304   5.861   4.590 -0.0896 -0.0534  0.3629
 6571W        W22188   1.608   3.582   4.240  0.2764  0.0841 -0.2961
 6572W        W22189   3.719   9.501  16.074 -0.0967 -0.2185  0.0462
 6573W        W22190  16.722  16.273  14.143  0.1847 -0.3305 -0.1108
 6574W        W22191  12.995   0.159  11.650  0.3360 -0.0046 -0.5584
 6575W        W22192  12.621  17.395   0.659  0.0101 -0.1339 -0.1299
 6576W        W22193   8.030  14.215   2.581 -0.2366  0.0097 -0.1410
 6577W        W22194  13.597   5.510   4.480  0.0218 -0.0722 -0.0918
 6578W        W22195   8.279  14.272  12.307  0.4067 -0.0083  0.1732
 6579W        W22196   6.801  12.761   2.065 -0.1222 -0.3646  0.0262
 6580W        W22197  16.370   7.819  10.914  0.2679 -0.0302 -0.0211
 6581W        W22198   1.712   7.195  16.074 -0.0215  0.1728 -0.0195
 6582W        W22199   3.755   5.425   1.456 -0.2552 -0.1387  0.0818
 6583W        W22200  13.063   8.227   4.350  0.2476  0.5065 -0.0975
 6584W        W22201  15.710  15.434  13.725  0.1631  0.1989 -0.1541
 6585W        W22202  14.269   6.870  12.552 -0.0024 -0.1392 -0.0211
 6586W        W22203  17.081   8.507   2.839 -0.1081  0.2074  0.1960
 6587W        W22204   8.031  13.583   6.042  0.1038  0.2004 -0.1001
 6588W        W22205   4.260  14.992   2.731 -0.1508 -0.2153 -0.0809
 6589W        W22206  10.745   4.214   1.346 -0.0478  0.0484  0.2944
 6590W        W22207   2.231  13.383  13.655 -0.1175  0.2304  0.0249
 6591W        W22208  16.172  11.323   3.133 -0.0064  0.2089  0.1420
 6592W        W22209  11.329  12.103   2.986 -0.0344 -0.1377 -0.0452
 6593W        W22210  13.682   6.830   1.267 -0.3730  0.3199  0.0333
 6594W        W22211   6.173  13.067   2.128  0.0470 -0.3530 -0.0380
 6595W        W22212   7.866   7.804   0.043 -0.0348  0.0620  0.0490
 6596W        W22213   4.316  16.318  14.570  0.1503  0.2962  0.0465
 6597W        W22214   9.524  12.999   3.059  0.0394  0.1872  0.2530
 6598W        W22215  13.354  13.572   3.765  0.0096  0.2767  0.0860
 6599W        W22216   8.698  17.832   2.991  0.1207  0.1375  0.3806
 6600W        W22217  15.657   3.886   4.444  0.4239  0.0240  0.1039
 6601W        W22218   4.274   9.003  14.314 -0.0341  0.1046 -0.0488
 6602W        W22219   2.123   3.291   0.954 -0.0224 -0.1718 -0.0368
 6603W        W22220   7.192  16.490  15.189 -0.3967  0.2790  0.0317
 6604W        W22221   1.859  12.386  12.725  0.2103 -0.0331 -0.3038
 6605W        W22222   8.610   6.749  15.215  0.1348  0.1112 -0.1835
 6606W        W22223   7.505   7.594   2.903  0.0482 -0.2251 -0.0367
 6607W        W22224   3.173  16.683  11.874 -0.0020  0.0147  0.2221
 6608W        W22225  17.800   5.742   6.901 -0.2722  0.1232  0.4849
 6609W        W22226  10.498   8.614  12.077  0.1584  0.3178  0.3104
 6610W        W22227   4.462   2.406  13.357  0.2127  0.0494 -0.1197
 6611W        W22228   8.705   7.544   3.179 -0.0154 -0.0871  0.1907
 6612W        W22229  17.289  17.655  16.205 -0.0989 -0.2776 -0.1132
 6613W        W22230   0.308  14.232   4.762  0.0226 -0.1042 -0.0240
 6614W        W22231   1.082  15.680  15.332  0.2847 -0.0183 -0.2192
 6615W        W22232  11.808  14.265  14.672 -0.3133 -0.1932  0.1790
 6616W        W22233   1.985  10.990  16.319  0.3565 -0.0669 -0.3465
 6617W        W22234   5.060  11.157   0.977 -0.0730 -0.2300 -0.0099
 6618W        W22235  13.129   3.058   5.487 -0.3827  0.0158 -0.0702
 6619W        W22236   7.073  16.074   0.654  0.0771 -0.1995 -0.2957
 6620W        W22237  14.656  15.107   4.920  0.0506  0.2591 -0.1719
 6621W        W22238  16.596   5.900  15.083 -0.1459  0.3255  0.0835
 6622W        W22239   9.894  14.403  12.374 -0.3455 -0.1075 -0.0595
 6623W        W22240  13.816  11.905  13.247 -0.0121  0.1164 -0.2736
 6624W        W22241   1.355   9.717   1.706 -0.1778  0.1558  0.1313
 6625W        W22242  13.411  17.561   5.338 -0.3233  0.0351 -0.0468
 6626W        W22243  10.428  12.086  14.830  0.1198  0.0575 -0.2791
 6627W        W22244  14.297   5.693   2.982 -0.1451 -0.1472  0.0849
 6628W        W22245   8.778   7.807  15.428 -0.0311  0.2051 -0.3459
 6629W        W22246   8.967  17.032  16.058 -0.0078 -0.1885  0.3496
 6630W        W22247   1.651  12.045   1.340 -0.2952 -0.0534 -0.0258
 6631W        W22248   2.116   4.762   6.162 -0.1529 -0.1600  0.0086
 6632W        W22249   2.670  12.202  13.275 -0.2497 -0.4544 -0.1343
 6633W        W22250   5.515  17.104   4.804 -0.3451  0.1999  0.2335
 6634W        W22251  12.342  17.794   2.897 -0.1959 -0.4858 -0.1449
 6635W        W22252  16.499  17.753   0.089 -0.1767 -0.3205  0.0606
 6636W        W22253  10.235  16.697   3.776 -0.3559 -0.5037  0.2718
 6637W        W22254   5.257   7.423   0.319  0.1431  0.0299  0.0918
 6638W        W22255   7.641   4.871   5.147  0.2956 -0.3507  0.2561
 6639W        W22256  17.658  16.737   5.356  0.4199 -0.1555  0.1124
 6640W        W22257  17.978   0.647   5.719  0.0586 -0.0435 -0.4015
 6641W        W22258   4.699   3.052  11.958 -0.3449  0.0007 -0.3898
 6642W        W22259   6.700   6.331   2.992 -0.0452  0.0086 -0.3764
 6643W        W22260   5.875   1.431   1.955 -0.1697 -0.0284 -0.3150
 6644W        W22261  14.130   6.292  15.797 -0.0549 -0.2980 -0.0234
 6645W        W22262   0.418   5.545  16.112  0.4234 -0.2084  0.2462
 6646W        W22263   1.048  11.520  12.846  0.1936  0.3512 -0.1293
 6647W        W22264   1.352   3.350  12.111  0.0065 -0.0367 -0.2352
 6648W        W22265   3.110   8.116  16.207 -0.2181 -0.0240 -0.0277
 6649W        W22266  11.617   1.582  16.512  0.3208  0.2054 -0.0880
 6650W        W22267   4.242   0.879  12.231 -0.0140  0.3850 -0.0205
 6651W        W22268  14.349  11.990  12.528  0.0398 -0.1167 -0.4217
 6652W        W22269   0.796  16.120  16.230 -0.0567  0.0838 -0.0581
 6653W        W22270   1.742   8.841  12.908  0.1148 -0.0300 -0.0873
 6654W        W22271  12.836   8.386   3.885  0.1136 -0.0128  0.0417
 6655W        W22272   0.914   6.806  14.941 -0.1227 -0.0716  0.1658
 6656W        W22273  12.799   0.536   2.032  0.0963 -0.0447 -0.1165
 6657W        W22274   1.828  17.702   3.293  0.0620 -0.2396  0.3004
 6658W        W22275  12.335  16.950   4.605 -0.3145  0.2934  0.3876
 6659W        W22276   4.462  13.322   0.990  0.2442  0.2328 -0.3964
 6660W        W22277  17.946   9.339  16.482 -0.2299 -0.1763  0.3115
 6661W        W22278   3.288  10.615  13.152 -0.0555 -0.0748  0.0084
 6662W        W22279   7.262   2.354   2.531  0.0371  0.1654 -0.0746
 6663W        W22280   3.452   4.271  13.083 -0.1412 -0.2240  0.0966
 6664W        W22281   7.896   5.277   5.108 -0.0010 -0.3383  0.1754
 6665W        W22282  15.978   1.402   5.217 -0.1490 -0.1258 -0.0289
 6666W        W22283   8.183   8.379  15.054 -0.0403 -0.4029  0.2026
 6667W        W22284   0.650   3.765   5.553  0.4120 -0.1241 -0.0142
 6668W        W22285  11.952  10.171   3.865 -0.2073 -0.2184 -0.0149
 6669W        W22286   7.097   4.983   4.389 -0.1125 -0.0292  0.0999
 6670W        W22287  14.078   8.152  12.726 -0.0078  0.0529  0.2958
 6671W        W22288  11.599  15.321   1.717  0.0988  0.3764  0.1412
 6672W        W22289  16.696   1.517   0.938 -0.2478  0.0338  0.1796
 6673W        W22290   1.242  16.464  15.746  0.2744 -0.4242  0.0413
 6674W        W22291   4.676   0.386  13.491 -0.0140 -0.0327  0.0820
 6675W        W22292   9.109  13.124   5.633 -0.0986  0.3929 -0.0512
 6676W        W22293   7.570   6.383  12.616  0.2301  0.0601 -0.0805
 6677W        W22294   9.628   6.678  13.349 -0.2771  0.1951  0.0280
 6678W        W22295   1.794   6.553   2.917 -0.0960  0.0464  0.1544
 6679W        W22296   1.155  16.606   2.580 -0.1417 -0.2420  0.1005
 6680W        W22297  17.640  16.510  13.293  0.0504 -0.0595 -0.3197
 6681W        W22298  15.588   5.981   3.705 -0.1734  0.0767 -0.0564
 6682W        W22299  12.514   6.706   3.154 -0.1875  0.0260  0.0910
 6683W        W22300   2.444   5.006  16.270  0.1484 -0.0830  0.1413
 6684W        W22301   3.727   7.700   1.893 -0.3604 -0.1897  0.2994
 6685W        W22302   2.784   4.570  13.704 -0.3453  0.0273 -0.1086
 6686W        W22303  11.374   7.652  13.937  0.1076  0.0297  0.1298
 6687W        W22304  11.593   7.714   4.008 -0.1547 -0.1307  0.0507
 6688W        W22305  13.268  14.945   5.279  0.0982  0.0888  0.0549
 6689W        W22306  11.558  15.573  12.443  0.1139 -0.1546 -0.2422
 6690W        W22307  11.262  10.994   2.340  0.1620 -0.2486  0.3154
 6691W        W22308   0.072  12.185   3.463  0.1480  0.0317  0.0230
 6692W        W22309   8.273   8.128  16.750 -0.0551 -0.4364 -0.1754
 6693W        W22310  12.053   1.726   5.161 -0.4673  0.1002  0.0882
 6694W        W22311   3.252   4.606  12.095  0.0121 -0.5354 -0.1663
 6695W        W22312   9.458  11.102  13.032 -0.1360  0.1054  0.0208
 6696W        W22313   7.331  12.206  12.484  0.0351  0.2308 -0.2714
 6697W        W22314   4.765  11.189  11.451  0.0712  0.1724 -0.1407
 6698W        W22315   8.224  15.365  11.410  0.2249 -0.0986  0.1111
 6699W        W22316   4.649   5.033  13.240 -0.3867  0.0705  0.0695
 6700W        W22317  14.711   4.228   1.018 -0.0860  0.0152 -0.0369
 6701W        W22318  17.983   2.792  15.673  0.1528 -0.0856 -0.1328
 6702W        W22319  16.020  10.407  11.467  0.0819  0.1967  0.2199
 6703W        W22320  16.882  16.302  16.604 -0.0872  0.0048  0.2763
 6704W        W22321  14.859   1.423   4.653  0.1694  0.0823 -0.0242
 6705W        W22322  12.429  11.902  13.808 -0.5415  0.1157 -0.2406
 6706W        W22323   6.233  17.630   6.159 -0.0157 -0.1813  0.1132
 6707W        W22324  15.256  13.799   0.392 -0.2586  0.0494 -0.1328
 6708W        W22325   7.921  16.165   4.004 -0.0144  0.3400 -0.0015
 6709W        W22326   9.003   2.205   5.753 -0.2534 -0.0202 -0.1588
 6710W        W22327  11.821   5.249   0.400  0.2360  0.0864 -0.1547
 6711W        W22328  12.390  17.695  14.791 -0.1552  0.0200  0.0894
 6712W        W22329   4.014   2.866  16.673  0.1035  0.0609  0.1387
 6713W        W22330  15.051   8.509   2.381  0.1133 -0.4032 -0.2377
 6714W        W22331   8.861  10.525   2.012  0.3376 -0.1201  0.2331
 6715W        W22332  13.023   6.305   4.766  0.0295 -0.1688 -0.1390
 6716W        W22333  17.039  13.727   4.094  0.1127  0.1600 -0.4001
 6717W        W22334   3.293   2.548  13.318 -0.5321 -0.1560  0.2304
 6718W        W22335  12.190   6.713   0.430  0.0883 -0.0632 -0.0589
 6719W        W22336   9.750  14.613   0.922  0.0588 -0.1449  0.1083
 6720W        W22337   8.203   2.832   3.426 -0.1109 -0.1665  0.1406
 6721W        W22338   4.873  15.489   4.756  0.2740 -0.0826 -0.2464
 6722W        W22339  15.956  17.032   0.005  0.2262 -0.1708  0.1882
 6723W        W22340  14.351   8.296  13.072  0.1020 -0.0811 -0.1898
 6724W        W22341  10.549   9.502   4.648 -0.2412 -0.1922 -0.0345
 6725W        W22342   5.647  10.623  15.230 -0.0235  0.1192 -0.1160
 6726W        W22343   9.980  13.326   2.480  0.2314 -0.4751  0.1742
 6727W        W22344  12.960  16.686   1.073  0.0337  0.2012  0.3964
 6728W        W22345  10.101   5.971   0.163 -0.1153 -0.0144  0.2566
 6729W        W22346   7.106   0.746   5.357 -0.0936  0.0855  0.0117
 6730W        W22347   2.434   4.985  13.461  0.0886 -0.0743 -0.1133
 6731W        W22348  13.030   0.986  14.566 -0.4760 -0.2532 -0.0680
 6732W        W22349  11.021   5.731   0.614  0.1248 -0.3572 -0.0969
 6733W        W22350   4.674  15.749  13.166  0.1290 -0.1103 -0.0105
 6734W        W22351   7.471   0.832  13.891  0.1003 -0.1114  0.3996
 6735W        W22352  12.763  12.035   4.664  0.2120  0.3082  0.2568
 6736W        W22353  10.991  17.848  14.871  0.3686  0.0444  0.2733
 6737W        W22354   0.194   1.122   4.197 -0.0824 -0.0610 -0.2158
 6738W        W22355  11.321  17.351  13.170  0.0980  0.0844 -0.0761
 6739W        W22356   0.634   5.758   2.933 -0.2826 -0.1691  0.1084
 6740W        W22357   3.859  15.356   1.831  0.0492 -0.0855 -0.1639
 6741W        W22358  13.032   6.215  12.992 -0.1375 -0.0821 -0.0443
 6742W        W22359   8.934   1.692   0.928  0.1214 -0.1027 -0.4245
 6743W        W22360  11.945   0.119   3.213  0.2085  0.1780 -0.0122
 6744W        W22361  16.720  12.819   0.819  0.0588 -0.0714  0.1801
 6745W        W22362  17.169  13.147  15.625  0.2512 -0.1276  0.1402
 6746W        W22363  13.941   8.621   5.458  0.0068 -0.3230 -0.0836
 6747W        W22364   8.177  14.508   0.359 -0.1681 -0.0126  0.0176
 6748W        W22365   8.450  17.044   1.064 -0.1241 -0.0918  0.2900
 6749W        W22366  13.675  16.491  13.650 -0.1069 -0.0020 -0.1247
 6750W        W22367   0.889  16.168   0.367 -0.0672  0.1379 -0.1409
 6751W        W22368  13.685  11.697  11.873  0.2988 -0.0150  0.1330
 6752W        W22369  17.967   7.765   3.492  0.0437  0.1709 -0.0571
 6753W        W22370  10.120   8.625  14.071  0.1196 -0.2129  0.1576
 6754W        W22371  15.245   9.356  13.420  0.1615  0.0528 -0.1095
 6755W        W22372   5.283  17.616   3.037  0.0688 -0.0564 -0.0761
 6756W        W22373  17.351  10.839  16.276 -0.0574  0.0180 -0.4954
 6757W        W22374  13.909   5.761   3.772 -0.0599 -0.0706 -0.1463
 6758W        W22375   2.196  13.724  14.115 -0.2154 -0.0297  0.0279
 6759W        W22376   1.188   4.995   1.352  0.0901  0.2054  0.0333
 6760W        W22377  16.750  15.000   6.133 -0.2664  0.0136 -0.0288
 6761W        W22378   9.927  12.699   3.203 -0.1827 -0.2663 -0.2787
 6762W        W22379   1.238   1.033   1.336 -0.2085  0.0713 -0.2379
 6763W        W22380  11.044   6.043   2.080  0.1986  0.2917  0.2283
 6764W        W22381   4.658   8.108   0.047  0.2023 -0.0335  0.1217
 6765W        W22382   1.917   7.985   3.004  0.1398  0.1846 -0.2147
 6766W        W22383  16.175   1.648   1.478 -0.4596  0.1259  0.0219
 6767W        W22384  13.611   0.059  15.257 -0.1022 -0.1929  0.1284
 6768W        W22385  10.283   0.211   0.347  0.1020  0.0367 -0.2127
 6769W        W22386   7.151  15.966  16.101 -0.3157  0.0092 -0.1396
 6770W        W22387   1.121  16.810  11.942 -0.0695 -0.0880 -0.2056
 6771W        W22388   6.613   9.725  16.236 -0.2193  0.2731 -0.1596
 6772W        W22389  16.364   3.149   0.388  0.0422 -0.1429  0.0659
 6773W        W22390  13.773   6.286   2.414 -0.2872 -0.1594 -0.1122
 6774W        W22391   9.076  12.514  14.902 -0.0035  0.3030 -0.0378
 6775W        W22392   8.487   2.112  16.722  0.0176 -0.0363 -0.0937
 6776W        W22393  16.808  14.068   2.213 -0.2140 -0.3863  0.2100
 6777W        W22394  11.072  17.810   4.408  0.0318  0.1612  0.1107
 6778W        W22395   6.118  17.019  11.749 -0.0235 -0.3929 -0.1237
 6779W        W22396   7.052   6.455   3.459  0.0857  0.1103  0.2133
 6780W        W22397   4.304  17.572  15.721  0.0284 -0.0469 -0.1723
 6781W        W22398   4.948  17.433   6.385  0.5409  0.1116 -0.1363
 6782W        W22399   3.532   2.009  15.153 -0.0889 -0.0159  0.0370
 6783W        W22400   1.283  14.191  14.785 -0.3619  0.1777  0.1204
 6784W        W22401   5.232   9.183   1.907 -0.3774 -0.1367  0.0658
 6785W        W22402  17.622   5.063  15.980 -0.1248 -0.4202  0.1526
 6786W        W22403   5.059  16.039   4.843 -0.2005  0.1083  0.2579
 6787W        W22404  14.360   7.161  14.721 -0.1653 -0.2931  0.0951
 6788W        W22405  12.737   1.780   0.705  0.0428 -0.0360 -0.5198
 6789W        W22406  10.938  11.046   3.024 -0.0745 -0.2257 -0.0338
 6790W        W22407  14.398   2.953   2.326  0.0482 -0.0784 -0.2527
 6791W        W22408   9.514  12.186  10.495  0.1535  0.1074  0.0372
 6792W        W22409  12.400  10.202  11.090 -0.1978 -0.3510  0.0384
 6793W        W22410  13.099   0.045   1.888 -0.2830  0.0286  0.3721
 6794W        W22411  15.363   3.052  16.724 -0.0897 -0.0876  0.1404
 6795W        W22412   7.431   8.549   1.413 -0.0481 -0.0968  0.2316
 6796W        W22413   8.341   9.324   9.739  0.0694 -0.3352 -0.1495
 6797W        W22414   7.198   8.182   1.874  0.0370  0.3165  0.0885
 6798W        W22415  17.254  15.838   2.904 -0.1664 -0.1333  0.0877
 6799W        W22416  12.458  15.576  16.429 -0.1242  0.3046  0.0819
 6800W        W22417   1.040   5.533   4.130  0.1548  0.0180  0.0722
 6801W        W22418   8.365  15.697  13.525 -0.0192 -0.0794 -0.0004
 6802W        W22419  13.175  16.439  14.482 -0.0294 -0.3165 -0.0154
 6803W        W22420   8.165  11.713  15.946  0.0114  0.0780  0.0657
 6804W        W22421   0.752   0.366  14.812 -0.0022 -0.1689 -0.0607
 6805W        W22422  14.424  11.627   5.170  0.1447 -0.0829 -0.3697
 6806W        W22423   8.546   0.616  16.534 -0.0717 -0.1349  0.2853
 6807W        W22424   5.625   0.592   6.340 -0.1926 -0.1608  0.2569
 6808W        W22425   6.030  10.634   4.777  0.2754  0.0046  0.0532
 6809W        W22426  16.250   5.800  12.414 -0.0254  0.3017 -0.1690
 6810W        W22427   0.386  15.194   5.132 -0.0151 -0.1089 -0.0371
 6811W        W22428   9.080   2.663  10.512 -0.2030 -0.0322  0.1462
 6812W        W22429  15.605   5.383  15.079  0.0793  0.3455  0.1920
 6813W        W22430   4.975   9.858   4.664  0.0120 -0.0472  0.0031
 6814W        W22431  11.637  11.974   5.662 -0.2029  0.1306 -0.1698
 6815W        W22432  13.232  11.464  12.016 -0.1193  0.0756  0.2224
 6816W        W22433   5.854  10.422   0.173 -0.1883  0.0523 -0.3126
 6817W        W22434   5.135  13.821   4.210 -0.1861  0.1262 -0.2169
 6818W        W22435  17.995   7.747  14.680 -0.0499 -0.3704 -0.4143
 6819W        W22436  16.377   3.942   5.705 -0.2373  0.3642 -0.1283
 6820W        W22437  10.405  17.792  14.540  0.2269  0.0827  0.2532
 6821W        W22438  15.164   5.511   4.593 -0.0158  0.1325 -0.1518
 6822W        W22439  17.304   1.458   3.429  0.0047  0.1417 -0.1236
 6823W        W22440  15.220  13.318   3.250 -0.1113 -0.2476 -0.0113
 6824W        W22441  15.276   0.309   1.192 -0.0261 -0.1292  0.0051
 6825W        W22442   7.057   2.286  14.108 -0.1233 -0.0015  0.2040
 6826W        W22443   2.184  11.895   1.486  0.0067 -0.1204 -0.1329
 6827W        W22444   1.678   5.181   3.584  0.1027  0.0303 -0.0107
 6828W        W22445  10.122   8.576  14.928 -0.2711  0.0222  0.2214
 6829W        W22446  16.279   2.090   3.665  0.5596  0.1926 -0.0508
 6830W        W22447  13.095  17.812  11.963  0.2928  0.1052 -0.2016
 6831W        W22448   0.173  14.563  13.281 -0.0679  0.0753  0.1198
 6832W        W22449   7.730   7.752  13.524  0.0643  0.0348  0.2542
 6833W        W22450   4.478   9.976  12.182 -0.0936 -0.0248 -0.2219
 6834W        W22451   2.977   7.437  14.070  0.2369 -0.2597 -0.0233
 6835W        W22452   2.134  13.774  12.429  0.0736  0.3870  0.0281
 6836W        W22453   3.788  15.318   5.537 -0.1942 -0.2967 -0.2274
 6837W        W22454  15.417  16.241   4.886  0.0484 -0.2512  0.2871
 6838W        W22455  10.264   9.266  16.762 -0.1849  0.2632 -0.2448
 6839W        W22456  10.353   9.227   2.249 -0.1766  0.0743  0.3401
 6840W        W22457  16.913  15.363   4.534  0.3668  0.0617 -0.1666
 6841W        W22458   2.850  11.702   2.156  0.1153 -0.1877 -0.4002
 6842W        W22459  16.557   7.813  12.713  0.2681 -0.0754  0.1000
 6843W        W22460  12.994   1.091  15.590  0.0679 -0.1953 -0.1230
 6844W        W22461   2.285   7.788   5.123  0.2895  0.0044 -0.0389
 6845W        W22462   5.063   2.372   0.073 -0.5057 -0.0697 -0.3560
 6846W        W22463  17.935  14.272   1.885  0.5769 -0.1417 -0.0781
 6847W        W22464   6.597   3.324   3.149 -0.2995 -0.3261 -0.2324
 6848W        W22465  15.005  11.486  14.799 -0.0265  0.2075 -0.1436
 6849W        W22466  10.760   3.052   0.349  0.1518  0.0634  0.1901
 6850W        W22467  17.382   0.701  16.340  0.2244 -0.0432 -0.2193
 6851W        W22468   9.401   2.330   2.291 -0.0943 -0.1125  0.1373
 6852W        W22469  10.264  11.791   0.888  0.3348  0.1665 -0.2538
 6853W        W22470  11.516   4.780  13.017  0.1255  0.3603  0.1555
 6854W        W22471  15.584   4.870   2.356  0.0955  0.2199  0.1114
 6855W        W22472  15.499  12.383   3.572 -0.0014 -0.3290  0.0395
 6856W        W22473  17.943   6.197   0.816  0.0537 -0.0525  0.1503
 6857W        W22474  14.347  17.602   2.449 -0.0969 -0.1559  0.0418
 6858W        W22475   9.372  17.267   1.545  0.2833 -0.1980  0.0926
 6859W        W22476   5.658  13.851   1.584  0.4668  0.0697 -0.2123
 6860W        W22477   6.111  11.130   1.530  0.0903  0.3314 -0.0444
 6861W        W22478  10.353  17.221  12.572  0.3631  0.1542 -0.0875
 6862W        W22479  11.881   1.929  12.598  0.0461  0.1720  0.0123
 6863W        W22480  11.016  17.294  15.700  0.0503 -0.1029  0.2454
 6864W        W22481  15.207   8.578  12.881 -0.2388  0.0880  0.3462
 6865W        W22482   2.856   2.436  12.960  0.0001 -0.2479  0.1115
 6866W        W22483   8.722   8.556   4.046  0.6205 -0.2053  0.1975
 6867W        W22484   6.626   3.516   1.420 -0.2865  0.0095 -0.0063
 6868W        W22485  13.737  15.291  11.680  0.1550 -0.0813  0.1974
 6869W        W22486   7.753  12.820  13.719  0.0659 -0.1316 -0.0353
 6870W        W22487  14.066  13.094   1.604 -0.0404 -0.0943 -0.2068
 6871W        W22488  12.773   9.432  15.129  0.0199 -0.0447 -0.1196
 6872W        W22489   5.468  16.959   6.203  0.3992 -0.0318  0.1806
 6873W        W22490   7.652  13.954   2.176 -0.0297  0.3191 -0.2911
 6874W        W22491   6.729  13.469   4.357 -0.2429 -0.0807 -0.1880
 6875W        W22492   2.659   7.137   2.162 -0.2226  0.3488  0.1445
 6876W        W22493  15.045   7.167   4.227  0.3013  0.1116 -0.1052
 6877W        W22494   8.621   0.893   1.300  0.4268  0.0272  0.0090
 6878W        W22495   0.544   4.042  15.903  0.1623  0.0684  0.2994
 6879W        W22496  12.288  16.383   2.077 -0.3041 -0.0113  0.2520
 6880W        W22497   2.120  13.302  15.191  0.1384  0.0865 -0.2607
 6881W        W22498  16.588   0.083   0.768 -0.1248  0.0091 -0.1746
 6882W        W22499   1.859   4.602   1.508  0.0542 -0.4023 -0.2265
 6883W        W22500   3.793  13.967  13.301 -0.0165 -0.1457 -0.2477
 6884W        W22501  16.042  16.203  15.031  0.4487 -0.2953 -0.1775
 6885W        W22502  15.075   2.459   1.987 -0.0971  0.0641  0.0984
 6886W        W22503   2.055  12.260  15.396  0.2371  0.1518  0.2264
 6887W        W22504  11.221   6.065   3.445 -0.6411 -0.1681 -0.3218
 6888W        W22505  12.683  13.065   0.513 -0.0105  0.1123  0.2416
 6889W        W22506   3.142  13.169  13.525  0.0726  0.2901  0.1404
 6890W        W22507  17.536   4.385   1.999 -0.2556 -0.0957 -0.2157
 6891W        W22508  16.570   1.237  11.994 -0.0531  0.1284 -0.2618
 6892W        W22509  13.434   1.429   5.458  0.1320 -0.2784 -0.2626
 6893W        W22510   3.484   7.735  12.568 -0.2660  0.0065  0.1126
 6894W        W22511   2.025  16.884  13.062  0.1074 -0.0834  0.1963
 6895W        W22512  12.683   3.118   5.964  0.1500 -0.0768 -0.0526
 6896W        W22513  16.001   6.791  13.065 -0.2048 -0.0410 -0.0792
 6897W        W22514   1.597  14.800   5.783 -0.0626  0.2911  0.2843
 6898W        W22515   3.841   8.816   3.918  0.0436  0.5172  0.0443
 6899W        W22516   5.548  13.240   2.895 -0.0469  0.1161 -0.1562
 6900W        W22517   4.354   8.851   5.574 -0.2916 -0.4116 -0.3209
 6901W        W22518   0.061  17.359   2.013  0.1155  0.0060 -0.0424
 6902W        W22519   0.784  15.720  13.517 -0.1200 -0.1069  0.2418
 6903W        W22520  11.014  17.750  13.458 -0.2346 -0.4778  0.1044
 6904W        W22521   3.894   2.462   2.557  0.0345 -0.1365  0.0308
 6905W        W22522  10.915   7.068   0.366  0.3450 -0.0379 -0.0533
 6906W        W22523  14.154  15.400   3.998  0.3841  0.2603 -0.2490
 6907W        W22524   9.005  10.194   2.985 -0.0998 -0.0589  0.0565
 6908W        W22525  14.041   0.841   3.838 -0.2619 -0.0749 -0.1081
 6909W        W22526  13.899   2.011  12.785  0.1835 -0.2823  0.1099
 6910W        W22527   4.689   4.476   1.111 -0.2141 -0.0313  0.1433
 6911W        W22528  12.872  13.967   6.348 -0.0544  0.1328  0.2075
 6912W        W22529  15.007   5.950   2.543 -0.3115 -0.1609 -0.3585
 6913W        W22530  14.844  15.156  15.755  0.1252  0.1250  0.4551
 6914W        W22531   9.204  13.871  12.311 -0.2784 -0.0013 -0.0233
 6915W        W22532   9.765  13.890   5.552  0.0443  0.2337  0.1341
 6916W        W22533   4.617   1.570   4.194  0.0915  0.1129 -0.3680
 6917W        W22534   7.980  17.873   3.617  0.0082  0.1994  0.2896
 6918W        W22535   7.803   1.520   4.727 -0.3173  0.0795 -0.0496
 6919W        W22536   8.618  13.345  15.279  0.1085 -0.0274 -0.0110
 6920W        W22537  13.118   2.257  13.363 -0.2263  0.2719 -0.2805
 6921W        W22538   1.859  14.214   5.820 -0.0568 -0.2131  0.0067
 6922W        W22539  12.407   0.029   1.144  0.1406  0.1942 -0.2102
 6923W        W22540  17.925   6.418  16.444 -0.2323 -0.1079 -0.1953
 6924W        W22541   9.549   0.427   4.692 -0.0483  0.2305 -0.1626
 6925W        W22542   2.171  12.587   5.189 -0.0921  0.2880  0.2786
 6926W        W22543   7.643   9.771  15.330 -0.0091  0.1285  0.3381
 6927W        W22544   5.170  16.232  11.555 -0.1991  0.4046  0.1182
 6928W        W22545  10.625   3.237  15.772  0.0816  0.0460  0.1634
 6929W        W22546  15.662   8.818  15.447 -0.0695  0.0846  0.1166
 6930W        W22547   9.340  14.132  13.102  0.2535 -0.2522  0.1193
 6931W        W22548   8.865  10.539   3.645 -0.0140  0.1116 -0.0082
 6932W        W22549  14.899  17.740  13.007 -0.1144 -0.2211  0.0193
 6933W        W22550  13.075  13.246  16.127 -0.1015  0.0405  0.5220
 6934W        W22551   8.268  15.443   1.345  0.1682 -0.2485 -0.1021
 6935W        W22552  11.008   0.619   2.137  0.1434  0.1413 -0.4040
 6936W        W22553  13.545   8.357  15.978  0.1075 -0.1782  0.4873
 6937W        W22554  14.850  15.387  11.596  0.2338 -0.2220  0.0347
 6938W        W22555   5.376   2.060  13.477 -0.1709 -0.0958 -0.1052
 6939W        W22556  16.316  16.395   4.750 -0.0439  0.1988 -0.0494
 6940W        W22557   7.799  17.157  16.740  0.1518  0.3129 -0.0191
 6941W        W22558  14.493   5.377   4.036  0.0449 -0.2326 -0.3061
 6942W        W22559  13.786   2.901  11.546  0.1928  0.1004  0.0165
 6943W        W22560  17.313   0.230  11.244 -0.3449 -0.0717  0.1652
 6944W        W22561  10.050  17.054   2.592 -0.1126  0.2405  0.0569
 6945W        W22562  15.586  14.554  13.196 -0.2053  0.1906  0.0968
 6946W        W22563  10.730   2.779   1.604 -0.1813  0.1246  0.1117
 6947W        W22564  16.007   1.240  14.829 -0.0377  0.0718 -0.0349
 6948W        W22565   6.052  17.419   3.525  0.1438 -0.0245 -0.0795
 6949W        W22566   7.432   3.879  12.052  0.0319  0.0745 -0.0477
 6950W        W22567  13.171   5.405  16.521 -0.0633 -0.0159  0.0625
 6951W        W22568  12.864   1.762   3.511 -0.0105 -0.3442  0.1536
 6952W        W22569  16.833  11.088   0.491 -0.2273  0.1399 -0.2194
 6953W        W22570  11.473   5.205   1.151 -0.2758 -0.0189  0.2155
 6954W        W22571  16.387   5.405  15.974  0.1007 -0.0329  0.0266
 6955W        W22572  15.667  16.165   5.318  0.2306  0.1369 -0.2829
 6956W        W22573   6.426   8.975  13.484  0.1018 -0.0617 -0.1826
 6957W        W22574  13.015  14.072   5.879 -0.1092  0.1334 -0.0441
 6958W        W22575  11.186  17.350  14.114  0.0947 -0.0394 -0.1169
 6959W        W22576  17.726   5.857   5.224 -0.5019 -0.2648 -0.0251
 6960W        W22577   4.208   9.925   1.545  0.1952 -0.3378 -0.1464
 6961W        W22578   0.377   8.587   1.869 -0.2295 -0.0077  0.3021
 6962W        W22579   7.388   7.361  15.954 -0.0181 -0.0035  0.2297
 6963W        W22580  12.758  12.536   3.872 -0.0126 -0.0357  0.0182
 6964W        W22581  17.980   7.213  15.802  0.1935 -0.2141 -0.0602
 6965W        W22582  10.760   3.699  12.757 -0.2205  0.0056  0.0604
 6966W        W22583   3.198   6.111  13.782 -0.1243 -0.1650 -0.0420
 6967W        W22584  10.238  16.715   4.641  0.1026  0.0742 -0.2332
 6968W        W22585   5.981  12.819  16.719  0.0563 -0.1475 -0.0181
 6969W        W22586   8.888   0.705  12.052 -0.1087  0.0565  0.0388
 6970W        W22587   7.429  15.105  16.529 -0.0280 -0.0965  0.1666
 6971W        W22588   9.355   1.590   1.235 -0.0327  0.4237 -0.1134
 6972W        W22589   6.268  16.454  12.761  0.5304  0.0545  0.1882
 6973W        W22590  10.205  12.050  12.065 -0.1768 -0.0441  0.2198
 6974W        W22591   6.953  17.109   3.071 -0.3912  0.0935 -0.1968
 6975W        W22592   7.297  11.520  13.199 -0.2240  0.1291  0.2458
 6976W        W22593   5.982   4.472   2.131  0.5821 -0.0840 -0.0384
 6977W        W22594  12.013  16.060  10.601  0.1673  0.0862  0.1464
 6978W        W22595  11.787   2.038  13.657  0.1692 -0.0429 -0.0866
 6979W        W22596   3.554   0.323   4.792  0.0241  0.0748  0.2862
 6980W        W22597   7.238  16.705  12.213  0.1840  0.0673  0.1393
 6981W        W22598   0.771   3.843  15.506  0.0924  0.0824  0.1972
 6982W        W22599   9.952   8.013   3.743  0.2705  0.1103 -0.2460
 6983W        W22600   5.261   9.671   5.713 -0.0132  0.0637 -0.0478
 6984W        W22601  17.016  12.656  14.356 -0.2021 -0.2194  0.3859
 6985W        W22602  17.758   0.959  16.736 -0.0885  0.5157  0.0834
 6986W        W22603  16.597  14.523   4.808  0.0771  0.0678 -0.2228
 6987W        W22604   4.632  10.446  11.268 -0.3735  0.3951 -0.0786
 6988W        W22605   4.985  13.846  14.656  0.1349  0.1510 -0.1248
 6989W        W22606   8.381  12.832  13.886 -0.0251  0.1631  0.0193
 6990W        W22607  11.556  11.650  16.016  0.0814 -0.4762 -0.3596
 6991W        W22608   7.053   8.434   1.027 -0.3872  0.1393 -0.0990
 6992W        W22609  11.936  13.589  15.208 -0.2458  0.0170 -0.2879
 6993W        W22610   9.940  13.055   0.918  0.0338  0.0898 -0.0281
 6994W        W22611  16.018   0.090  15.790  0.1510  0.1054 -0.3071
 6995W        W22612  11.777   4.937  15.530 -0.1031  0.3639  0.1452
 6996W        W22613   4.851   2.612  11.074 -0.2639  0.0999  0.1337
 6997W        W22614   3.925   8.684  15.257 -0.1810  0.0314 -0.0095
 6998W        W22615   5.239  11.220  11.752  0.0454 -0.1778  0.3263
 6999W        W22616   3.614   3.375   0.147  0.0356 -0.0475 -0.0701
 7000W        W22617   5.713   8.319   5.094  0.0962 -0.2160 -0.2943
 7001W        W22618   1.157  15.158   5.881 -0.2655  0.0203  0.0930
 7002W        W22619  17.155   0.187   6.416 -0.2280 -0.1588  0.1539
 7003W        W22620   1.925  14.616  12.339 -0.0738  0.1852 -0.1416
 7004W        W22621  15.845   5.510  12.335 -0.0355 -0.0183 -0.0273
 7005W        W22622  15.105   2.994  12.900  0.4385 -0.0198  0.3535
 7006W        W22623   2.079  15.499  16.434  0.0839  0.1916 -0.1626
 7007W        W22624   5.349   7.685  16.700 -0.1149  0.1497  0.2337
 7008W        W22625   3.032   2.867  14.318 -0.5876  0.1223  0.2467
 7009W        W22626   0.461  16.385  16.532 -0.0805  0.0246  0.1183
 7010W        W22627   4.430   2.324   1.817  0.3189 -0.0321 -0.3762
 7011W        W22628   3.426  16.715  12.413  0.4017 -0.0532  0.0656
 7012W        W22629   8.624  11.056   2.977 -0.0675 -0.0727  0.0333
 7013W        W22630   1.456  15.568  12.746  0.0186 -0.1908  0.2946
 7014W        W22631   2.114   7.387  15.643  0.0759  0.0368 -0.0043
 7015W        W22632  13.079   0.421   0.557  0.1981 -0.0897  0.2838
 7016W        W22633   5.564  10.404   3.553 -0.1943  0.0282  0.2903
 7017W        W22634   0.966   8.080  12.023  0.1514 -0.2470  0.0214
 7018W        W22635   1.174  16.680   0.365 -0.2529  0.1522 -0.4127
 7019W        W22636   3.768   0.165   3.052  0.1065 -0.1165  0.2310
 7020W        W22637  10.619   0.043  15.673  0.3034  0.0137  0.3102
 7021W        W22638   1.384  13.992  15.276  0.3267 -0.0783 -0.0267
 7022W        W22639  11.297  10.515  11.369  0.3119  0.3912  0.0196
 7023W        W22640   0.707   9.873  14.449  0.0165  0.2926 -0.2696
 7024W        W22641   8.558   1.214   2.308 -0.0037 -0.3040 -0.1981
 7025W        W22642   7.651   9.774  12.052  0.0339 -0.2823  0.0257
 7026W        W22643  13.374  11.785   3.841  0.0805 -0.1433 -0.1484
 7027W        W22644  14.540  10.531   3.281  0.2441  0.0802  0.0445
 7028W        W22645   8.487  10.390   4.708  0.3986  0.1373  0.1623
 7029W        W22646  13.363  18.032   4.352  0.2360  0.1851 -0.2441
 7030W        W22647  10.113   3.934   2.924  0.0468 -0.1392 -0.0980
 7031W        W22648   9.713   1.249   4.731 -0.2642 -0.2181  0.0620
 7032W        W22649   5.277  16.174  14.794 -0.0544 -0.3937  0.1711
 7033W        W22650  11.870  12.875  14.383  0.0656  0.0230 -0.1299
 7034W        W22651  12.487   2.812   4.452  0.0010 -0.0379  0.0908
 7035W        W22652  16.042  10.218   2.043  0.1618  0.0755  0.0944
 7036W        W22653   1.869  17.900  10.399  0.2120 -0.1800 -0.1289
 7037W        W22654  14.096   9.184   0.268  0.4648 -0.1361 -0.2902
 7038W        W22655   7.184   9.958   1.669 -0.0539  0.1901 -0.0204
 7039W        W22656   8.022   1.779  12.983 -0.1487 -0.0671 -0.0391
 7040W        W22657   0.286   9.699  15.340 -0.3041 -0.3890 -0.0131
 7041W        W22658   1.981  15.298  15.867 -0.0478  0.2675 -0.1243
 7042W        W22659  16.146  12.543  12.919  0.1896  0.3997  0.1220
 7043W        W22660   8.676  15.159  12.653  0.3539 -0.0539  0.0476
 7044W        W22661   5.216   1.738  16.490 -0.3221 -0.0158 -0.1418
 7045W        W22662   7.932  14.687  12.266  0.2046 -0.6976 -0.0460
 7046W        W22663   2.250   9.291  12.229  0.2330 -0.1292 -0.0149
 7047W        W22664  10.585  16.132  15.459 -0.0364 -0.2448 -0.0157
 7048W        W22665  15.915   1.207  14.327  0.0934 -0.3205  0.0127
 7049W        W22666   9.591   4.601   4.129 -0.1483  0.0252  0.0021
 7050W        W22667  16.762   7.759  11.797 -0.0464  0.0278  0.2113
 7051W        W22668  12.201   1.110   4.030 -0.3862 -0.3391 -0.0592
 7052W        W22669   0.763  14.445   4.943 -0.1288 -0.0077  0.3373
 7053W        W22670  12.643   4.591   4.774 -0.0588  0.1361 -0.2583
 7054W        W22671   8.229   6.651  12.581 -0.1088 -0.0914 -0.0014
 7055W        W22672   4.721   9.674   0.215 -0.1801  0.2485 -0.0215
 7056W        W22673   1.984   8.558   1.740 -0.2783 -0.1978 -0.0448
 7057W        W22674  11.304   0.188   2.054  0.3553 -0.2237  0.0507
 7058W        W22675   9.117   1.586   3.555 -0.0631  0.0642 -0.1098
 7059W        W22676   3.902  14.074   3.172  0.3442 -0.2239  0.0339
 7060W        W22677   3.256   7.684   5.054  0.1800 -0.0170  0.1270
 7061W        W22678  11.553  16.788   0.883  0.0930 -0.0871  0.4849
 7062W        W22679  11.577   6.164  12.520 -0.1573  0.0439 -0.1179
 7063W        W22680   3.913   8.513   2.527 -0.3137 -0.4530  0.1441
 7064W        W22681  10.154  14.478   0.576 -0.0794 -0.0454 -0.1226
 7065W        W22682   0.235  17.483   4.884  0.4817  0.2316 -0.0721
 7066W        W22683  14.814  14.821  16.434  0.3481  0.3618 -0.3554
 7067W        W22684  14.433   8.809   5.742  0.0652 -0.0171 -0.1138
 7068W        W22685   3.247   5.249   4.901  0.2980  0.2044 -0.1145
 7069W        W22686   3.368  10.563   2.555 -0.3945 -0.0818  0.1870
 7070W        W22687   3.734  11.798  13.778  0.3441  0.1818  0.0114
 7071W        W22688  16.546   8.096   3.459 -0.1154 -0.2183  0.1771
 7072W        W22689  15.302   5.571  12.663  0.0166  0.0880 -0.0280
 7073W        W22690  11.824  10.162   0.836  0.0317 -0.3800  0.1167
 7074W        W22691   4.665   1.446   0.056  0.2229  0.3507 -0.0318
 7075W        W22692   0.405   4.487  16.751 -0.0928 -0.0232  0.0358
 7076W        W22693   4.400   3.952  13.873  0.1488  0.0179 -0.2465
 7077W        W22694   1.549   0.334  13.232 -0.0987 -0.2033  0.1540
 7078W        W22695   8.267   9.791  12.858 -0.0153  0.2576 -0.0209
 7079W        W22696  14.846  14.952  10.855 -0.2099  0.1254  0.2750
 7080W        W22697   8.986  16.546   0.349  0.0542  0.0747  0.1426
 7081W        W22698   5.883   2.507  15.011 -0.3715 -0.1228  0.0300
 7082W        W22699   1.352   4.348   0.595  0.0203 -0.0115 -0.0019
 7083W        W22700   9.449  15.926  15.057  0.3052  0.2808 -0.0426
 7084W        W22701  15.285   2.225   0.836 -0.1453 -0.0215  0.3431
 7085W        W22702  13.468  10.798   0.623  0.0923  0.2123  0.1768
 7086W        W22703   8.849   8.645  11.045  0.3751 -0.0473 -0.2603
 7087W        W22704   9.360  15.747  15.925 -0.0009 -0.0500 -0.2094
 7088W        W22705   0.818   8.684  12.926 -0.1465  0.1095  0.0768
 7089W        W22706  14.547  13.064  16.076 -0.0322  0.4341 -0.1110
 7090W        W22707  11.713  10.845   0.191  0.1594  0.0049 -0.1599
 7091W        W22708  14.306   7.294   2.586  0.0135 -0.2743 -0.4832
 7092W        W22709   1.773   5.414  12.751 -0.1776 -0.1205  0.2939
 7093W        W22710   0.956  12.163   5.649  0.1473  0.3728  0.1071
 7094W        W22711   5.161   0.616  14.955  0.0270 -0.0255 -0.0723
 7095W        W22712   0.449   5.776  14.080 -0.0676  0.3569 -0.1409
 7096W        W22713   9.313  10.157   2.479 -0.1517  0.2423 -0.0179
 7097W        W22714  10.085  16.090   1.122 -0.1270 -0.0011 -0.0621
 7098W        W22715   8.461  13.590  15.765 -0.1212  0.0854 -0.1337
 7099W        W22716   3.613   2.654  14.486 -0.2288 -0.0498 -0.4369
 7100W        W22717  12.510   7.892  14.785  0.1888 -0.1364 -0.1544
 7101W        W22718   2.454  14.202   4.013  0.1741 -0.2738 -0.2603
 7102W        W22719   9.864   2.022   2.253 -0.0802 -0.1478 -0.0579
 7103W        W22720   7.999  12.123   4.719  0.0046 -0.1982  0.0900
 7104W        W22721   1.723   4.651   3.229  0.0732  0.0305  0.0258
 7105W        W22722  16.596  10.170  14.416  0.1200  0.2530 -0.0977
 7106W        W22723   2.816   4.702   1.170  0.1849  0.1946 -0.0342
 7107W        W22724  10.146  11.269  14.958  0.2396 -0.1156  0.0689
 7108W        W22725  11.295  11.278  13.379  0.0522 -0.0198 -0.1218
 7109W        W22726  10.468   7.794  15.392 -0.4317  0.2721 -0.0245
 7110W        W22727  14.418  10.786  13.203  0.0246  0.0244 -0.0251
 7111W        W22728  11.632  11.373   0.145  0.0411  0.0350 -0.1638
 7112W        W22729  10.901  12.356  11.895  0.2704  0.0942  0.2104
 7113W        W22730  12.090  16.387  14.192  0.2275 -0.1296  0.3172
 7114W        W22731   6.707   3.354   2.308  0.0267  0.0958 -0.1407
 7115W        W22732  11.320  15.432  16.642 -0.1523 -0.1102  0.2307
 7116W        W22733  10.162   1.814  15.376  0.0338 -0.0126  0.0667
 7117W        W22734   2.362   8.987  16.006 -0.2306 -0.2223 -0.0760
 7118W        W22735  17.075   9.132  16.614  0.1376  0.2586 -0.1776
 7119W        W22736  12.536  10.290   2.191 -0.0043  0.1624 -0.2322
 7120W        W22737   6.104  11.731   0.760 -0.0206 -0.2645  0.1304
 7121W        W22738   5.087   4.592   1.395 -0.2842  0.0588 -0.0136
 7122W        W22739   0.937  13.270  12.219 -0.0472  0.0480 -0.1009
 7123W        W22740   4.393  12.057   5.646  0.1291  0.3709 -0.2191
 7124W        W22741   1.697   5.133  14.570 -0.0017 -0.0110  0.0431
 7125W        W22742   0.714   5.992  15.600 -0.1188  0.1908 -0.0418
 7126W        W22743   1.637  11.235   3.279  0.2066 -0.1341  0.1140
 7127W        W22744   6.711   3.494  13.131  0.0624  0.0372  0.0031
 7128W        W22745  16.695   8.275   5.015 -0.1673 -0.1312  0.0485
 7129W        W22746   2.632  17.430  16.058  0.1078 -0.1896 -0.0648
 7130W        W22747   1.562   4.865  15.069 -0.4754  0.3214  0.0160
 7131W        W22748  16.814  13.300  10.865  0.0415  0.1019  0.2408
 7132W        W22749   9.102  15.252  16.033  0.4053 -0.0023 -0.1202
 7133W        W22750   9.957   1.176   4.292 -0.0377 -0.4311 -0.6532
 7134W        W22751   0.910   5.995  14.555 -0.0739  0.3657 -0.3303
 7135W        W22752  14.940  11.561   0.754 -0.2090 -0.0411  0.1515
 7136W        W22753   4.324   6.002   1.182  0.0050  0.2571 -0.2301
 7137W        W22754   2.811   2.112   5.120 -0.0580  0.1050 -0.0624
 7138W        W22755   8.009   3.663   2.336  0.3438 -0.0971 -0.3266
 7139W        W22756  11.875   4.778  11.680  0.1463  0.1670 -0.4029
 7140W        W22757  13.113   9.854  11.525 -0.2002  0.0326 -0.1697
 7141W        W22758   8.173   7.720   2.170 -0.0140  0.0808  0.2819
 7142W        W22759  12.286   6.517   5.452 -0.1892  0.0561  0.0763
 7143W        W22760   1.958  16.851  15.638  0.1346 -0.1124 -0.0237
 7144W        W22761  15.377  17.032  12.819 -0.1047  0.0034  0.1120
 7145W        W22762  14.901  15.210   5.808 -0.0594  0.0055  0.1195
 7146W        W22763  11.336  14.864  16.559  0.0754 -0.1846 -0.3350
 7147W        W22764  15.987  12.103   5.370 -0.2093  0.0993 -0.1844
 7148W        W22765  17.726  14.787   2.158  0.2336 -0.1225  0.1527
 7149W        W22766  16.771  11.558   3.489 -0.1805  0.0407 -0.0791
 7150W        W22767  16.572   3.250   2.787  0.1900  0.0804  0.2781
 7151W        W22768  15.342  16.728   4.073  0.1517 -0.1907  0.0711
 7152W        W22769  15.886  16.855   4.124  0.0975 -0.1119  0.2645
 7153W        W22770  12.137   1.166   5.031  0.1119  0.1752 -0.0111
 7154W        W22771   5.379   7.224  11.632  0.0831 -0.1096 -0.0134
 7155W        W22772   0.699   9.931   0.651  0.0519  0.4005  0.0384
 7156W        W22773  15.024  16.827   1.738 -0.1878 -0.1316  0.3058
 7157W        W22774   9.816   0.222  14.999  0.0851 -0.0839  0.0547
 7158W        W22775   7.754  15.667  15.105 -0.2049 -0.0610 -0.0854
 7159W        W22776   6.621  11.712   2.110  0.1393 -0.1101  0.1814
 7160W        W22777  17.608  15.282   1.619 -0.1561  0.0783  0.0852
 7161W        W22778   9.392   1.032  15.545 -0.1180  0.4151 -0.3212
 7162W        W22779  17.141   1.878  13.664 -0.0133 -0.0817  0.1226
 7163W        W22780   2.164   2.440  15.094  0.1467 -0.1451  0.0797
 7164W        W22781  14.963  11.415   1.541  0.2306  0.0698  0.2597
 7165W        W22782  11.920  13.975  16.023 -0.1118 -0.2494  0.1748
 7166W        W22783   2.649   0.196   2.244  0.0781 -0.0988  0.2241
 7167W        W22784   3.834   9.488   2.133  0.0800  0.1147 -0.1445
 7168W        W22785   6.953   7.425  13.409 -0.0824 -0.1049  0.3920
 7169W        W22786   5.286   0.838  12.125 -0.1824 -0.1415 -0.0611
 7170W        W22787   7.494  10.132   1.214  0.1445  0.1299  0.1780
 7171W        W22788   8.870   8.961   0.166  0.1796  0.1316  0.0847
 7172W        W22789  12.083  11.804  10.994 -0.3180  0.0641 -0.2548
 7173W        W22790   2.549  11.811  13.030  0.2241 -0.1940 -0.0610
 7174W        W22791  14.133  15.767  14.201 -0.0641 -0.0102 -0.3460
 7175W        W22792   5.468  17.327   2.326  0.1757 -0.1039  0.2536
 7176W        W22793  12.576  10.359   0.829  0.0093 -0.1260  0.0458
 7177W        W22794   3.215   3.043   0.166  0.0647  0.3365 -0.0809
 7178W        W22795   7.840  17.114  14.824 -0.2083 -0.0762  0.0180
 7179W        W22796   7.411  16.198  14.728 -0.0007  0.1369 -0.0938
 7180W        W22797   2.500  18.039  15.176 -0.2717 -0.0519 -0.3328
 7181W        W22798   7.541  13.087  14.939  0.2020 -0.0837 -0.2368
 7182W        W22799  12.771   6.250  16.725  0.0472 -0.0752  0.0283
 7183W        W22800   3.035   6.791  16.493 -0.0871 -0.1311 -0.4651
 7184W        W22801  16.767  10.423  12.043 -0.0987 -0.0152 -0.3102
 7185W        W22802   0.821   7.609  14.487 -0.0203 -0.2418  0.2128
 7186W        W22803   8.170   8.771   4.753 -0.0304  0.0780  0.2409
 7187W        W22804   8.563   5.293   3.029  0.1240  0.0955 -0.4104
 7188W        W22805  17.699   7.402   3.861 -0.0021 -0.0030  0.0339
 7189W        W22806  16.622  13.608  16.224 -0.4636  0.2944  0.0724
 7190W        W22807  13.053   8.980   3.202  0.0091  0.3229  0.2403
 7191W        W22808  14.108   5.541   1.100 -0.0134 -0.1059 -0.2283
 7192W        W22809  16.860   0.556   2.063  0.2814  0.0822 -0.1053
 7193W        W22810   8.961  14.065   0.914  0.0925 -0.1139 -0.0705
 7194W        W22811   5.299  16.900  12.197 -0.2814 -0.1586 -0.0591
 7195W        W22812  14.989  14.061  15.201 -0.2210  0.0984  0.2918
 7196W        W22813   1.105  11.631  16.159 -0.4649 -0.0959  0.2047
 7197W        W22814   3.624  10.708   1.441  0.0539 -0.0070 -0.0152
 7198W        W22815  12.564  10.022  13.110 -0.0077  0.0617  0.1052
 7199W        W22816   8.842  17.204   2.919 -0.1002  0.2603  0.1982
 7200W        W22817  12.404   7.916   2.130  0.2011 -0.3088  0.0400
 7201W        W22818   6.733   4.291   4.365 -0.0828  0.2156 -0.0804
 7202W        W22819   8.870  10.834  14.397 -0.1268  0.1003 -0.2521
 7203W        W22820   8.325   0.746  15.284  0.0686  0.1606 -0.3278
 7204W        W22821  15.368   5.387  12.137 -0.2906  0.0055 -0.0013
 7205W        W22822   6.613   7.581   4.069  0.0454 -0.2261 -0.1583
 7206W        W22823   0.418   3.059   1.420 -0.1090 -0.2548 -0.2268
 7207W        W22824  16.447   7.630  16.697 -0.1208  0.1922  0.2123
 7208W        W22825  17.810   6.591   4.865 -0.1283 -0.1821  0.2071
 7209W        W22826   2.097  12.263   4.603 -0.0610  0.1537  0.0115
 7210W        W22827   8.057   5.477  10.285 -0.1157  0.0905 -0.1766
 7211W        W22828   8.486   8.664  16.333  0.0172  0.0032 -0.0749
 7212W        W22829   8.957   3.567   1.698  0.0103  0.0537  0.5743
 7213W        W22830  16.323   0.427   5.515  0.3926 -0.2187 -0.2471
 7214W        W22831  10.212   9.154   1.335 -0.1318  0.0156  0.0947
 7215W        W22832   4.932  17.129  12.556  0.0056  0.0282  0.0798
 7216W        W22833   1.313  10.405  14.795  0.2688 -0.1548 -0.1344
 7217W        W22834   5.521   7.473   2.814 -0.1945 -0.0407  0.3103
 7218W        W22835   0.577  10.552  14.137  0.1315 -0.0976 -0.1656
 7219W        W22836   1.639  13.296   3.235 -0.2541  0.1551 -0.1326
 7220W        W22837  15.185  12.608   3.238  0.1655 -0.0963 -0.4112
 7221W        W22838  10.440   6.348   0.394 -0.1598  0.2371 -0.0014
 7222W        W22839   2.895  16.989   3.108 -0.0847 -0.2962 -0.1800
 7223W        W22840  14.704  10.353  11.407  0.2003 -0.1497  0.4360
 7224W        W22841   3.784   7.988   2.337 -0.3394 -0.0295  0.0181
 7225W        W22842  15.832  15.647  15.769 -0.2204  0.3308  0.0630
 7226W        W22843   8.019   8.703   2.222 -0.2916  0.1561  0.1932
 7227W        W22844  10.459   2.170  14.492 -0.0210  0.0397  0.1456
 7228W        W22845   3.861   5.662  12.671 -0.1225 -0.0149  0.1403
 7229W        W22846   5.364   6.256  16.192 -0.1401  0.1283 -0.0206
 7230W        W22847  15.858   3.384  15.616  0.2674 -0.0624  0.0469
 7231W        W22848   8.108   0.476   5.654 -0.2123 -0.0175  0.3018
 7232W        W22849  17.964   5.374   3.169  0.1672  0.0724  0.1876
 7233W        W22850   9.123   7.904  15.865 -0.2288  0.1236 -0.0841
 7234W        W22851   5.658   1.695  14.496 -0.2198  0.1406 -0.0597
 7235W        W22852   7.394  10.143  11.838 -0.1412 -0.0076 -0.0229
 7236W        W22853  13.648   0.031  14.365  0.2677  0.2450 -0.0331
 7237W        W22854   0.552  10.058  12.501 -0.2559  0.5124 -0.2561
 7238W        W22855  10.195  10.578   2.460  0.2752 -0.1394 -0.1539
 7239W        W22856   5.186   0.743  13.827 -0.2883 -0.1996  0.0126
 7240W        W22857   9.256   4.092  12.519 -0.2314 -0.3069 -0.0355
 7241W        W22858  12.478   0.795  12.773 -0.0803 -0.1351 -0.1010
 7242W        W22859   5.967  13.221  16.460 -0.3043 -0.1664 -0.1503
 7243W        W22860  16.659  13.642  14.301  0.1709  0.2164 -0.0562
 7244W        W22861   9.188  16.266   5.701 -0.0684 -0.4693 -0.1064
 7245W        W22862   0.868   0.551  14.113  0.1656  0.0616  0.2903
 7246W        W22863   4.425   3.967  14.843 -0.0211 -0.0412  0.0976
 7247W        W22864   8.877  10.658   3.094 -0.0284  0.2242 -0.1670
 7248W        W22865  13.094   9.493   3.989 -0.2442 -0.0164  0.1247
 7249W        W22866  15.406   6.886  14.022  0.2838 -0.2040 -0.0811
 7250W        W22867  10.990   8.897   0.114 -0.0279  0.3021  0.1831
 7251W        W22868   0.883   7.101   4.073  0.0856  0.0370  0.0184
 7252W        W22869  16.861   4.899   4.505 -0.0819 -0.1229  0.3731
 7253W        W22870   5.364  16.089   1.470  0.1191 -0.0721 -0.2301
 7254W        W22871  11.426  17.484  14.573 -0.0250  0.3932  0.1442
 7255W        W22872  10.644   9.743   1.511  0.4665  0.1115 -0.0054
 7256W        W22873  16.114  17.125   5.289 -0.3366  0.3007 -0.0340
 7257W        W22874  14.229  15.894  15.093 -0.1116 -0.1702 -0.1094
 7258W        W22875   9.703   0.659  14.051 -0.0471  0.3121  0.0995
 7259W        W22876   1.354   9.762  12.477 -0.0736  0.3088 -0.0076
 7260W        W22877  14.771   2.087   2.712  0.0741  0.0760 -0.2698
 7261W        W22878  14.470   4.687   1.645 -0.2596 -0.1819 -0.1158
 7262W        W22879  15.070  15.654  16.605 -0.0580 -0.1738  0.2867
 7263W        W22880  10.442  11.576  14.648  0.3899  0.0688  0.0214
 7264W        W22881  12.811   6.371   2.271  0.1281  0.4208 -0.4025
 7265W        W22882   1.193   6.335  14.092 -0.2367 -0.1130 -0.0227
 7266W        W22883   3.270   2.441  15.331 -0.3622  0.1203 -0.1287
 7267W        W22884  14.719   8.377  15.494 -0.1922 -0.2196 -0.0297
 7268W        W22885  15.223   0.078  14.740  0.1366 -0.0789  0.4338
 7269W        W22886   4.793   3.650  15.055  0.0638 -0.0860  0.1463
 7270W        W22887   0.933  14.972   3.958  0.5120  0.1415 -0.1262
 7271W        W22888  15.727   9.283  13.479  0.1125  0.1160 -0.1557
 7272W        W22889  16.020   7.913  14.396 -0.0586 -0.0564  0.2810
 7273W        W22890   1.647  17.569   2.845 -0.0230  0.0119 -0.2607
 7274W        W22891  14.172  13.126   0.128 -0.2025 -0.1392 -0.4284
 7275W        W22892  15.462   1.345   6.427 -0.1707  0.0737  0.2386
 7276W        W22893  16.703   7.526  14.528 -0.1511  0.1985 -0.0782
 7277W        W22894  15.147  17.504  14.838  0.1322  0.0646 -0.1134
 7278W        W22895  10.332  15.777  15.965 -0.1593  0.3662 -0.1640
 7279W        W22896  14.749  14.069  14.663 -0.0937 -0.0613  0.1590
 7280W        W22897   8.507  12.039   0.191 -0.0796  0.3901  0.0685
 7281W        W22898  14.432  15.949   6.689  0.1199 -0.1450  0.0005
 7282W        W22899   8.710   7.335  15.181 -0.0338 -0.1588 -0.0656
 7283W        W22900  10.225  12.139   2.372  0.0770  0.2010  0.0824
 7284W        W22901   1.288  15.396  14.345 -0.1774  0.0159 -0.1786
 7285W        W22902  15.986  15.025   3.609  0.1480 -0.0623  0.1230
 7286W        W22903   9.454  11.493  14.210  0.2112 -0.0662 -0.0860
 7287W        W22904   2.587  15.120   2.346  0.1178 -0.1174 -0.0955
 7288W        W22905   6.331  15.438  10.810 -0.2712 -0.0822  0.2676
 7289W        W22906   4.055  11.854   2.199  0.2864  0.0740 -0.0300
 7290W        W22907  10.844  11.303   0.382  0.0967 -0.0199  0.0403
 7291W        W22908  14.131  12.245  15.055  0.0554 -0.1531  0.0476
 7292W        W22909   6.598   8.903   1.183  0.0237  0.0064  0.0493
 7293W        W22910   1.204   3.121  15.912 -0.0599  0.1442  0.1290
 7294W        W22911  15.228   5.045  15.263  0.0575  0.1503 -0.1318
 7295W        W22912  15.536   7.545   3.594  0.2759 -0.0501  0.3028
 7296W        W22913   5.930  10.486  11.767 -0.3486 -0.1248  0.0239
 7297W        W22914   8.689   2.987   3.451 -0.0594  0.0968  0.3825
 7298W        W22915  14.143   4.036  15.094  0.1046 -0.1105  0.0849
 7299W        W22916   5.437  10.220  12.453  0.1256 -0.0451  0.1038
 7300W        W22917  10.402   8.375   0.866 -0.1744  0.2323 -0.2747
 7301W        W22918   3.402   5.561  15.292 -0.2117  0.0539  0.0410
 7302W        W22919  15.656  13.559  13.571 -0.2194 -0.0444  0.1025
 7303W        W22920  14.856   8.705  15.871 -0.2921  0.4638  0.2577
 7304W        W22921   7.863   3.021   5.787  0.0828  0.2005 -0.0907
 7305W        W22922   6.867  13.889  13.185  0.2028 -0.2118  0.2419
 7306W        W22923  13.519   3.750  13.433  0.0778  0.1245  0.2480
 7307W        W22924  17.473   5.551   4.871  0.5327  0.1453 -0.2696
 7308W        W22925   9.249   8.422  12.366 -0.3823  0.2991 -0.3474
 7309W        W22926   3.618   1.606  14.896 -0.0395  0.0803  0.2066
 7310W        W22927  17.362   5.110  16.802 -0.3439 -0.0433  0.1449
 7311W        W22928  10.922   8.353   1.968 -0.3050  0.2313  0.0508
 7312W        W22929   9.398   9.103  16.632  0.0666 -0.1185  0.0032
 7313W        W22930   4.319  10.119   4.220 -0.2326  0.0949  0.0038
 7314W        W22931  11.511   3.429  12.968  0.0312 -0.3824 -0.0211
 7315W        W22932   0.338  10.459  11.286  0.3660 -0.0635  0.0646
 7316W        W22933   5.912   6.290  15.524 -0.1421 -0.1143 -0.0815
 7317W        W22934   2.266   3.889  16.575 -0.1185 -0.0558  0.0286
 7318W        W22935  14.924   9.889   3.962  0.1771  0.0618  0.2588
 7319W        W22936  17.266  12.046   3.975 -0.0203 -0.2529  0.1116
 7320W        W22937   5.860  15.527   3.642  0.0517  0.1303 -0.0988
 7321W        W22938  15.227   4.331   1.841  0.2084  0.1553 -0.0291
 7322W        W22939  10.790  17.023  15.294 -0.0000 -0.0754 -0.1949
 7323W        W22940  13.694   0.176   0.833 -0.0056 -0.0183 -0.0566
 7324W        W22941  10.080   9.661  15.974 -0.4347 -0.0338  0.1157
 7325W        W22942  14.858  16.426  15.979 -0.2606 -0.2576  0.0659
 7326W        W22943   4.595  12.423   1.142 -0.0412  0.0910 -0.2124
 7327W        W22944   7.816  13.794  11.195  0.0274 -0.1643  0.0495
 7328W        W22945   4.954  14.038  15.231 -0.0716 -0.1593 -0.0624
 7329W        W22946   4.092  12.295   3.783  0.1966  0.1154  0.3880
 7330W        W22947   8.933   6.891  10.608 -0.2661 -0.0859 -0.0261
 7331W        W22948  12.920   5.217  13.205  0.1717  0.0154  0.0663
 7332W        W22949   2.275   4.296   6.078 -0.2328  0.0789  0.0970
 7333W        W22950   7.250   2.348  13.485 -0.1440 -0.0765  0.1704
 7334W        W22951  16.344  15.923   0.363 -0.0390 -0.3026  0.3771
 7335W        W22952   8.121   7.812  12.231  0.1300 -0.1568 -0.0623
 7336W        W22953  15.090   0.610  12.397 -0.1658 -0.1648  0.1606
 7337W        W22954   8.782   2.596  16.668 -0.0295  0.4038 -0.1605
 7338W        W22955  13.963   6.896   2.501  0.0967 -0.0231  0.0218
 7339W        W22956  13.388   0.581  15.404  0.1211  0.0485  0.3820
 7340W        W22957   3.806   5.623   4.276 -0.0798 -0.0955  0.1300
 7341W        W22958   8.248  12.161  15.758 -0.2119 -0.0418 -0.1461
 7342W        W22959   5.209   6.569  14.938  0.2107 -0.2693  0.1756
 7343W        W22960   4.583  10.231   1.134  0.1770 -0.1453  0.0825
 7344W        W22961  13.247   5.768   0.023 -0.0250  0.1957 -0.0075
 7345W        W22962  14.618   6.046   2.817  0.2561  0.0000 -0.1334
 7346W        W22963  10.165   6.069  12.762 -0.0333  0.1090  0.0252
 7347W        W22964   9.948   2.929  14.352 -0.0677  0.0959  0.0116
 7348W        W22965   1.838   1.226  16.725  0.0992  0.2179 -0.1573
 7349W        W22966  10.168  15.046  16.136  0.2096  0.0876 -0.1011
 7350W        W22967  17.135   5.807  14.143  0.0749 -0.0185 -0.2435
 7351W        W22968  16.428   9.553   2.781 -0.0339  0.0586 -0.1235
 7352W        W22969  13.524   0.794   5.502  0.1966 -0.1649 -0.0465
 7353W        W22970   1.321   2.935  12.381  0.1066  0.0417 -0.1421
 7354W        W22971   9.126  17.511  15.850 -0.2218  0.2207  0.3630
 7355W        W22972   1.790   3.995  15.261 -0.1811  0.2075 -0.0048
 7356W        W22973   1.347  13.579  13.257  0.1891 -0.0997 -0.2536
 7357W        W22974  14.044  10.845  15.538  0.0915 -0.0918  0.0359
 7358W        W22975   1.706  16.406  13.359 -0.2338 -0.1338 -0.1187
 7359W        W22976   0.394   8.700  11.600  0.1212  0.0811 -0.2330
 7360W        W22977   9.969   5.066  14.400  0.0471 -0.2592  0.2315
 7361W        W22978   0.318  10.718  12.863 -0.0361  0.1458 -0.1621
 7362W        W22979   2.528   6.774  16.661  0.1864 -0.2360  0.2061
 7363W        W22980  14.935   1.968   5.642 -0.1062  0.2625 -0.0237
 7364W        W22981   2.349  11.024  14.235  0.0086 -0.1551  0.3212
 7365W        W22982  10.583  16.284   2.868  0.1025  0.1105 -0.1144
 7366W        W22983   4.302   9.530  15.223  0.3115 -0.0088 -0.1528
 7367W        W22984   5.755  10.496   0.661 -0.1852  0.3365  0.3131
 7368W        W22985   3.408   3.923  16.587  0.2271  0.0194 -0.0387
 7369W        W22986  17.107   5.436   3.770 -0.1801  0.0513 -0.1113
 7370W        W22987   3.433   4.567   1.535 -0.1810 -0.1983  0.0337
 7371W        W22988   1.113   5.888   2.954 -0.3476 -0.3477  0.0101
 7372W        W22989   6.582  15.370   0.051  0.3939  0.0602  0.2920
 7373W        W22990  14.064  12.847  12.722 -0.1345 -0.2044  0.1394
 7374W        W22991   6.523   4.245   5.258  0.1368 -0.0710 -0.0864
 7375W        W22992  13.570  16.707  14.184 -0.1166  0.1756 -0.1378
 7376W        W22993  10.876  13.236   1.050  0.1252 -0.1625 -0.0446
 7377W        W22994  16.528   3.889   4.340 -0.2608 -0.0042 -0.2635
 7378W        W22995   4.401   1.404  15.918 -0.1534  0.1281  0.0245
 7379W        W22996   8.548  10.656  14.083  0.1510  0.3604  0.1328
 7380W        W22997   3.400   6.026   5.492  0.0818 -0.3680  0.2656
 7381W        W22998   8.903   1.395  13.705 -0.2128  0.0480 -0.4684
 7382W        W22999  15.981   0.881  16.676 -0.1754 -0.2814 -0.0287
 7383W        W23000  14.181   6.094   0.377  0.0235 -0.2057  0.0072
 7384W        W23001  13.662  16.215   4.077 -0.0793 -0.3317 -0.2282
 7385W        W23002  12.033   1.518  15.276  0.1974 -0.0644  0.0451
 7386W        W23003   7.842  16.542  13.569  0.2291 -0.3146  0.0970
 7387W        W23004   5.342  12.200  12.095 -0.0227 -0.1181  0.0009
 7388W        W23005   3.982  16.789  16.722  0.0389  0.4375  0.0188
 7389W        W23006  11.840  15.113  14.590 -0.5043 -0.4191  0.0043
 7390W        W23007  11.844   4.454   0.905  0.1585 -0.0452  0.4002
 7391W        W23008   6.868   8.554  13.722  0.1084  0.2555 -0.0786
 7392W        W23009   6.666  15.642  11.369 -0.0498 -0.0913  0.1417
 7393W        W23010   1.461  11.200   2.790  0.2532 -0.0789  0.0528
 7394W        W23011  10.496  10.378  12.049 -0.2219 -0.3246 -0.1744
 7395W        W23012   2.611   8.864  14.108  0.1534 -0.1433 -0.3905
 7396W        W23013   2.667  13.605  12.698 -0.0687 -0.1904  0.0551
 7397W        W23014   6.616   1.762   3.696 -0.2149 -0.2066  0.4001
 7398W        W23015  11.128   6.442  12.584  0.0620 -0.0834 -0.1844
 7399W        W23016  14.832   8.697  12.027 -0.1319 -0.2275  0.1347
 7400W        W23017  11.359  11.835   0.904 -0.2249  0.0721  0.2399
 7401W        W23018   7.807   8.097   1.297  0.1340 -0.3994 -0.1564
 7402W        W23019   1.010  12.443  12.943  0.0967  0.1259 -0.0348
 7403W        W23020   0.078  14.225   0.418  0.2251  0.1563  0.0368
 7404W        W23021  11.048   4.470  16.807 -0.2590 -0.0879 -0.3827
 7405W        W23022  15.851   5.092   1.951  0.0100  0.2594 -0.2617
 7406W        W23023  17.864   1.172  13.299  0.2555  0.1846 -0.1313
 7407W        W23024  14.694   6.458  12.034 -0.1446 -0.2234  0.0703
 7408W        W23025   3.654   5.421   0.881  0.1787 -0.4370  0.0722
 7409W        W23026  11.454  16.753   4.712 -0.2497 -0.0851 -0.1178
 7410W        W23027  10.448  11.883  12.538 -0.0057 -0.0227 -0.1833
 7411W        W23028   2.970   4.823  14.204 -0.1059  0.0150  0.2788
 7412W        W23029   1.965   5.350  13.248 -0.3817 -0.1754  0.0304
 7413W        W23030  14.038  17.298  15.101  0.0066 -0.0521 -0.2672
 7414W        W23031   8.045   5.039   3.961 -0.0125  0.0854  0.2873
 7415W        W23032  10.986   1.022  12.993 -0.3003 -0.2051  0.0413
 7416W        W23033   8.237  11.541  11.737  0.5592 -0.1384  0.1951
 7417W        W23034   2.955  17.852   5.486 -0.0787 -0.2417 -0.0300
 7418W        W23035  11.870   3.182  12.573 -0.2253  0.1076 -0.2452
 7419W        W23036  13.452   5.536  13.276 -0.4117  0.1239 -0.0688
 7420W        W23037  14.072   8.873   3.243  0.1776  0.1942  0.0576
 7421W        W23038  17.722  16.332   6.836  0.1841  0.1193 -0.3987
 7422W        W23039  14.546  11.568   1.187  0.0451  0.0573 -0.1591
 7423W        W23040   3.720   4.266   3.584  0.4266 -0.0561  0.1496
 7424W        W23041  12.025  17.570   1.231  0.0354  0.0925 -0.0866
 7425W        W23042  14.377   7.981   5.634 -0.1357 -0.1262 -0.1124
 7426W        W23043  17.896   5.859  16.641 -0.1707 -0.0619 -0.2124
 7427W        W23044   9.869  15.078   2.055 -0.3643  0.1247 -0.2519
 7428W        W23045   7.408  15.484   1.064  0.1642  0.0691 -0.1508
 7429W        W23046   8.661  10.429  16.154 -0.3970  0.1485 -0.1571
 7430W        W23047   2.811   3.608   4.111 -0.0090  0.1559  0.0220
 7431W        W23048   9.466   4.455   0.642 -0.1594  0.0728  0.5766
 7432W        W23049   6.005  16.476   3.656  0.0006  0.0707 -0.0481
 7433W        W23050   5.433  14.276   0.802  0.1686  0.0174  0.0901
 7434W        W23051  16.512  16.918  13.856 -0.3874  0.1741  0.2182
 7435W        W23052   1.797   6.971  14.465 -0.0035  0.1146  0.3002
 7436W        W23053   5.148   4.149  14.159 -0.1909  0.1027  0.2240
 7437W        W23054   2.451   7.786   0.626  0.0529  0.2877 -0.2704
 7438W        W23055  13.067   4.272  16.477 -0.1394 -0.0607 -0.0275
 7439W        W23056  11.633  13.775  14.162  0.2295  0.1407  0.0103
 7440W        W23057   8.167  12.576  13.222 -0.4737  0.0617 -0.0399
 7441W        W23058   2.029  13.341   2.063 -0.0242 -0.1977  0.1334
 7442W        W23059  15.436   1.998   5.164 -0.3237  0.0279  0.3373
 7443W        W23060   6.468  12.001   3.888 -0.1838 -0.0358 -0.0786
 7444W        W23061  17.334   1.677   6.288 -0.4912 -0.3427  0.0790
 7445W        W23062  17.971   8.812   1.935  0.0621 -0.0057 -0.0693
 7446W        W23063   7.378   8.899  14.783 -0.0359  0.0388  0.1515
 7447W        W23064   4.066   3.390  16.749 -0.1356  0.1933 -0.0511
 7448W        W23065  13.155   7.275  13.147  0.1059 -0.0004  0.2402
 7449W        W23066  18.007  16.874  10.926  0.1637 -0.2414 -0.2665
 7450W        W23067  16.247   9.117   0.552 -0.0455 -0.0770  0.2491
 7451W        W23068  12.132  10.476   1.140  0.1310  0.0208 -0.1769
 7452W        W23069  10.304  13.684   3.515  0.0955  0.2290  0.0560
 7453W        W23070   6.697   3.264  11.872  0.1312 -0.1315  0.2883
 7454W        W23071   3.415  17.097   4.564 -0.1046 -0.4139  0.1013
 7455W        W23072   6.464   9.313  15.953 -0.0126  0.2740  0.2684
 7456W        W23073   3.093  13.185  12.150  0.0671  0.1091  0.1318
 7457W        W23074  11.359   1.927  12.670  0.0846  0.2751 -0.1488
 7458W        W23075  10.123   1.663  15.858 -0.2105 -0.2202 -0.0981
 7459W        W23076  14.029   3.515   5.577  0.0821  0.3954 -0.0165
 7460W        W23077   3.179   2.126  11.760 -0.0317  0.1812  0.2796
 7461W        W23078   2.518   8.213  14.490  0.0690 -0.1134  0.1260
 7462W        W23079   0.446  17.431   3.950 -0.0977  0.2423  0.2487
 7463W        W23080   2.687  13.974   5.703 -0.1066  0.6837 -0.1698
 7464W        W23081  14.365   1.059  15.196  0.1214 -0.1928 -0.0501
 7465W        W23082   0.009   4.254  12.332 -0.0711  0.0794  0.0870
 7466W        W23083  16.564   2.331   2.558  0.2710  0.0198 -0.4302
 7467W        W23084   1.762  15.384   5.260 -0.0984 -0.1174  0.0436
 7468W        W23085   4.439  15.366   4.939  0.3235 -0.0947  0.2289
 7469W        W23086   9.221   8.184  16.345  0.3814  0.1956 -0.3494
 7470W        W23087  10.156  15.380   3.625  0.1041  0.1726  0.0593
 7471W        W23088   2.736   6.830  11.626 -0.2314 -0.1415  0.1510
 7472W        W23089   7.550   1.382   3.452  0.0628  0.2193 -0.1652
 7473W        W23090   7.619   8.446  10.799 -0.0876 -0.3108  0.3859
 7474W        W23091   8.982  17.982   0.239 -0.1965 -0.0609  0.2936
 7475W        W23092   0.090   7.174   4.601 -0.0931  0.3204  0.2621
 7476W        W23093  13.103  17.379   0.480 -0.1867  0.1644  0.1495
 7477W        W23094   2.654   2.862  13.964  0.1800 -0.0676 -0.0258
 7478W        W23095   0.964   8.537   4.361 -0.2104  0.0130  0.1030
 7479W        W23096  15.651  17.480   2.414  0.0827 -0.2733  0.2157
 7480W        W23097  16.976   8.667   3.752 -0.1059 -0.2303 -0.5167
 7481W        W23098  16.893   4.528   0.195 -0.0226 -0.1526 -0.2071
 7482W        W23099   7.486   9.560   3.134  0.2216  0.3222  0.0691
 7483W        W23100  16.641   5.543   0.270  0.2334  0.2140  0.0748
 7484W        W23101   4.663   4.461   2.553 -0.4485 -0.2596 -0.2197
 7485W        W23102   5.547  10.768   3.905  0.1332 -0.1593 -0.2580
 7486W        W23103  12.695   4.590   1.585  0.0653  0.1068 -0.2441
 7487W        W23104  16.723   2.976   5.188  0.0159 -0.1102 -0.2636
 7488W        W23105   2.314  12.475  13.524 -0.1707  0.1105  0.2243
 7489W        W23106  16.421   7.112   5.801  0.3706  0.0573 -0.0879
 7490W        W23107   9.079   6.608  14.150  0.0305  0.0370 -0.0789
 7491W        W23108  13.571  13.908  15.288 -0.2324  0.3122 -0.1323
 7492W        W23109  16.694   4.128  14.555 -0.1606  0.0216 -0.2944
 7493W        W23110   7.741   4.445  13.303 -0.1165  0.2671  0.1119
 7494W        W23111   4.579   1.998   5.418 -0.0930  0.1223  0.1761
 7495W        W23112  10.475   6.795  12.085 -0.0578  0.1468 -0.0545
 7496W        W23113   5.865  17.101   2.069 -0.4158 -0.0922  0.1913
 7497W        W23114   4.424   5.648  13.370 -0.0872  0.2883  0.4668
 7498W        W23115  10.833  17.347  12.646 -0.2539 -0.2273 -0.1505
 7499W        W23116  16.821  10.886   6.648 -0.1578 -0.2065 -0.3637
 7500W        W23117   5.041  15.774  12.326  0.1931 -0.0128 -0.0625
 7501W        W23118   3.883  15.580   3.195 -0.0300  0.0589  0.0250
 7502W        W23119   1.305   6.187  16.242 -0.1362  0.2719  0.0414
 7503W        W23120   4.929  12.314   0.644 -0.2098 -0.2155 -0.1896
 7504W        W23121  15.630  11.331   4.642 -0.5246  0.2151  0.2358
 7505W        W23122   5.526   9.395   4.252  0.2811 -0.0229  0.1232
 7506W        W23123   4.337  11.009  16.785  0.1643 -0.2439 -0.1004
 7507W        W23124  13.262   4.112  15.239  0.1224 -0.0767  0.0320
 7508W        W23125   1.416   7.398  12.624 -0.0500 -0.2122  0.0157
 7509W        W23126  13.313  14.938  13.312 -0.3556 -0.2566  0.0492
 7510W        W23127   6.893   1.975  13.392 -0.0777  0.1216 -0.3307
 7511W        W23128  16.119   8.598  15.689 -0.2713  0.0113  0.1510
 7512W        W23129   2.454   3.520   1.258 -0.0233 -0.2471 -0.1463
 7513W        W23130   3.529  15.677   2.755 -0.0386  0.0456  0.0061
 7514W        W23131  17.320   2.908   6.245  0.1917  0.4352 -0.1019
 7515W        W23132   4.491   7.006   1.202  0.0294 -0.0560  0.0366
 7516W        W23133  15.931   0.058   1.822  0.0809  0.1217  0.2171
 7517W        W23134  16.570  14.667   3.334 -0.2065 -0.0320 -0.0286
 7518W        W23135   1.024   0.792  15.795  0.2614 -0.1719 -0.1773
 7519W        W23136  10.363  10.134  14.648 -0.2176  0.0216  0.1565
 7520W        W23137   1.756   1.680   2.451 -0.2555  0.2632 -0.0749
 7521W        W23138   6.424   9.675   4.004 -0.0819  0.2409  0.0091
 7522W        W23139   3.197  17.169  12.338  0.1097  0.2686 -0.3104
 7523W        W23140   1.721  12.768  16.766  0.0514 -0.3080  0.0059
 7524W        W23141  11.149  12.826  12.021 -0.0910 -0.1990 -0.3034
 7525W        W23142   1.348   1.933   1.171  0.1423 -0.2408  0.0067
 7526W        W23143  11.420  14.606   5.277  0.2669 -0.3772  0.0091
 7527W        W23144   2.819  11.572   1.474 -0.0244  0.1969 -0.1757
 7528W        W23145   6.055   7.003  12.324 -0.2377  0.3506  0.4424
 7529W        W23146   9.692  14.576   0.429  0.2618 -0.4289 -0.3273
 7530W        W23147   9.501   7.906   2.538 -0.0603 -0.0882  0.2407
 7531W        W23148   4.643   4.782  13.743 -0.0009 -0.3980 -0.5231
 7532W        W23149  17.277   9.049   0.590 -0.7599  0.1111 -0.2164
 7533W        W23150  10.046  12.890  15.968 -0.0659 -0.1169  0.0995
 7534W        W23151  12.761   8.713   6.073  0.1896 -0.2976 -0.0775
 7535W        W23152  16.595   7.593   2.796  0.0160 -0.0043  0.0897
 7536W        W23153   1.140  15.007  11.683  0.0447 -0.0854 -0.0823
 7537W        W23154   8.427  12.230   0.973  0.0551 -0.1814  0.1781
 7538W        W23155   9.615  14.829  12.400  0.2678 -0.1379  0.1496
 7539W        W23156   7.071   4.216   3.936  0.0773  0.2482 -0.0631
 7540W        W23157   3.606  14.383  11.394  0.0087 -0.3053 -0.2829
 7541W        W23158  15.225  10.775  12.009 -0.1355 -0.1430 -0.2234
 7542W        W23159   9.910   1.338  12.580  0.3133 -0.1063  0.3286
 7543W        W23160  17.918  14.867   5.209 -0.1810  0.4598 -0.0435
 7544W        W23161  13.782   2.923  13.437  0.0909 -0.0184 -0.0623
 7545W        W23162   1.267  12.624   3.317  0.0769  0.1736 -0.0925
 7546W        W23163   5.456   5.388   2.589 -0.0393 -0.0433 -0.1081
 7547W        W23164  17.015   9.197  13.605 -0.2128  0.0362 -0.1106
 7548W        W23165  17.945   7.321  16.304  0.0964 -0.2128  0.1990
 7549W        W23166  15.389   6.527  13.255 -0.0521  0.0817  0.2239
 7550W        W23167  16.132   0.545  15.793  0.1775 -0.2312 -0.1771
 7551W        W23168   4.514   4.434   1.669 -0.1420 -0.0559  0.0504
 7552W        W23169   6.605   2.420  14.280 -0.0228  0.1567  0.0148
 7553W        W23170  17.701  12.438  14.951 -0.4352 -0.1207  0.1077
 7554W        W23171  11.273  17.975  14.525  0.0230 -0.0395 -0.2203
 7555W        W23172  12.269   3.170   1.282  0.0514  0.1524  0.3505
 7556W        W23173  17.254   4.540  15.579 -0.0841 -0.0227  0.0832
 7557W        W23174  14.605   5.483  14.926 -0.1238  0.0843  0.1422
 7558W        W23175  13.126   3.679  12.342 -0.3668  0.0249  0.1820
 7559W        W23176   7.478   1.207  11.217 -0.1699 -0.1416  0.1183
 7560W        W23177   9.763   3.597   2.863  0.0108  0.1339  0.0316
 7561W        W23178  17.582  11.130   0.002 -0.1612  0.1458  0.2942
 7562W        W23179   7.274  15.091   3.426 -0.2356 -0.1550  0.0619
 7563W        W23180   5.313  17.472  14.985  0.0252  0.0933  0.1541
 7564W        W23181   1.041   2.055   3.268  0.0905  0.6833 -0.0394
 7565W        W23182   0.492   7.523   3.206  0.0139  0.2020  0.1515
 7566W        W23183  10.695  15.148   4.644 -0.3193 -0.2361  0.1280
 7567W        W23184   8.230  16.847  12.633  0.0098  0.2694  0.2474
 7568W        W23185   4.116   2.734  15.482 -0.0909  0.1635  0.2378
 7569W        W23186   4.001  17.087  13.781  0.3425 -0.2355 -0.1633
 7570W        W23187  11.416  17.536   3.582 -0.2238  0.4515 -0.0277
 7571W        W23188   8.819   2.798   5.466 -0.3312 -0.1495  0.2344
 7572W        W23189   7.441   4.057   4.346 -0.1903  0.0168  0.0892
 7573W        W23190   5.658   7.970   0.215  0.0458 -0.0868  0.0212
 7574W        W23191  12.981  15.122  12.219 -0.0219 -0.0302  0.0309
 7575W        W23192   1.028   1.314   0.571 -0.2966  0.2273 -0.2033
 7576W        W23193   2.667   2.423  15.086  0.2091 -0.3486 -0.1050
 7577W        W23194   7.971  16.876  13.080 -0.0239 -0.0972  0.0963
 7578W        W23195   9.579   8.061  14.918 -0.0751  0.0478 -0.1122
 7579W        W23196  16.447  17.268  16.128 -0.1283  0.2111  0.0791
 7580W        W23197   7.938  11.997  11.640  0.1758 -0.4696 -0.0984
 7581W        W23198   6.030   4.281   1.683  0.0675  0.1829  0.0332
 7582W        W23199   3.819   2.846   1.845 -0.1320 -0.0316  0.1173
 7583W        W23200   9.449  17.172  12.973  0.1196 -0.1165  0.1524
 7584W        W23201   3.603   4.491  13.598  0.1201  0.0892  0.0479
 7585W        W23202  15.777   6.870   0.203  0.0386  0.0999 -0.0631
 7586W        W23203   5.974  13.744   0.053  0.0063  0.0696  0.1442
 7587W        W23204  13.997  12.689  11.899 -0.1726  0.1409 -0.0848
 7588W        W23205   9.208   3.089   1.688 -0.0771 -0.0699  0.1312
 7589W        W23206   6.901  14.859  16.522 -0.0361 -0.1517  0.0731
 7590W        W23207  17.030  10.455  16.576 -0.0688  0.0192 -0.3260
 7591W        W23208   7.338   0.769  12.414  0.3390 -0.2204 -0.0715
 7592W        W23209   8.216   8.368  13.078 -0.1228  0.0830  0.2460
 7593W        W23210  15.949   4.428   0.514  0.0259 -0.0374 -0.3518
 7594W        W23211  12.006  18.052  12.400 -0.4749 -0.1805 -0.2831
 7595W        W23212   1.811  17.541   0.122 -0.2025  0.1466 -0.2779
 7596W        W23213  13.241   4.416   3.628  0.0624  0.4379 -0.2511
 7597W        W23214   2.466  16.011   2.481  0.1910 -0.1611  0.2234
 7598W        W23215   8.661   0.976  13.875 -0.0733  0.1820 -0.0228
 7599W        W23216   7.037  15.845  12.762  0.3373 -0.0198 -0.1415
 7600W        W23217  16.883  14.442  12.036 -0.3479  0.0118 -0.3318
 7601W        W23218   4.996   9.091  11.680  0.3212  0.0522 -0.1211
 7602W        W23219  16.171  17.379   3.990  0.0855 -0.3065 -0.1186
 7603W        W23220   6.553   8.134   0.075 -0.0372 -0.3443  0.1400
 7604W        W23221  17.250  10.042  13.276 -0.1670  0.0077  0.0574
 7605W        W23222   5.360  14.309   4.223  0.0882 -0.2166  0.0897
 7606W        W23223   5.073  17.405   2.639 -0.0478 -0.0986  0.1459
 7607W        W23224   7.622   7.706  12.220  0.0184 -0.0634  0.0480
 7608W        W23225   9.958  14.314   5.543  0.0805 -0.3386  0.3580
 7609W        W23226  13.954   0.976   2.845 -0.3741  0.0673  0.2520
 7610W        W23227   7.822  17.058  15.755  0.0098 -0.1441 -0.1647
 7611W        W23228  16.811   0.012   2.909  0.2399 -0.0424 -0.4063
 7612W        W23229   8.419   3.264   3.037  0.0059 -0.1281 -0.3761
 7613W        W23230   8.518   7.384   5.421 -0.0742 -0.2873 -0.0023
 7614W        W23231  16.546  16.170   5.645  0.0285  0.1650  0.1824
 7615W        W23232   5.330   8.453   5.954  0.1812  0.1591 -0.2548
 7616W        W23233  12.168  12.608  16.614 -0.1914  0.1961  0.3399
 7617W        W23234   6.019   9.927  11.081 -0.2334 -0.3796 -0.0941
 7618W        W23235  10.883  16.119  15.019 -0.3499 -0.3627 -0.1406
 7619W        W23236   5.543  17.035  13.986  0.0267  0.2307 -0.0981
 7620W        W23237   3.248   3.950  14.520  0.0636 -0.2372 -0.0119
 7621W        W23238   9.675  10.478   2.486 -0.2210  0.0838  0.0098
 7622W        W23239   5.671  10.868  16.096  0.0968  0.0810 -0.1997
 7623W        W23240   9.563   3.006  13.336  0.0111  0.2297 -0.1671
 7624W        W23241   5.593  13.305   4.854  0.2554 -0.0101  0.3242
 7625W        W23242   4.929  13.976   3.441  0.0724  0.1207  0.2436
 7626W        W23243  12.044   6.945   2.601  0.0697 -0.0372 -0.0918
 7627W        W23244  13.408  17.410  13.797 -0.0643 -0.3108 -0.0582
 7628W        W23245  10.780   3.995   2.032 -0.1449 -0.3037  0.4189
 7629W        W23246   6.762   6.574   2.350  0.0729 -0.1563 -0.3145
 7630W        W23247   6.259   9.438  15.463  0.1092 -0.1333  0.3934
 7631W        W23248  17.117   8.356   3.330 -0.2049  0.1032  0.1170
 7632W        W23249   2.357   1.156  12.681  0.2643 -0.2037  0.3534
 7633W        W23250   9.614   1.116   1.102 -0.0603  0.0192  0.1262
 7634W        W23251   7.747  16.807  11.756 -0.2265  0.2725  0.0073
 7635W        W23252  10.101  14.830  12.609  0.1249 -0.2105 -0.1419
 7636W        W23253  13.669  16.313  14.563 -0.1490 -0.1029  0.0586
 7637W        W23254  13.669  10.533   3.568  0.0979  0.1575 -0.1584
 7638W        W23255   2.958  11.695  11.806  0.2777  0.1803 -0.0968
 7639W        W23256   1.693  16.853   4.008  0.4274 -0.0028 -0.0351
 7640W        W23257  10.096  15.336   5.446 -0.0431  0.1684 -0.2098
 7641W        W23258  14.933   9.745   4.891 -0.1576  0.1135 -0.2232
 7642W        W23259   8.417   4.134   4.116 -0.0470 -0.1321 -0.2244
 7643W        W23260  13.150  13.073   0.477 -0.0872 -0.4057  0.1042
 7644W        W23261   9.500   6.789   1.648  0.1201 -0.3890 -0.0296
 7645W        W23262  14.191   5.312  11.921  0.3051  0.1512 -0.0187
 7646W        W23263   2.741   2.504   5.442  0.0776 -0.1039  0.0396
 7647W        W23264  11.213   7.427  15.039 -0.3057 -0.0626  0.0147
 7648W        W23265  13.325  13.765   1.199  0.1042 -0.0193  0.2473
 7649W        W23266   3.296   1.714   0.459 -0.3579  0.0338 -0.1124
 7650W        W23267   2.018   1.985   6.090 -0.0287  0.0823  0.0714
 7651W        W23268   0.693   2.194  15.767 -0.4336 -0.1277  0.2313
 7652W        W23269   8.235  12.231   4.303 -0.2543 -0.0618 -0.0533
 7653W        W23270  13.612   4.686  14.054  0.1328  0.0717 -0.1072
 7654W        W23271  15.374   2.019  12.945  0.2890 -0.3179  0.1936
 7655W        W23272   7.134   7.804   5.037  0.0762  0.1249  0.4415
 7656W        W23273  15.467  15.315  14.894  0.0783 -0.0705 -0.0266
 7657W        W23274   6.746  12.925  15.214 -0.1594  0.0452 -0.0047
 7658W        W23275   4.754   6.299  12.915  0.0850 -0.0090  0.1528
 7659W        W23276   1.141  14.447  11.459  0.0705  0.1202 -0.2205
 7660W        W23277   9.218  11.867  15.553 -0.1344 -0.0971 -0.2111
 7661W        W23278  17.379  15.366   2.994 -0.0289  0.3561  0.1630
 7662W        W23279   6.954  13.015   1.481 -0.1081 -0.0952  0.3071
 7663W        W23280  16.894  17.372  13.023 -0.0013 -0.0652  0.3549
 7664W        W23281  12.017   2.614  16.640  0.0205 -0.0829 -0.2329
 7665W        W23282   1.693  12.701   2.136  0.0612  0.0033  0.2562
 7666W        W23283   4.304  16.530  12.547 -0.1040 -0.1938  0.1049
 7667W        W23284  12.399   0.558  16.768 -0.1163 -0.1388  0.2537
 7668W        W23285   7.532  14.930   4.216  0.3147  0.1800  0.1151
 7669W        W23286   7.861   8.145  15.927 -0.2644  0.0714  0.1803
 7670W        W23287   5.436   6.085   0.335  0.2165  0.0561  0.1426
 7671W        W23288   8.546  16.442  13.429 -0.0770  0.0565 -0.0681
 7672W        W23289  16.839   5.574  12.495 -0.4002  0.5867  0.0832
 7673W        W23290   7.585   6.555  14.761 -0.3093 -0.2767  0.2357
 7674W        W23291   2.161   8.630   2.524 -0.0274 -0.0000  0.0800
 7675W        W23292  11.830   8.138  15.623 -0.0492  0.0215  0.0864
 7676W        W23293   7.084   2.174  16.404  0.0244  0.0222 -0.0490
 7677W        W23294   6.939   1.757  12.173  0.0372 -0.0816  0.1577
 7678W        W23295  13.561  10.479   0.174 -0.2742  0.3036  0.0690
 7679W        W23296   7.658   2.589  13.137  0.1671  0.1595  0.2096
 7680W        W23297   2.025   1.562   2.085 -0.4625  0.2376  0.0841
 7681W        W23298  15.869  16.275  16.316 -0.1720 -0.0782  0.0103
 7682W        W23299  16.983   6.685  14.991  0.0384  0.1943 -0.0212
 7683W        W23300   1.640  12.543  14.586  0.0812  0.1225 -0.2485
 7684W        W23301   2.874   4.846   5.347  0.1528 -0.1090 -0.1781
 7685W        W23302  11.836  12.453  11.446  0.1816 -0.0297 -0.1043
 7686W        W23303  12.490  14.574   3.351 -0.0324 -0.1457  0.0607
 7687W        W23304   3.877   7.979  12.745 -0.1041  0.0235  0.0284
 7688W        W23305  15.591  16.733  16.502  0.4027 -0.1875 -0.1563
 7689W        W23306   6.260  16.035   1.885 -0.2334 -0.3369 -0.2614
 7690W        W23307   7.181  13.353   4.607  0.0896 -0.0605  0.3146
 7691W        W23308  17.456  13.456   2.179 -0.2730 -0.2273  0.2202
 7692W        W23309   7.134  11.679  15.681  0.0395 -0.2665  0.1100
 7693W        W23310   8.467   7.553  14.556  0.2843 -0.1452 -0.0024
 7694W        W23311  13.133   2.690   4.095  0.1373  0.0578  0.4153
 7695W        W23312   8.387  10.528  13.576  0.1851  0.0607 -0.0294
 7696W        W23313   9.936  10.069   4.306  0.0833 -0.1480  0.0477
 7697W        W23314   2.999   6.114  16.559 -0.1195 -0.0162 -0.1835
 7698W        W23315  11.081  11.967  13.869 -0.0264 -0.0652 -0.0666
 7699W        W23316  14.453   6.824   2.848  0.0380 -0.0360  0.1986
 7700W        W23317  11.464  17.362   2.265  0.2073 -0.2169 -0.0892
 7701W        W23318   1.335  17.895   4.410  0.0313  0.3352 -0.2245
 7702W        W23319   0.488  14.521  15.673 -0.0103 -0.2796  0.3748
 7703W        W23320   4.145  11.669  11.394 -0.2967 -0.1621 -0.1731
 7704W        W23321   9.525   3.176  16.210 -0.1995 -0.2163 -0.1621
 7705W        W23322   0.437  17.097  15.287  0.0759  0.1878  0.0951
 7706W        W23323   3.790  16.092   2.793  0.0311 -0.0646  0.0681
 7707W        W23324   0.700   8.387  14.429  0.2297 -0.1396 -0.0279
 7708W        W23325   9.348  12.779   0.527  0.0800 -0.2612  0.1859
 7709W        W23326  13.464  11.991   2.854 -0.1094  0.2333 -0.0945
 7710W        W23327   3.804   6.301  15.022  0.1361 -0.0179 -0.0049
 7711W        W23328   9.905  12.887   2.708 -0.1523 -0.0727 -0.0993
 7712W        W23329  14.786   5.671  16.145  0.3146 -0.1459 -0.0917
 7713W        W23330  14.793   6.513   0.069  0.4259 -0.1705 -0.0131
 7714W        W23331   8.310  17.125  15.447 -0.4178 -0.1279  0.1360
 7715W        W23332  11.436  13.134  10.264 -0.0757  0.1348  0.0555
 7716W        W23333   1.675   9.531   0.767 -0.1498 -0.0645  0.1956
 7717W        W23334  11.049   8.290  14.726 -0.0452 -0.0189  0.0896
 7718W        W23335   6.438  17.323   4.149  0.0564 -0.3058  0.1160
 7719W        W23336   4.707  11.464   2.967 -0.3712 -0.0441 -0.1677
 7720W        W23337   6.263   9.967   4.388  0.2028 -0.0347 -0.3208
 7721W        W23338   0.160   4.046  16.685  0.1057 -0.0114 -0.1492
 7722W        W23339  10.554   9.822   0.979 -0.1812  0.0156 -0.0572
 7723W        W23340   2.149  10.987   1.310  0.0996 -0.0446  0.1244
 7724W        W23341  16.955  14.744  16.548  0.5308 -0.0167  0.2937
 7725W        W23342   8.103   2.840   1.036  0.0450 -0.1535 -0.1975
 7726W        W23343  11.532  16.730  16.559  0.1836  0.0294 -0.3953
 7727W        W23344   1.459  16.428   1.290 -0.0869 -0.0670  0.3893
 7728W        W23345   2.789  14.521  15.161  0.2398 -0.2243 -0.3410
 7729W        W23346   1.721   8.695   6.641 -0.0088  0.0189  0.1849
 7730W        W23347  14.818   1.335  13.333 -0.2171  0.1023 -0.1660
 7731W        W23348  13.706   0.668  11.967  0.0630  0.1345 -0.4557
 7732W        W23349   8.767   0.578   5.056 -0.0596  0.1652 -0.3131
 7733W        W23350   4.837   0.073  12.297  0.4242  0.1947  0.1507
 7734W        W23351   6.070   6.371   3.557  0.1448  0.0034 -0.3700
 7735W        W23352   7.674  15.398   3.362  0.1026  0.2265 -0.0619
 7736W        W23353   9.194   2.336  11.577  0.1790 -0.1181 -0.3547
 7737W        W23354  10.121   3.573  15.076  0.2309  0.5042  0.2059
 7738W        W23355   1.708  10.258   4.078 -0.4654  0.0008 -0.0120
 7739W        W23356   6.576  13.532  13.650  0.0804 -0.1031 -0.2499
 7740W        W23357   1.465  14.269   1.742  0.0588  0.2803  0.1577
 7741W        W23358   4.596   0.350   2.650 -0.3909  0.1059 -0.1065
 7742W        W23359  15.108   2.387   3.011 -0.0925  0.2756  0.0888
 7743W        W23360   9.142   8.949  14.145  0.0315 -0.0435 -0.2437
 7744W        W23361   9.207  15.427  13.439  0.0297 -0.0394  0.2343
 7745W        W23362   8.262  12.558   5.364 -0.1454  0.1638  0.3764
 7746W        W23363   0.750   9.256  13.116 -0.1112 -0.0032  0.2538
 7747W        W23364  11.787   8.003  11.506 -0.3078  0.0509 -0.1534
 7748W        W23365  16.922   9.833   0.463  0.0129  0.1466  0.1283
 7749W        W23366  15.748   0.355   0.210  0.0015 -0.0521 -0.0343
 7750W        W23367  17.339  11.276   2.243 -0.1363  0.1513  0.0576
 7751W        W23368  17.599   1.839  15.699  0.0394  0.0996  0.1218
 7752W        W23369  10.647   8.373  11.462  0.0063  0.2076 -0.0540
 7753W        W23370   6.988  11.086   5.552  0.3310 -0.2182 -0.0640
 7754W        W23371   7.228  11.066  14.359 -0.0262  0.0105  0.0727
 7755W        W23372  10.827   3.712  12.196  0.0174  0.0821  0.1938
 7756W        W23373   4.895   8.039  12.585 -0.0066  0.0967  0.0869
 7757W        W23374  11.421  11.275   5.195  0.3102  0.0125  0.0241
 7758W        W23375  10.222   5.440   2.594  0.0149  0.0812 -0.0645
 7759W        W23376  17.325   3.533   5.591 -0.2899 -0.0453  0.1251
 7760W        W23377   6.901   4.007  15.884 -0.0726 -0.1086  0.1722
 7761W        W23378   6.598   5.549  13.992  0.2202  0.0678  0.1251
 7762W        W23379   3.112   6.908  13.166 -0.1385  0.0982  0.0730
 7763W        W23380  14.919  13.671   5.443  0.1512  0.3435 -0.0270
 7764W        W23381  16.599   1.894  14.007 -0.1978 -0.2550 -0.2224
 7765W        W23382   4.965   3.446   6.279 -0.1180 -0.2360 -0.0775
 7766W        W23383   6.305  10.238   2.434 -0.2337  0.2893  0.0915
 7767W        W23384   3.713  17.754   1.618  0.1722  0.0681  0.0307
 7768W        W23385  13.223  13.861   4.716  0.3300 -0.1051  0.0706
 7769W        W23386   6.221  11.114   2.466 -0.1017 -0.0899  0.0018
 7770W        W23387  15.889  17.192  12.831  0.0308 -0.0947  0.1513
 7771W        W23388   1.468  15.522  15.019 -0.0076  0.0384 -0.0644
 7772W        W23389   2.623   9.289   4.154  0.0469  0.2234  0.0774
 7773W        W23390   7.291   4.812  12.442  0.0078 -0.0032  0.0076
 7774W        W23391   3.262  16.046   2.938  0.1192 -0.2786  0.1286
 7775W        W23392   8.204   3.976   3.497 -0.3726  0.1059 -0.0737
 7776W        W23393   6.062   0.557  13.309 -0.1104  0.0624 -0.2754
 7777W        W23394  10.391   0.679  14.644 -0.0309 -0.1249  0.1862
 7778W        W23395   2.781   6.749  13.544  0.0775  0.1607 -0.2102
 7779W        W23396   1.930  10.322  13.519  0.1338  0.5886 -0.4509
 7780W        W23397   6.763  11.820  16.003  0.0860 -0.2052 -0.2144
 7781W        W23398   3.319   5.744   0.096  0.0531 -0.2080 -0.2628
 7782W        W23399  12.844  11.429  11.659  0.0345  0.0635  0.1530
 7783W        W23400   8.876   8.082   2.249 -0.0127  0.0280 -0.1840
 7784W        W23401  13.505  10.110  11.756 -0.2586 -0.0229  0.1619
 7785W        W23402   2.071   0.110   3.239  0.0004  0.1329  0.0264
 7786W        W23403  11.888  16.172  13.718 -0.0012 -0.1466  0.1558
 7787W        W23404  15.143  11.380   4.437  0.1556  0.0193 -0.4114
 7788W        W23405  15.406   6.588   5.469 -0.1594 -0.0591 -0.0633
 7789W        W23406  12.480  11.925  15.063 -0.0319 -0.1990  0.2041
 7790W        W23407   6.028   3.121  13.855 -0.1613  0.0704  0.0832
 7791W        W23408   6.081   1.674   1.540  0.0118  0.2405  0.0052
 7792W        W23409  15.356   2.911   1.339 -0.0837  0.1523 -0.0085
 7793W        W23410  12.050  10.252  15.064  0.0188 -0.2002  0.1724
 7794W        W23411   9.840  11.156   0.529 -0.1624  0.0256 -0.3806
 7795W        W23412   3.372   1.550   3.802 -0.0117  0.0471 -0.1713
 7796W        W23413   3.826   4.807  13.290  0.1864 -0.0072 -0.1395
 7797W        W23414   7.081   8.936   3.346  0.0197  0.0973 -0.2889
 7798W        W23415  15.907   5.482  15.705 -0.3101 -0.1754 -0.1242
 7799W        W23416   4.596  10.372  14.189 -0.2766  0.0011 -0.0665
 7800W        W23417   5.365  15.261   2.215 -0.1832 -0.0040 -0.4563
 7801W        W23418  15.599  14.572   0.027 -0.0365  0.3495  0.3426
 7802W        W23419   5.455  11.429  10.210  0.0841  0.1860 -0.0738
 7803W        W23420   8.680  17.581   3.974 -0.0643  0.0734 -0.0045
 7804W        W23421  12.953  16.344   4.996  0.1959  0.3286  0.0389
 7805W        W23422   1.704   6.362  15.262 -0.3859  0.1661  0.0796
 7806W        W23423   4.551   4.891   5.605 -0.0825 -0.0887  0.0414
 7807W        W23424  15.307  16.786  13.892 -0.1259  0.0581 -0.0414
 7808W        W23425  15.519   2.055   0.007 -0.0798 -0.1145 -0.1550
 7809W        W23426  17.222  17.038  14.359 -0.0147  0.1906 -0.1697
 7810W        W23427  16.661  11.703   1.199  0.0451  0.3066 -0.1112
 7811W        W23428   0.134   8.251  11.809 -0.1773  0.0224  0.0807
 7812W        W23429   1.812  13.453   2.821 -0.2221  0.1277  0.4217
 7813W        W23430  10.180   2.628   4.188 -0.1536  0.0574 -0.1370
 7814W        W23431   9.804   4.713  10.983  0.0853  0.4229  0.1005
 7815W        W23432   2.573   1.962  12.216 -0.0547 -0.2328  0.0696
 7816W        W23433  16.246  17.434   4.485  0.0239  0.1356  0.0761
 7817W        W23434   8.761  15.955  11.957  0.0663 -0.0238 -0.1156
 7818W        W23435   1.883   2.412  13.696 -0.1106 -0.1990  0.2481
 7819W        W23436   6.809   9.376  11.900  0.0152  0.1803  0.0824
 7820W        W23437   6.858   3.490  10.945 -0.3788  0.0850  0.2858
 7821W        W23438  15.699   0.649  16.035  0.0297 -0.2096 -0.0181
 7822W        W23439  12.701   2.120  13.085 -0.0472  0.2437  0.0977
 7823W        W23440   5.641   0.362  11.797  0.2596  0.0621  0.0290
 7824W        W23441   5.013  10.525  12.488  0.0931  0.0277 -0.2607
 7825W        W23442  11.735  10.737  11.309  0.3541 -0.1884 -0.0802
 7826W        W23443  17.844   7.736   0.506 -0.1306 -0.1463 -0.0007
 7827W        W23444   6.128  11.402  11.397  0.0651  0.1361  0.4155
 7828W        W23445   5.182  10.474  15.220 -0.1829 -0.0368  0.0470
 7829W        W23446   4.571   7.649   2.252 -0.0599 -0.0912  0.0788
 7830W        W23447   6.024   2.600  14.178 -0.1176 -0.3732 -0.0532
 7831W        W23448   4.338   6.891   0.237  0.2203  0.0990 -0.1152
 7832W        W23449   0.479  16.313   4.136 -0.0233 -0.0386  0.0244
 7833W        W23450  14.657  14.651   3.599 -0.4115 -0.0397 -0.0425
 7834W        W23451  14.784   7.041  16.677  0.0712  0.1109 -0.0302
 7835W        W23452  10.148  17.934   2.301 -0.1095  0.1737 -0.1089
 7836W        W23453  15.593  14.354   3.305  0.0225  0.2793  0.0065
 7837W        W23454   3.404   7.735  16.359 -0.1601 -0.0493 -0.1030
 7838W        W23455   5.381   7.859   4.505  0.2114 -0.0590  0.1980
 7839W        W23456  13.171  10.799  12.273 -0.1399  0.2785 -0.4599
 7840W        W23457   2.377   7.677  11.657  0.0085 -0.3142 -0.0160
 7841W        W23458   2.102   0.124  15.534 -0.1200 -0.0370  0.2808
 7842W        W23459  10.307  12.452   0.927  0.0619  0.0536 -0.2087
 7843W        W23460   4.287  15.223  11.614  0.1094  0.0568 -0.0752
 7844W        W23461   6.119   6.453  12.459 -0.0130 -0.3228  0.0618
 7845W        W23462  11.159   6.524  14.600 -0.1998 -0.1333 -0.3214
 7846W        W23463   9.457   0.097  12.761  0.1282  0.0784  0.0326
 7847W        W23464  17.518  17.423   4.230  0.0198  0.0938  0.1352
 7848W        W23465   6.491   4.320   3.929  0.2432 -0.0896  0.0378
 7849W        W23466   2.061   1.953  14.668 -0.3666  0.2025 -0.1860
 7850W        W23467   2.969   4.865   2.503 -0.0357 -0.1192  0.0236
 7851W        W23468   1.527  13.887  11.696  0.0430  0.2561  0.0027
 7852W        W23469   6.515  10.667  11.742  0.0083  0.0710  0.0888
 7853W        W23470  17.144   5.205   5.711 -0.1509 -0.3126  0.0811
 7854W        W23471  11.401   3.826  16.531  0.1529 -0.4589  0.0030
 7855W        W23472  13.727  10.481  14.434 -0.2575 -0.3270  0.1839
 7856W        W23473   6.655   5.046   0.635  0.2385  0.1506  0.2088
 7857W        W23474   5.895   5.838  15.283 -0.1036 -0.0746  0.2466
 7858W        W23475   7.209   1.746  14.677 -0.1203  0.1007 -0.0735
 7859W        W23476   2.929  15.190  13.818 -0.0741  0.1820  0.2385
 7860W        W23477   4.546  16.052   5.605  0.1013 -0.0743 -0.3216
 7861W        W23478   4.964   1.985   0.926 -0.0425  0.2563  0.0190
 7862W        W23479  11.651   2.435   4.563  0.1594 -0.0175 -0.1430
 7863W        W23480  16.100  14.273  12.418  0.2503 -0.1620 -0.3444
 7864W        W23481  11.918   8.720  13.025 -0.1185 -0.1379  0.0442
 7865W        W23482  10.961   2.106   2.228 -0.0341  0.0048  0.1974
 7866W        W23483   0.331  13.363  16.717 -0.1582 -0.1869  0.0822
 7867W        W23484  12.171   1.391  12.851 -0.0203  0.1128  0.0786
 7868W        W23485   1.344   2.230   0.687 -0.3025 -0.1552 -0.1751
 7869W        W23486  11.103  13.648  16.521 -0.0191  0.0281 -0.1347
 7870W        W23487  16.338  14.772  11.882 -0.0506 -0.0753  0.1764
 7871W        W23488   7.348   0.491  15.079  0.3740  0.2627 -0.3780
 7872W        W23489   9.860   4.335   1.258  0.2604  0.0463  0.0721
 7873W        W23490   0.476   5.215   5.397  0.2422  0.1585 -0.1698
 7874W        W23491   8.684   2.105  13.712 -0.0292 -0.2452  0.2287
 7875W        W23492  10.287   9.645   3.999 -0.0104 -0.3024 -0.0586
 7876W        W23493   1.638   1.961   2.049 -0.2090 -0.3885 -0.2210
 7877W        W23494   0.475   6.602   0.643 -0.1965 -0.3392 -0.2771
 7878W        W23495   1.508   9.363   3.485 -0.0513  0.1956  0.1815
 7879W        W23496   4.543   2.022   4.427 -0.1491  0.0207 -0.4795
 7880W        W23497  17.044  12.719   1.425 -0.5777 -0.0097  0.2813
 7881W        W23498   8.618  15.138   2.667 -0.2190  0.0610 -0.1971
 7882W        W23499  10.705  13.595   0.655  0.5401  0.0690  0.1737
 7883W        W23500  17.532  16.247   1.377 -0.0452  0.3216 -0.1168
 7884W        W23501  10.129  11.562  12.383  0.0916 -0.0296  0.0075
 7885W        W23502  11.276  11.520   4.779  0.0437 -0.1135 -0.1332
 7886W        W23503  16.957   7.858  14.822 -0.1462 -0.1635  0.0546
 7887W        W23504  12.919  10.371  15.565 -0.0571 -0.0287  0.0728
 7888W        W23505  17.931   0.912   1.223  0.1853  0.1446 -0.0922
 7889W        W23506   6.569   1.551   4.179  0.1482 -0.0591  0.4120
 7890W        W23507  14.588   6.641   5.995 -0.2074 -0.0345  0.0285
 7891W        W23508   8.074   0.790  14.842  0.0254 -0.3457 -0.1667
 7892W        W23509   6.565   5.515   2.597  0.2929 -0.0217  0.1881
 7893W        W23510   0.087  17.720  12.122  0.0159  0.1121  0.1963
 7894W        W23511   0.058   6.331   2.859  0.0446 -0.4440 -0.0563
 7895W        W23512   6.131   6.158   1.163 -0.2138 -0.3089 -0.1936
 7896W        W23513  11.415   8.967  11.875  0.0572  0.1681 -0.0800
 7897W        W23514   3.579   1.868  16.450 -0.1359  0.0778  0.1674
 7898W        W23515  14.334   5.912   4.167  0.1029  0.1748  0.0546
 7899W        W23516   4.840  13.418   3.476 -0.0729  0.2072 -0.0861
 7900W        W23517   2.344   7.910   1.960  0.1788  0.0926 -0.2302
 7901W        W23518  15.275   0.484   4.221 -0.0271 -0.1117 -0.0899
 7902W        W23519   2.873  14.479   4.263 -0.1789  0.0379  0.2361
 7903W        W23520   3.230   0.079   2.290 -0.1352  0.1896  0.2169
 7904W        W23521   6.664   4.994  14.617  0.2818 -0.2394  0.2484
 7905W        W23522  17.084   5.201   2.125  0.0067 -0.1526  0.0077
 7906W        W23523   5.311   0.956   0.915 -0.0160 -0.2917 -0.1891
 7907W        W23524   3.034  11.330  14.894 -0.0735  0.2243  0.2027
 7908W        W23525   8.292   9.020  12.339 -0.0869 -0.0743  0.0451
 7909W        W23526  14.025  11.805   5.432  0.0747 -0.1951  0.0392
 7910W        W23527   3.834   8.195  13.297  0.1902 -0.0764 -0.2851
 7911W        W23528  12.088  10.600  10.955  0.1295  0.0649  0.1789
 7912W        W23529  14.763  14.348   2.613  0.2248 -0.0649  0.1087
 7913W        W23530   1.944  13.202   1.240 -0.1493 -0.0399 -0.0682
 7914W        W23531  13.679  11.749   0.706 -0.4118  0.3747 -0.3155
 7915W        W23532   2.987   2.571  14.699 -0.4197  0.2004 -0.1281
 7916W        W23533   8.026   2.177  14.124 -0.1605  0.0759  0.3242
 7917W        W23534  11.493  10.208   2.121  0.3388  0.0449  0.2216
 7918W        W23535  10.555   8.041   4.532  0.5038 -0.0276 -0.3722
 7919W        W23536  16.701  17.136   4.481 -0.2788 -0.1635  0.1409
 7920W        W23537  15.605   0.849  14.117 -0.1141 -0.1899  0.0983
 7921W        W23538  12.717  13.647   2.533  0.0804 -0.0956 -0.4085
 7922W        W23539  17.130  10.220   3.476  0.2207 -0.0310  0.0617
 7923W        W23540   9.484  14.357  14.677 -0.1701 -0.2316 -0.2347
 7924W        W23541   4.948  16.305   1.705  0.0435 -0.0194  0.1646
 7925W        W23542   6.192   9.816  12.595  0.0443 -0.0808 -0.3731
 7926W        W23543   8.813  14.709   2.894  0.0971 -0.1001 -0.0292
 7927W        W23544   3.074   9.353  13.303  0.0378  0.0732  0.2779
 7928W        W23545  10.434  14.811  15.733 -0.2961 -0.1670  0.0351
 7929W        W23546   0.787  12.497  13.600  0.1486 -0.2819 -0.1800
 7930W        W23547  15.175   4.912  14.733 -0.0608 -0.3144  0.0003
 7931W        W23548  12.245  16.372   6.295 -0.1308 -0.0511 -0.1282
 7932W        W23549   4.956   2.979   2.681  0.4742 -0.0553  0.2122
 7933W        W23550  16.873  10.613   0.222  0.0052  0.1247  0.0997
 7934W        W23551   3.967  14.191  16.469 -0.1682 -0.0967 -0.2595
 7935W        W23552   7.660   5.812  15.487 -0.1193  0.0267 -0.1854
 7936W        W23553  11.567  11.785  15.492  0.3176  0.0554  0.1340
 7937W        W23554  16.964   3.146  13.764  0.0765  0.1284  0.3715
 7938W        W23555   7.412  15.541   0.517 -0.0619  0.0732 -0.0549
 7939W        W23556   8.567   0.279  15.918 -0.0855 -0.1149 -0.2532
 7940W        W23557  17.823   1.325   0.480 -0.2458 -0.1394 -0.0397
 7941W        W23558   4.885  11.406  16.349 -0.0356 -0.4131  0.0235
 7942W        W23559  15.149  13.436   0.746  0.1405  0.1699  0.0959
 7943W        W23560  14.382  15.410   3.020 -0.2088 -0.0375  0.0109
 7944W        W23561   9.112   3.447   2.783  0.3337 -0.0683  0.0701
 7945W        W23562  10.905  11.821  11.218 -0.2478 -0.1030  0.0839
 7946W        W23563   1.001   5.266   2.191 -0.1044 -0.0670 -0.0327
 7947W        W23564   6.652   1.411  14.321  0.2912  0.0229  0.1295
 7948W        W23565   3.502  11.303   0.373  0.3788  0.1329  0.0531
 7949W        W23566   8.530  11.495  11.236 -0.0092 -0.1197 -0.2427
 7950W        W23567  15.462   9.995  14.651  0.1522  0.3022  0.1257
 7951W        W23568   0.066  16.512   5.272 -0.3544 -0.1330 -0.0150
 7952W        W23569  16.184  11.325   4.697 -0.1431 -0.0863  0.1057
 7953W        W23570  13.336  10.484   5.082  0.0565 -0.1472 -0.0285
 7954W        W23571   1.913   8.377  13.136 -0.1697 -0.0210  0.1770
 7955W        W23572   1.674   0.637   1.506  0.1741  0.1644 -0.1764
 7956W        W23573  14.598   0.403  11.261  0.0320 -0.1693  0.1622
 7957W        W23574   9.107  17.290   2.364 -0.2383  0.0126  0.1164
 7958W        W23575   0.173   0.407   4.175  0.1390  0.2856  0.1573
 7959W        W23576  18.011   5.391  15.784  0.2966  0.0921 -0.1222
 7960W        W23577  15.544   0.465   1.995  0.2286 -0.1407 -0.2327
 7961W        W23578   6.507   4.954   1.447  0.0069  0.1256  0.0330
 7962W        W23579   8.450   6.060  12.799  0.0779 -0.2301  0.0276
 7963W        W23580   9.003  12.732  11.679  0.1345 -0.1977  0.0644
 7964W        W23581  16.463   1.174  12.511  0.2198 -0.3736  0.2039
 7965W        W23582  14.418  17.093  13.587 -0.0826  0.0909 -0.2218
 7966W        W23583   3.816   3.539   0.633 -0.2864 -0.0919  0.1909
 7967W        W23584   7.298   3.611  15.847  0.0673 -0.2218 -0.0568
 7968W        W23585  11.537   9.907   3.729  0.2209 -0.0648 -0.2064
 7969W        W23586  16.795   4.772   0.611 -0.0450 -0.2656 -0.2397
 7970W        W23587   9.552  15.942  11.316 -0.0462  0.2815 -0.2735
 7971W        W23588   8.157  17.425   4.865 -0.0731 -0.0034  0.3044
 7972W        W23589   8.983  14.139  15.450  0.1516  0.1565  0.0645
 7973W        W23590  10.691   9.170  14.683 -0.1569  0.0588 -0.0520
 7974W        W23591   6.272  13.820  15.424  0.0684  0.0597  0.0393
 7975W        W23592   1.049   7.299   3.078  0.0889  0.0431  0.2873
 7976W        W23593   4.146  10.139   0.903  0.0338  0.0577 -0.0935
 7977W        W23594   7.371   0.058  15.454 -0.1491  0.0926  0.0590
 7978W        W23595  15.582   5.131  15.711  0.1505 -0.1923 -0.3406
 7979W        W23596  14.216  10.367   2.822 -0.0403 -0.0240 -0.1907
 7980W        W23597   3.760  10.499  12.549  0.1616 -0.1547 -0.0663
 7981W        W23598  10.126   0.749   1.958  0.1922  0.1715  0.0459
 7982W        W23599   8.951   7.065   0.980  0.0089 -0.2103  0.1934
 7983W        W23600   1.084   2.573  13.006  0.0464 -0.2210 -0.1340
 7984W        W23601  17.409  11.278   5.400  0.2154  0.1649  0.0726
 7985W        W23602  16.905  12.198  11.535 -0.1421 -0.1663  0.0088
 7986W        W23603   7.233   4.529   1.744  0.1091 -0.0832  0.1638
 7987W        W23604   7.992   0.274   0.844  0.1037 -0.0661  0.1817
 7988W        W23605  10.318  10.046   4.779 -0.3135 -0.3093  0.0985
 7989W        W23606   4.083  17.673  14.715  0.0192 -0.0279 -0.0811
 7990W        W23607  17.511   6.653  15.249 -0.1329  0.0172  0.1448
 7991W        W23608   4.882  16.838  15.797  0.2392  0.2221  0.2247
 7992W        W23609  13.802  16.619   5.491  0.2885 -0.0410 -0.1313
 7993W        W23610  12.077   2.661   2.144 -0.0194  0.0711 -0.1497
 7994W        W23611   3.533  12.005   4.985 -0.0357 -0.1212  0.2847
 7995W        W23612   4.349  15.822  11.854  0.0115  0.0791 -0.1117
 7996W        W23613   9.278  17.763   2.580  0.0534 -0.1224  0.2374
 7997W        W23614   5.235   3.905   0.199 -0.1537 -0.0315  0.2570
 7998W        W23615  11.677   9.851   3.173 -0.2328  0.0044  0.0793
 7999W        W23616   8.462  11.722   0.686  0.2058 -0.2494 -0.0863
 8000W        W23617  15.197   1.477  13.006 -0.1686 -0.1657  0.0624
 8001W        W23618  14.024   2.627  14.854  0.4238 -0.2814 -0.1415
 8002W        W23619   0.770   8.245   3.228 -0.0368  0.0595  0.2038
 8003W        W23620   6.945  12.673   0.996 -0.2613  0.1566 -0.3433
 8004W        W23621  11.248   1.793   0.930 -0.0791  0.1377 -0.1382
 8005W        W23622   5.536  12.924  12.740  0.2603  0.2376  0.0191
 8006W        W23623  10.921  13.195   3.612 -0.0666  0.1232 -0.0154
 8007W        W23624   0.972   7.610   4.040 -0.2682  0.2434 -0.0624
 8008W        W23625   4.698  15.517   6.370 -0.0317 -0.1967  0.3073
 8009W        W23626  11.598  10.201  13.848 -0.2143 -0.0962  0.2470
 8010W        W23627  13.981   9.451  12.224 -0.3010  0.0319  0.1113
 8011W        W23628  11.429  12.760  12.437  0.1508  0.1913  0.2420
 8012W        W23629   7.074  13.658  12.213 -0.0793  0.0605 -0.1944
 8013W        W23630   4.706  13.306  12.517 -0.4853  0.0663  0.3129
 8014W        W23631  17.445   6.502   4.400  0.5963  0.0768 -0.1841
 8015W        W23632   9.835   2.665  15.198 -0.2359  0.2542  0.1139
 8016W        W23633  13.423  14.644   3.964  0.0796 -0.1306 -0.3660
 8017W        W23634   8.414  16.165  11.552  0.2155 -0.0340  0.0270
 8018W        W23635   3.093  11.318  15.392 -0.0386 -0.1558 -0.0767
 8019W        W23636   1.797  13.174  12.820 -0.2075  0.3804 -0.1216
 8020W        W23637   8.237  11.307  12.734  0.1348 -0.1524  0.0253
 8021W        W23638  10.746  17.274  16.154 -0.0075 -0.0391 -0.2949
 8022W        W23639   0.876  14.237  15.429  0.1173 -0.1258 -0.1702
 8023W        W23640  16.645   3.962   0.641 -0.2778 -0.1134 -0.1227
 8024W        W23641  11.229   1.191  11.885  0.0114  0.1541  0.0574
 8025W        W23642   7.322   8.379   0.541  0.0397 -0.2066  0.0057
 8026W        W23643   8.829   6.403  12.802 -0.1018  0.3136 -0.0399
 8027W        W23644  16.967   2.769  16.383  0.3528 -0.2017  0.0229
 8028W        W23645  13.364   3.533  15.797 -0.2138 -0.1166 -0.1723
 8029W        W23646  12.490  14.234   4.258  0.2073  0.3733  0.0155
 8030W        W23647   3.767   0.129  15.869  0.1934 -0.0434 -0.0782
 8031W        W23648   5.876   0.245  12.282  0.1598  0.3658 -0.0054
 8032W        W23649   2.828   8.375  14.133 -0.3572 -0.3846  0.0145
 8033W        W23650  10.860  17.072   1.463 -0.0527  0.1647 -0.1147
 8034W        W23651  14.115   9.391  15.084 -0.0026  0.0953  0.2402
 8035W        W23652   7.150  14.806  10.787 -0.0344 -0.0727  0.0769
 8036W        W23653  10.681   2.191   5.153 -0.1932  0.1582  0.1859
 8037W        W23654   6.162  15.196   0.154 -0.0965  0.1367  0.0829
 8038W        W23655   0.224  16.140  14.466 -0.1475 -0.1180  0.1216
 8039W        W23656  10.303  16.525   0.861  0.0547 -0.0742 -0.1349
 8040W        W23657  11.284  12.032   5.958 -0.2572  0.2224 -0.0413
 8041W        W23658   2.186   1.578   3.720  0.0794  0.0164 -0.0256
 8042W        W23659  13.986   4.327   4.210  0.0048  0.1071 -0.3354
 8043W        W23660   3.684   9.244   3.771  0.0164  0.2292  0.0210
 8044W        W23661  12.112  10.106   3.319 -0.0410 -0.0267 -0.3884
 8045W        W23662   2.828  13.545  13.567 -0.4216  0.1254 -0.1751
 8046W        W23663   5.413  17.594  13.969 -0.1135  0.1496  0.0303
 8047W        W23664   3.722   5.790  15.974  0.0219  0.2071  0.1308
 8048W        W23665   1.729   1.005  13.791 -0.2431  0.2748 -0.2073
 8049W        W23666   3.376  14.358  12.710 -0.0101 -0.1302  0.4381
 8050W        W23667   8.496   1.372   5.909 -0.0626 -0.1021  0.0895
 8051W        W23668   6.925   8.049  13.033 -0.0590 -0.1647  0.3984
 8052W        W23669   5.900   3.663  12.536 -0.0307 -0.1711  0.0104
 8053W        W23670  16.171  15.628  13.681 -0.0954 -0.0620 -0.1573
 8054W        W23671   5.577   4.507  15.354 -0.2628  0.0956 -0.0967
 8055W        W23672  17.372  16.089   3.602  0.0775 -0.0276  0.2409
 8056W        W23673   0.057  12.518  14.652 -0.2108  0.3878 -0.0247
 8057W        W23674  11.603  17.693  14.138 -0.0896 -0.0490 -0.2230
 8058W        W23675   9.208   4.305   3.735  0.2375  0.0124 -0.2967
 8059W        W23676   2.787   6.287   2.546  0.0983  0.0327 -0.0099
 8060W        W23677   0.383   7.947   3.469 -0.0668 -0.1256  0.1510
 8061W        W23678   4.863  15.317   1.307 -0.0680 -0.4391  0.1218
 8062W        W23679   6.581  16.302   5.825 -0.0183 -0.3789  0.0256
 8063W        W23680   5.035  12.345   3.887 -0.1241 -0.1654  0.0693
 8064W        W23681  17.911   7.018  15.309 -0.1557  0.3227  0.1787
 8065W        W23682   4.079  14.079  14.641  0.1434  0.0652  0.1215
 8066W        W23683   5.810   5.668   2.738 -0.0848 -0.1373 -0.1291
 8067W        W23684  11.913   1.712  12.191 -0.0477  0.0682  0.0793
 8068W        W23685   1.745  11.748  16.596 -0.2431 -0.0923 -0.6046
 8069W        W23686  14.787  13.040   5.938 -0.0877  0.2177  0.1347
 8070W        W23687   2.111   4.405  12.947  0.3575  0.4783  0.0496
 8071W        W23688  15.462   8.129  11.885  0.1113 -0.2337 -0.0987
 8072W        W23689  17.841   5.894   0.362 -0.0535  0.1481 -0.0648
 8073W        W23690  17.238   7.449  13.440  0.0941 -0.1698 -0.0712
 8074W        W23691  14.449  14.965  14.531 -0.3210 -0.0293 -0.2414
 8075W        W23692   1.561  10.238  14.218  0.0550 -0.0279  0.1968
 8076W        W23693   2.917  10.347  15.116 -0.0834 -0.0920  0.1215
 8077W        W23694   2.158   2.137   6.520 -0.0617  0.1883 -0.2618
 8078W        W23695  17.542   6.489   0.645 -0.0573 -0.0409  0.2777
 8079W        W23696  13.796  13.913   2.362 -0.1562 -0.1344 -0.0705
 8080W        W23697   4.612   2.292   3.316  0.0754  0.1205 -0.1117
 8081W        W23698  12.419  12.814  16.067  0.3034  0.2632 -0.4328
 8082W        W23699  10.560  11.518  11.396 -0.1646 -0.3424  0.0512
 8083W        W23700   6.537   0.799  15.946 -0.0674  0.5093 -0.0824
 8084W        W23701  17.691   3.955  14.223  0.1365  0.0348 -0.2499
 8085W        W23702   4.171   6.135   3.540  0.0616 -0.2642 -0.1153
 8086W        W23703   9.566   6.751  15.033 -0.3018 -0.0975 -0.2033
 8087W        W23704   1.349   8.029   2.966 -0.1558 -0.4562 -0.4437
 8088W        W23705   2.336   8.565   4.811 -0.0940  0.4117 -0.0438
 8089W        W23706   0.845  16.642   4.314 -0.2043 -0.3667 -0.1170
 8090W        W23707   9.341  14.381   3.627  0.0486  0.1628  0.0922
 8091W        W23708  17.597   5.423   2.041  0.1719 -0.2738 -0.0405
 8092W        W23709  13.446  15.832  15.813 -0.0792 -0.0665 -0.0550
 8093W        W23710  13.305   9.436  13.619 -0.3396 -0.0557  0.1882
 8094W        W23711  12.146   7.428  12.415 -0.2335  0.3031 -0.0029
 8095W        W23712  11.530   8.427  13.214 -0.2411  0.0790  0.0548
 8096W        W23713   4.406   2.284  15.337  0.0574 -0.0731 -0.0753
 8097W        W23714   2.085   2.765   4.956 -0.0279 -0.1251 -0.2778
 8098W        W23715   7.400   0.583   2.719  0.1287 -0.0528 -0.0220
 8099W        W23716  16.860  10.850  15.065  0.2901  0.3580 -0.0971
 8100W        W23717  14.754   0.904   2.676  0.2196  0.0207 -0.0158
 8101W        W23718   4.952   1.285  13.100  0.0378 -0.0517  0.2113
 8102W        W23719  12.982   6.606  16.007  0.3306  0.0849  0.1184
 8103W        W23720  13.175  10.784  10.393 -0.0479 -0.0541 -0.0278
 8104W        W23721   1.672   5.741  14.605  0.1066  0.4000  0.0591
 8105W        W23722   4.241  10.989  14.622  0.0209 -0.0504  0.0750
 8106W        W23723  15.489   0.871  16.792  0.0040  0.0791 -0.2173
 8107W        W23724   3.592  14.763  16.604  0.2195 -0.2868 -0.0628
 8108W        W23725   8.562  13.110   3.223  0.4782 -0.0556  0.0628
 8109W        W23726  11.426  17.600  13.680  0.5662 -0.1245  0.1290
 8110W        W23727  15.797   9.385   4.665  0.1411  0.0626  0.0646
 8111W        W23728   3.762   3.465  15.061  0.1784  0.0158 -0.1175
 8112W        W23729   9.575   7.325  15.431 -0.2721  0.2450  0.0309
 8113W        W23730   1.943   8.651  13.883 -0.1109  0.0098 -0.0773
 8114W        W23731   6.599  16.903  10.368  0.1989  0.0313 -0.0409
 8115W        W23732  12.044   9.936  13.822 -0.0922 -0.1582  0.0639
 8116W        W23733  16.913   8.796   0.454 -0.1835  0.0067  0.0244
 8117W        W23734   9.118   5.643  13.241  0.0011  0.2504  0.0265
 8118W        W23735  13.149  14.200   5.062  0.1795 -0.4556 -0.0144
 8119W        W23736  14.521  14.148   2.190  0.2493  0.0752  0.1463
 8120W        W23737  11.224  13.432   3.195  0.1726  0.1912 -0.3778
 8121W        W23738   1.174  17.236   3.180 -0.1722 -0.1186 -0.0419
 8122W        W23739   8.563   0.554  14.898 -0.1065  0.0121  0.3046
 8123W        W23740   9.190   6.351  16.260 -0.0830  0.1593  0.0127
 8124W        W23741  14.037  16.884  14.028  0.2741  0.0605  0.2908
 8125W        W23742   2.203   5.986  13.614  0.4051 -0.0488  0.0468
 8126W        W23743  15.341  14.993   5.623 -0.2187  0.0927 -0.2158
 8127W        W23744  11.476  17.821  15.161  0.0008  0.3054 -0.1217
 8128W        W23745   3.322   9.158  15.985  0.2740  0.5731  0.1198
 8129W        W23746   0.668   1.254  12.850  0.0959  0.1373 -0.0042
 8130W        W23747   4.989   2.521  16.213 -0.3525 -0.0880  0.2007
 8131W        W23748  13.528  12.155   1.044 -0.2056  0.0848  0.2142
 8132W        W23749   4.045  11.379  14.440 -0.0355  0.0418 -0.0267
 8133W        W23750   9.285  14.064   2.190 -0.1394 -0.0070  0.1304
 8134W        W23751  13.068   9.209   2.747  0.0377  0.1168 -0.0923
 8135W        W23752  15.911   4.010   2.157 -0.2127  0.1186 -0.0340
 8136W        W23753  15.064   2.569  13.226 -0.0350 -0.0386  0.1408
 8137W        W23754  12.022   8.814   0.240 -0.1674  0.2207  0.2322
 8138W        W23755   1.319  11.247  14.327 -0.0968  0.2893 -0.1100
 8139W        W23756   3.735   9.835   0.624 -0.1499 -0.1104 -0.3696
 8140W        W23757   7.504  11.163  12.970 -0.0402  0.1437  0.0070
 8141W        W23758   1.442   1.250  12.826  0.1901  0.2523  0.0339
 8142W        W23759  17.989  11.629  14.526  0.0758  0.2265 -0.0620
 8143W        W23760   8.269  18.048   5.771 -0.1746  0.0521  0.0562
 8144W        W23761  15.031  17.067   2.151  0.4056 -0.4330  0.0101
 8145W        W23762   4.747  17.309   4.395  0.3068  0.0381 -0.0691
 8146W        W23763  14.064  10.119  16.408  0.0498 -0.2848 -0.1995
 8147W        W23764  15.236   0.369   0.046  0.1558  0.2612 -0.0931
 8148W        W23765   5.882  16.924   0.013 -0.3902  0.3000 -0.2946
 8149W        W23766  13.562   0.949  14.695  0.0333 -0.0561  0.0649
 8150W        W23767   8.428  15.507  12.003  0.0938 -0.0632  0.3445
 8151W        W23768  16.269  10.470  14.643  0.1095  0.2086  0.2113
 8152W        W23769  10.945   2.907   4.919 -0.2641 -0.0285 -0.1369
 8153W        W23770   3.976  11.921  11.837 -0.0172  0.1956  0.0414
 8154W        W23771  17.885   8.643  11.587 -0.1431 -0.1591 -0.1070
 8155W        W23772  15.923  12.053   2.198 -0.4228 -0.1319  0.1685
 8156W        W23773   8.739   5.737  11.067 -0.2288 -0.0910 -0.0543
 8157W        W23774   5.568   6.228  15.166 -0.0782 -0.0518 -0.4040
 8158W        W23775   9.919  10.085   0.568  0.4908  0.1658 -0.0947
 8159W        W23776   3.316  10.493  13.918 -0.1311  0.0793  0.0056
 8160W        W23777  11.192   6.877  12.299 -0.0237  0.0455  0.0824
 8161W        W23778   0.164   5.862   2.896  0.1732  0.0992 -0.0547
 8162W        W23779   0.196  10.737   0.276  0.1649 -0.0966  0.0278
 8163W        W23780   4.479   9.206  16.707  0.1168 -0.0687 -0.1013
 8164W        W23781   6.705   7.433  11.093 -0.2426  0.0024  0.0366
 8165W        W23782  12.782  11.246   3.101 -0.0557 -0.2212  0.1329
 8166W        W23783   5.821   3.078   2.295  0.2749  0.0346  0.0561
 8167W        W23784   8.626   4.541   0.974 -0.1636  0.0205  0.1200
 8168W        W23785  10.709   6.145  14.547  0.0343  0.1276  0.0122
 8169W        W23786   7.724   8.790  16.403  0.0752  0.0068  0.1079
 8170W        W23787   4.759   4.016   0.870  0.0950 -0.1756 -0.4272
 8171W        W23788   0.559  15.208   2.221 -0.0533 -0.2832  0.2362
 8172W        W23789   8.972  16.048  16.342  0.0105 -0.1508 -0.1820
 8173W        W23790   5.396  10.399   1.825 -0.1091  0.1341 -0.1482
 8174W        W23791  11.682   9.623  11.509  0.0718  0.0001  0.0670
 8175W        W23792   1.778  14.890   3.735  0.0076 -0.0166  0.1860
 8176W        W23793  11.613   8.763   5.056  0.0748  0.2460 -0.1809
 8177W        W23794  12.774  16.975   1.802  0.0330 -0.0417  0.0579
 8178W        W23795   7.096   3.627   1.288 -0.1838  0.1260  0.1482
 8179W        W23796   4.454   2.251  16.377 -0.1198 -0.3426 -0.0188
 8180W        W23797  12.289   4.545   2.510 -0.5130 -0.0612 -0.0252
 8181W        W23798   8.307  16.475   2.459  0.0883  0.2627 -0.1281
 8182W        W23799   6.758  12.276   2.898  0.0577  0.1908  0.1557
 8183W        W23800   7.353  12.802  15.324 -0.0535 -0.1623  0.2595
 8184W        W23801   1.910  16.199  16.408 -0.1462 -0.2525  0.0308
 8185W        W23802   0.765   0.588   3.685  0.1780  0.0632  0.1598
 8186W        W23803  15.031   5.162   5.618 -0.1002 -0.0760 -0.0085
 8187W        W23804   8.022  10.851   1.759  0.3500 -0.2095  0.2693
 8188W        W23805   0.793   5.627  15.247  0.1707  0.2439 -0.0976
 8189W        W23806   8.136   9.939  12.244  0.0218  0.0930  0.0120
 8190W        W23807   2.334  15.445   0.236 -0.0447  0.1174  0.1746
 8191W        W23808   4.125   1.446   4.020  0.0257  0.2672  0.1313
 8192W        W23809   4.242  16.048  11.333  0.0052  0.1132 -0.1326
 8193W        W23810   2.571  15.272   3.160 -0.1019 -0.1157  0.0533
 8194W        W23811   1.695   7.625  12.979  0.0066 -0.1143 -0.2884
 8195W        W23812   1.480   3.751   5.015 -0.2578 -0.5900 -0.2883
 8196W        W23813   7.809   9.464  11.247 -0.1847  0.1933 -0.0026
 8197W        W23814   7.942   3.310   3.186  0.0783 -0.2334  0.1610
 8198W        W23815   6.134  17.467  11.971  0.0926  0.3097 -0.0238
 8199W        W23816   2.268  17.342  14.463  0.3307 -0.3310 -0.2373
 8200W        W23817  17.754  15.306   3.757 -0.0520 -0.2375  0.0256
 8201W        W23818   4.650  10.089  15.446 -0.0435  0.0324  0.0418
 8202W        W23819  17.314   2.742  13.829 -0.0178 -0.1055  0.0860
 8203W        W23820  16.948   5.791   6.320 -0.1951  0.1201  0.2746
 8204W        W23821  10.091   9.680   0.279  0.1490  0.0245  0.1599
 8205W        W23822  10.088   3.961   0.064  0.0771 -0.3272  0.2199
 8206W        W23823  12.829  12.169  13.805  0.0487 -0.3718  0.1065
 8207W        W23824  16.118  16.435   1.596  0.1256 -0.2277 -0.0904
 8208W        W23825   1.298   9.825   0.475  0.1441  0.3209  0.1155
 8209W        W23826  12.908  17.066  13.718  0.4529 -0.3106  0.0603
 8210W        W23827  14.911   7.251  13.470  0.1683 -0.0927 -0.1305
 8211W        W23828   1.963   9.132   3.237 -0.1205 -0.1584  0.0313
 8212W        W23829  15.972   3.739   5.934  0.0717  0.1798  0.0905
 8213W        W23830  17.724   8.309  15.201  0.0195  0.1884 -0.1277
 8214W        W23831   4.172  13.935   0.097 -0.3039  0.1724  0.0451
 8215W        W23832  10.913   8.034   4.939 -0.1464 -0.0628 -0.0993
 8216W        W23833  10.894   7.300  13.004  0.4490 -0.0074  0.0161
 8217W        W23834   5.204  17.578   4.526 -0.0624 -0.0502  0.1151
 8218W        W23835  10.363  10.925  15.271  0.1446 -0.1125  0.1569
 8219W        W23836   6.841   8.881  11.859  0.1187  0.1558 -0.4077
 8220W        W23837  17.295   2.833  14.750  0.0604 -0.1161  0.0790
 8221W        W23838  10.207   5.604  11.796  0.1207  0.1481 -0.3522
 8222W        W23839  13.605   8.335  15.314  0.1955 -0.1057 -0.2965
 8223W        W23840   0.784  16.195  13.347  0.1358  0.2633  0.0486
 8224W        W23841  17.888  15.980  15.975  0.0530  0.0272  0.1422
 8225W        W23842  12.275   5.732  11.937  0.2353 -0.1541 -0.2985
 8226W        W23843  12.668  17.228  13.206 -0.3326 -0.0499  0.1533
 8227W        W23844   5.259   1.318   1.835  0.3816  0.1821 -0.1903
 8228W        W23845  16.614  16.655  15.215 -0.3251  0.3119  0.3013
 8229W        W23846   2.411  15.983  12.191  0.0689  0.0062 -0.0153
 8230W        W23847   9.526  15.294  12.780  0.1668 -0.2038  0.2730
 8231W        W23848   0.042  17.513  12.609  0.0498 -0.2336  0.0544
 8232W        W23849   2.342  13.517   5.203 -0.2661  0.3059  0.0328
 8233W        W23850  17.137   6.572  15.950 -0.2094 -0.0261 -0.3319
 8234W        W23851  16.661  17.215   1.816 -0.2285 -0.1234  0.0212
 8235W        W23852   7.422   7.996  16.168  0.1527  0.0608  0.0485
 8236W        W23853   8.685   8.086  10.221  0.0465 -0.0708 -0.0106
 8237W        W23854  10.604   3.645  14.632  0.1850  0.3589 -0.1569
 8238W        W23855   6.379   8.353  13.678  0.0418  0.1116  0.0165
 8239W        W23856  15.471   1.494   2.870 -0.1449 -0.0601  0.1001
 8240W        W23857   4.651  13.754  13.277  0.1987 -0.1251  0.0537
 8241W        W23858  11.783   3.434   5.739  0.1540 -0.0969  0.1942
 8242W        W23859  10.382   1.254  14.617 -0.0269  0.0266 -0.0083
 8243W        W23860  17.563  14.496  15.910  0.0534 -0.0585 -0.1369
 8244W        W23861   4.559  12.141   1.684 -0.0931 -0.0558 -0.0600
 8245W        W23862  11.167  13.456  13.275  0.0275 -0.1133 -0.4888
 8246W        W23863   5.265   9.648  13.988  0.2933  0.1415  0.2117
 8247W        W23864   1.018   5.155   0.878  0.1053 -0.1497 -0.2552
 8248W        W23865  17.973  12.586   3.015  0.2900 -0.0816  0.0335
 8249W        W23866  17.034   6.198   0.793 -0.0204 -0.6027 -0.1812
 8250W        W23867  12.068   8.469  11.518  0.4696  0.4313  0.2731
 8251W        W23868  11.835   1.462   3.756  0.2594  0.0760  0.1781
 8252W        W23869  13.196  12.347   1.444  0.1104  0.1503 -0.1210
 8253W        W23870  14.270   5.661  16.409 -0.0791  0.0343 -0.0673
 8254W        W23871   8.867  17.149   6.373 -0.3862 -0.4460  0.3481
 8255W        W23872   1.167   7.720   1.020 -0.0507  0.1209  0.2933
 8256W        W23873   4.935   0.777   1.835  0.3427  0.2169  0.0980
 8257W        W23874   0.107  14.764   0.435 -0.1851 -0.2383 -0.1668
 8258W        W23875  13.120  15.625   0.266  0.1347 -0.2243  0.2236
 8259W        W23876   7.293  13.253  12.489 -0.1134 -0.1694 -0.0762
 8260W        W23877   6.126  15.237  14.944 -0.1588  0.0691  0.0536
 8261W        W23878   3.578  12.800  11.216  0.0849 -0.0646 -0.0874
 8262W        W23879  11.946   4.314  11.974 -0.0395 -0.0567  0.1799
 8263W        W23880  12.984   0.511   5.980  0.1122  0.0859  0.4087
 8264W        W23881   4.020  11.776  13.008 -0.0711  0.2614  0.4447
 8265W        W23882   4.819   9.267  13.927 -0.1206  0.3081 -0.2269
 8266W        W23883   2.587   0.613  13.431 -0.2604  0.1705 -0.2534
 8267W        W23884  15.454  17.943   5.079  0.3343  0.1022 -0.0272
 8268W        W23885   9.963  16.520   2.418  0.1555  0.5043 -0.1087
 8269W        W23886   5.901  12.429   2.372  0.2739  0.4857 -0.2048
 8270W        W23887  14.751   6.926  12.189  0.0138  0.2107 -0.0577
 8271W        W23888  10.166   0.746  12.864  0.0468 -0.1049  0.1247
 8272W        W23889   4.464   4.219   5.160 -0.1039 -0.1774  0.0809
 8273W        W23890  13.996   9.062  12.635 -0.2679  0.0455  0.0579
 8274W        W23891  13.299   6.148   0.874  0.1859 -0.5196  0.2244
 8275W        W23892   1.788   4.674  12.127 -0.0196 -0.0642  0.0494
 8276W        W23893  16.413   5.696   6.436 -0.0529 -0.4590 -0.1793
 8277W        W23894  12.007   9.923  15.799  0.5164 -0.0794  0.0660
 8278W        W23895   9.561  11.343  11.565  0.0684  0.1272  0.0225
 8279W        W23896  11.305  16.877  14.320 -0.0462  0.0540  0.0141
 8280W        W23897   6.079  11.010  11.869 -0.1794  0.2002 -0.1534
 8281W        W23898   0.719  15.212  16.274  0.0396 -0.2669 -0.0083
 8282W        W23899  14.970   9.076   2.906 -0.1589 -0.1334 -0.1938
 8283W        W23900  10.111  13.082  12.728  0.0342  0.0427  0.2542
 8284W        W23901   1.770   2.767   2.155  0.1806 -0.0484 -0.1485
 8285W        W23902   1.422   9.562  16.245 -0.1855  0.0224 -0.1286
 8286W        W23903  17.539  17.547   3.305 -0.0487  0.3235 -0.1805
 8287W        W23904   5.456   4.665   1.065  0.0495 -0.1317  0.1432
 8288W        W23905  15.621  13.092  14.428  0.0049 -0.1029 -0.0016
 8289W        W23906  11.739  12.039  14.578 -0.1145  0.1397  0.1558
 8290W        W23907   9.168  14.955  14.874  0.1994 -0.2062  0.0555
 8291W        W23908  11.028   4.181   5.174 -0.3743 -0.1072 -0.2075
 8292W        W23909   0.978  16.223   1.433 -0.1485  0.1286 -0.1460
 8293W        W23910   1.776   6.932   3.961 -0.1965  0.1252  0.0782
 8294W        W23911   0.989  10.092   0.232 -0.1593 -0.0370 -0.2482
 8295W        W23912   4.719   8.220   1.311 -0.2102 -0.2036 -0.0891
 8296W        W23913  14.169  17.093  16.473 -0.2355 -0.1584  0.0233
 8297W        W23914   5.601   3.214  14.601  0.1695  0.0987  0.1206
 8298W        W23915  11.773   4.832   2.331 -0.1931  0.0842 -0.1698
 8299W        W23916  10.240  15.785  15.477  0.0134 -0.4044 -0.4472
 8300W        W23917  13.557  17.053   5.292 -0.1296  0.1714 -0.0503
 8301W        W23918  13.419  16.361  15.871 -0.2333 -0.1161 -0.2657
 8302W        W23919   0.325  15.502  11.750  0.2345 -0.1317  0.0113
 8303W        W23920   7.828   0.644  15.300  0.0094 -0.2821  0.0784
 8304W        W23921   1.817   3.135  13.079 -0.5602  0.2121 -0.0042
 8305W        W23922   2.558  10.622  15.217  0.3528 -0.1806  0.1497
 8306W        W23923   7.607   9.939  12.558 -0.1026  0.1427 -0.0339
 8307W        W23924  15.134   5.235   1.863 -0.1262  0.1630  0.0903
 8308W        W23925  15.138   5.924  15.219 -0.0813  0.3299 -0.2392
 8309W        W23926  13.738  16.864   2.432  0.2089 -0.1298  0.1320
 8310W        W23927   1.229  10.708  15.186 -0.0484 -0.2111 -0.0629
 8311W        W23928   9.747  17.840  11.999 -0.0188  0.2025 -0.0041
 8312W        W23929  10.658  12.787   0.998 -0.1272 -0.2382  0.0098
 8313W        W23930   3.628  15.478  16.167 -0.4155 -0.0651  0.2274
 8314W        W23931   1.913   7.950   3.803  0.1035 -0.2711  0.1427
 8315W        W23932  10.589   6.542   1.784 -0.0289 -0.0053 -0.0751
 8316W        W23933   8.255  16.929  16.158 -0.1153  0.2900  0.0834
 8317W        W23934  13.589   4.514   6.157  0.0675 -0.1736 -0.1756
 8318W        W23935   2.177   2.970  14.202  0.0070  0.2105  0.5076
 8319W        W23936   3.162  16.207  10.547 -0.2757  0.2276 -0.2247
 8320W        W23937  12.098  15.491  15.683 -0.2951  0.1075 -0.2839
 8321W        W23938   3.641  13.467  10.442  0.0623  0.1034  0.2375
 8322W        W23939   4.791  12.445   2.664 -0.3742  0.0561 -0.0372
 8323W        W23940   6.044  11.278   2.009 -0.0298 -0.0481  0.4588
 8324W        W23941  12.739  16.511   4.565  0.1221 -0.0428  0.0955
 8325W        W23942   7.950  15.402  11.897  0.2161  0.1161 -0.0638
 8326W        W23943  13.705   7.143  11.577  0.0620 -0.2702  0.2322
 8327W        W23944  16.250  16.026  15.894  0.3475  0.1396  0.3047
 8328W        W23945   5.779   8.989   2.197 -0.1029  0.0872 -0.1093
 8329W        W23946   9.069   6.090  12.047  0.0034  0.0703 -0.0135
 8330W        W23947   2.417   9.706   4.860  0.1060  0.2654  0.1340
 8331W        W23948  16.345   8.383   2.220 -0.1307  0.3317  0.1694
 8332W        W23949   5.055   7.594   3.181 -0.0660 -0.0756  0.3904
 8333W        W23950   6.939   2.254  15.436  0.1553 -0.0794  0.1971
 8334W        W23951   9.275   2.141  13.588 -0.2152 -0.0157  0.2238
 8335W        W23952   6.281  15.806   3.510  0.2589 -0.0652  0.0258
 8336W        W23953   6.035   8.781   2.672  0.0156  0.1801  0.0456
 8337W        W23954   2.316  14.162  11.665  0.1063  0.0233 -0.3711
 8338W        W23955  11.926  11.617  12.109 -0.0716 -0.2341  0.2611
 8339W        W23956   6.333   8.340   2.921  0.1472  0.0054 -0.1320
 8340W        W23957   8.993  11.584   0.871 -0.2902 -0.0058  0.2245
 8341W        W23958  11.162   4.903  14.888  0.3088  0.1286 -0.0729
 8342W        W23959   3.363   8.883   3.665 -0.1389  0.3355 -0.5520
 8343W        W23960   8.756  14.487  15.714 -0.3771 -0.2073  0.0938
 8344W        W23961   7.208  16.300   2.496  0.2085  0.1763 -0.3979
 8345W        W23962  15.878  17.115   5.743 -0.5299  0.0113  0.1966
 8346W        W23963  15.947   7.681  13.328 -0.1042 -0.1795  0.1780
 8347W        W23964   6.308   7.126   0.069 -0.0061  0.0209  0.0226
 8348W        W23965  13.227   3.135  15.563 -0.0670  0.3296  0.2246
 8349W        W23966  11.211  16.899  12.977 -0.0560  0.0520  0.1492
 8350W        W23967  11.098   5.940  12.770 -0.0409 -0.1653 -0.0047
 8351W        W23968   8.116  14.465   4.568 -0.0793 -0.1500  0.0596
 8352W        W23969  17.799   4.862  12.187  0.3225  0.0465  0.2633
 8353W        W23970   1.621  17.272  16.489 -0.0369 -0.4520 -0.0944
 8354W        W23971   8.282   7.726   5.046 -0.1761 -0.1866 -0.0678
 8355W        W23972  10.231  14.111   3.075  0.3273 -0.2737  0.1011
 8356W        W23973   3.760   0.338   0.803  0.0142  0.3336 -0.2348
 8357W        W23974  16.322   1.616  12.719 -0.1496  0.2207 -0.1558
 8358W        W23975  13.024  13.993  13.693 -0.2322 -0.2084  0.0675
 8359W        W23976  11.723   1.854   2.109  0.4129 -0.1768 -0.2384
 8360W        W23977  11.173   4.944   1.689  0.2344 -0.0787 -0.0938
 8361W        W23978   7.969   8.576  15.475 -0.0165 -0.1016 -0.0296
 8362W        W23979   4.561   1.257   0.703 -0.2314  0.3093  0.2028
 8363W        W23980  14.878   9.560   5.863 -0.0185 -0.0611  0.0183
 8364W        W23981  11.305   8.910   4.678  0.0530  0.3821  0.0173
 8365W        W23982   0.367  13.161   1.004  0.0909  0.1281 -0.0480
 8366W        W23983   8.431   4.054  12.043 -0.1249  0.2441 -0.0063
 8367W        W23984  10.509  12.445   4.577  0.2802 -0.0131  0.1842
 8368W        W23985  17.641  11.623  16.465  0.2003 -0.0887 -0.1800
 8369W        W23986   4.114   3.125  12.868  0.2581  0.0466 -0.0226
 8370W        W23987   4.003  15.836  12.363 -0.0459 -0.0862  0.4706
 8371W        W23988  15.191  14.521   4.326 -0.0146  0.0037 -0.1510
 8372W        W23989   5.735   3.160  16.010  0.1080 -0.0974 -0.6225
 8373W        W23990   7.077  11.249  11.930  0.0991  0.0458  0.0711
 8374W        W23991  13.932  16.853   3.111 -0.2722  0.3144  0.1089
 8375W        W23992   6.836  13.363   1.025 -0.1715 -0.0386 -0.0536
 8376W        W23993   5.147  14.351  11.136  0.1078  0.0317  0.0245
 8377W        W23994   7.648   0.893  16.528  0.1749 -0.0645 -0.0120
 8378W        W23995   1.345   5.889   5.992 -0.1908 -0.1036 -0.3206
 8379W        W23996   5.691   8.523  13.196 -0.1994  0.1541 -0.2763
 8380W        W23997  11.895   1.498   0.529  0.1213 -0.0768 -0.0233
 8381W        W23998   6.723  16.227  15.347 -0.0242 -0.3860 -0.2252
 8382W        W23999   5.673  11.704   2.015  0.3088 -0.1948 -0.0027
 8383W        W24000   5.986   9.269  13.560 -0.0569  0.0047 -0.0393
 8384W        W24001  17.575   3.888   2.539  0.1934 -0.0679 -0.5114
 8385W        W24002  14.741  13.701   0.558 -0.1213 -0.3996 -0.0132
 8386W        W24003  13.566  17.701   0.139 -0.1823  0.0537  0.3345
 8387W        W24004  13.698   0.667  13.573  0.3259  0.2249  0.0464
 8388W        W24005   0.462  13.652   5.267  0.0470 -0.4567 -0.0134
 8389W        W24006  14.499  11.784   0.715  0.0483  0.0294  0.2252
 8390W        W24007  12.287   8.131  15.253  0.1010  0.1571 -0.0014
 8391W        W24008   6.809   9.424   1.121 -0.2411  0.1105 -0.0575
 8392W        W24009  17.282   8.482   5.132  0.2042  0.0224 -0.0589
 8393W        W24010   6.782   4.726   1.014 -0.2784  0.0275  0.2625
 8394W        W24011   0.866   2.508   3.626  0.1384 -0.1728 -0.3248
 8395W        W24012  17.153   7.252  12.564  0.2280 -0.2375  0.1137
 8396W        W24013   4.189  15.122   5.760 -0.0568  0.2241 -0.1241
 8397W        W24014  11.184   7.794  11.495  0.2005 -0.3762 -0.0415
 8398W        W24015  12.060   6.439   4.143  0.0635  0.2293 -0.1262
 8399W        W24016   9.234   7.113   4.737 -0.0389  0.2256 -0.3872
 8400W        W24017  11.662  16.160  15.117 -0.1271  0.5740  0.1250
 8401W        W24018  15.271  17.878  15.185 -0.0895  0.2221 -0.2219
 8402W        W24019   8.250  15.054  12.310  0.0476  0.0421  0.1847
 8403W        W24020   6.449  14.785  13.966 -0.0316  0.0586  0.0177
 8404W        W24021   5.515   5.983   4.956 -0.1853  0.0169  0.3332
 8405W        W24022  10.811  17.726   5.523  0.1618  0.0654  0.0895
 8406W        W24023   7.848  14.691  13.441  0.0807  0.0393 -0.1054
 8407W        W24024  15.790   1.792  12.771 -0.0647  0.1267 -0.1539
 8408W        W24025  13.279  12.481  13.912 -0.1512 -0.1274  0.0672
 8409W        W24026   6.693  15.153  13.034  0.1910 -0.1616 -0.2198
 8410W        W24027   5.197   6.941   4.845  0.1085 -0.1799 -0.0604
 8411W        W24028  13.511   6.427   6.185 -0.1727 -0.1271  0.2842
 8412W        W24029  12.616  15.771  13.461 -0.0616 -0.0883 -0.3088
 8413W        W24030  13.960   3.276  16.595  0.1214 -0.0440  0.1890
 8414W        W24031   7.030   1.881   4.220  0.0814  0.1086 -0.1629
 8415W        W24032  12.668  17.414   4.791  0.0366  0.1241  0.2143
 8416W        W24033   0.491   9.758  15.837  0.0684  0.0071 -0.0892
 8417W        W24034   7.090   7.838   2.492  0.1300  0.2654  0.0814
 8418W        W24035   8.871   7.487   4.076  0.0538 -0.0640  0.0176
 8419W        W24036   6.862  12.387  16.452 -0.0396  0.0924 -0.0586
 8420W        W24037   9.948   7.553  13.458 -0.1348 -0.1496  0.0355
 8421W        W24038   4.632  15.242  14.617  0.1382 -0.0977 -0.1485
 8422W        W24039   2.836  12.380   1.013 -0.0576 -0.0447 -0.2008
 8423W        W24040  13.964   1.931   2.677  0.0481  0.2869 -0.1534
 8424W        W24041  15.442  11.594  16.646 -0.2334  0.0721 -0.0250
 8425W        W24042  16.812   5.316   4.777  0.0173  0.2442  0.1037
 8426W        W24043  10.572  14.719   5.588  0.1172 -0.1712  0.0863
 8427W        W24044   3.764  16.758  15.337 -0.2171 -0.3011 -0.1569
 8428W        W24045  16.603   4.933   5.684  0.0261  0.0825  0.1948
 8429W        W24046   9.481   3.472   1.959  0.2649 -0.0254  0.0131
 8430W        W24047  11.100  14.281  11.878  0.5122  0.0010  0.1157
 8431W        W24048  12.593  10.834   3.364  0.0449 -0.0520 -0.0546
 8432W        W24049   4.191   2.009   6.328  0.3539 -0.0972 -0.2089
 8433W        W24050   6.372  16.215  15.692  0.0655 -0.0695  0.1577
 8434W        W24051   5.476   5.171  12.470  0.2377  0.0035  0.2551
 8435W        W24052   0.782  15.730   4.271  0.0355 -0.1622  0.2569
 8436W        W24053   5.069   5.882   5.236 -0.0347 -0.0998 -0.1220
 8437W        W24054  12.396   5.056  13.127  0.1866  0.0386 -0.0031
 8438W        W24055   5.548   9.282   4.805  0.1173 -0.1166 -0.2460
 8439W        W24056   3.210   1.919   4.858 -0.3847 -0.0123 -0.1571
 8440W        W24057   8.658   8.609  12.940  0.1309  0.2741 -0.2318
 8441W        W24058   4.901   8.112  13.598 -0.2008 -0.2700  0.0828
 8442W        W24059  13.406   1.054  14.211 -0.1280  0.3615 -0.2853
 8443W        W24060  17.083  15.971  15.663 -0.1488 -0.1331  0.4635
 8444W        W24061   5.278  11.596  13.965  0.0353  0.1071  0.1946
 8445W        W24062   3.640   3.393   2.062  0.0627  0.1969 -0.0911
 8446W        W24063   5.084  16.588   3.905  0.3077  0.0305  0.1066
 8447W        W24064  10.735   6.160   4.411 -0.0832  0.1899  0.2154
 8448W        W24065   6.337   0.949  12.926  0.0222  0.2532 -0.0861
 8449W        W24066  13.760   9.881   1.116 -0.0562 -0.2153 -0.1802
 8450W        W24067   0.403  12.482  13.140  0.1083 -0.2962 -0.2575
 8451W        W24068  12.645   3.617  14.779  0.1103 -0.1823  0.1402
 8452W        W24069   1.303  13.512  14.469 -0.1608 -0.1042 -0.0779
 8453W        W24070   7.583  14.988  11.924 -0.0345 -0.1080  0.1879
 8454W        W24071   1.411   2.639  13.340  0.3532 -0.1555 -0.1799
 8455W        W24072   8.841  12.276  10.972  0.0334 -0.2718  0.1661
 8456W        W24073   6.528  17.889   5.713  0.1249  0.0794 -0.1309
 8457W        W24074  15.816  14.820   5.534  0.0202 -0.0405  0.0332
 8458W        W24075  15.315  12.783   2.112 -0.2122  0.2955 -0.1075
 8459W        W24076  13.785   3.268  12.126 -0.1136 -0.2831 -0.0068
 8460W        W24077   5.055  10.831   4.324  0.1179 -0.0853 -0.0107
 8461W        W24078   9.727  13.405  11.263 -0.0822 -0.0860 -0.0304
 8462W        W24079   5.901   4.706   4.565  0.0044  0.3302  0.2356
 8463W        W24080   3.267  13.411   2.527 -0.2849  0.1168  0.0315
 8464W        W24081   4.495   4.729   4.046  0.2469  0.0092  0.0796
 8465W        W24082  13.696  17.445   4.960 -0.4879  0.1288 -0.1510
 8466W        W24083   8.232  16.133  13.653 -0.0597  0.2246  0.0389
 8467W        W24084   7.767   4.234  16.568 -0.2505 -0.2245 -0.0940
 8468W        W24085   9.647  16.196   0.085 -0.2525  0.1323  0.3033
 8469W        W24086   4.207  10.555   5.434 -0.0891 -0.2536 -0.0442
 8470W        W24087   4.086   1.220  12.996  0.0211  0.2375  0.0436
 8471W        W24088   9.175   7.409   3.156  0.1095 -0.2265  0.0028
 8472W        W24089   1.822  17.963   4.244  0.4050  0.1523 -0.1423
 8473W        W24090  16.395  15.539   2.709 -0.2763 -0.1764 -0.0235
 8474W        W24091   4.551  17.374  12.885  0.2186  0.1575  0.0933
 8475W        W24092  12.049   4.742  14.939  0.4359 -0.1250 -0.0417
 8476W        W24093  10.879  14.299   5.692  0.0146 -0.0766 -0.2368
 8477W        W24094  16.242  15.259   2.224 -0.2266 -0.2043 -0.1194
 8478W        W24095  10.953   9.889   0.046 -0.1413 -0.3188 -0.0071
 8479W        W24096   2.880   9.360  16.273 -0.1294  0.4227 -0.1315
 8480W        W24097  12.804   4.648  16.160 -0.2526  0.0181 -0.0421
 8481W        W24098   4.627   6.525   0.376  0.1607 -0.0433  0.1935
 8482W        W24099   1.537  11.646  15.752 -0.5420  0.1905 -0.2282
 8483W        W24100  15.022  17.976   1.453  0.2359 -0.4440 -0.0969
 8484W        W24101   0.797   4.256  13.834 -0.0499  0.1797  0.2340
 8485W        W24102   8.004  14.000  14.092  0.2032 -0.2626  0.2524
 8486W        W24103  11.074  16.152   3.981  0.2568 -0.0640  0.2493
 8487W        W24104   8.900   5.713   5.273  0.3828 -0.1729 -0.0123
 8488W        W24105   0.128   7.934   2.438 -0.0103 -0.0382 -0.1073
 8489W        W24106  16.837   8.483  12.175  0.0550 -0.0453 -0.1531
 8490W        W24107  14.785   6.096  11.608  0.3648  0.0206 -0.0317
 8491W        W24108   3.276   1.211  14.876  0.1968 -0.2203  0.1862
 8492W        W24109  10.803  15.970   2.132  0.0416 -0.0602  0.0319
 8493W        W24110  12.188  16.376  15.369  0.2004 -0.1988 -0.3859
 8494W        W24111  14.965   0.904   4.399  0.1462 -0.0304  0.1319
 8495W        W24112   1.961  12.950  13.560  0.2826 -0.2272 -0.0815
 8496W        W24113  10.981   5.831   2.959  0.2161  0.1254 -0.3214
 8497W        W24114   8.810   8.290  13.805 -0.2664 -0.1332 -0.0059
 8498W        W24115  16.233   0.874  15.416  0.4729 -0.0174  0.1001
 8499W        W24116   5.354   4.744   2.211  0.1255  0.0619  0.3594
 8500W        W24117  17.154   8.713   2.061  0.0624  0.0891 -0.0959
 8501W        W24118  12.415  11.591   3.056  0.1115 -0.0113 -0.3257
 8502W        W24119   3.781  14.065  12.782 -0.3235 -0.1609 -0.1401
 8503W        W24120   5.402   4.307   4.369 -0.0808 -0.4709  0.0684
 8504W        W24121  11.148  13.324   0.676 -0.4266 -0.2302  0.1273
 8505W        W24122   2.897  10.182   3.919  0.1075 -0.2425  0.0851
 8506W        W24123  17.970  17.754   0.358 -0.0271  0.1715 -0.1553
 8507W        W24124  14.732  11.195   6.293  0.0883  0.0442  0.0757
 8508W        W24125  16.001  12.941   1.120  0.2747 -0.0701 -0.3347
 8509W        W24126   4.714  12.058  12.301 -0.0192 -0.1666  0.1490
 8510W        W24127  10.419   4.147  15.724 -0.1201 -0.2277 -0.0268
 8511W        W24128  14.426  13.757  12.757  0.2019 -0.0119 -0.2787
 8512W        W24129  15.885  18.026   4.889  0.1626 -0.0151  0.1284
 8513W        W24130   0.062  10.544  15.538 -0.0394 -0.1746  0.2708
 8514W        W24131  13.551   1.891  16.130 -0.5084  0.0441  0.1290
 8515W        W24132   8.648  14.697  13.041 -0.0934  0.1800  0.0768
 8516W        W24133   3.220  16.649   4.983 -0.2894  0.0669 -0.3234
 8517W        W24134  12.467  12.585  13.230  0.0065 -0.0309 -0.0864
 8518W        W24135  10.529  12.032  13.710  0.1958 -0.1043  0.0274
 8519W        W24136  11.274   7.322  13.568 -0.1243 -0.2042  0.3163
 8520W        W24137   9.024   7.159   2.356 -0.2136  0.5382 -0.0970
 8521W        W24138   7.871  16.145  15.674 -0.1959 -0.0242  0.1185
 8522W        W24139   5.812  16.851   4.479 -0.1064  0.0869 -0.1589
 8523W        W24140  14.313   5.307   5.683  0.0524  0.0198  0.0534
 8524W        W24141  11.342   7.531  16.176  0.1704  0.1985  0.1241
 8525W        W24142   6.205   5.889  15.744 -0.4693 -0.1613  0.2121
 8526W        W24143   4.514   1.222  15.042 -0.0511 -0.1067 -0.2431
 8527W        W24144   7.621   2.005  11.443 -0.0866  0.1693 -0.1252
 8528W        W24145   4.917  17.824   4.882 -0.1392  0.3449  0.1437
 8529W        W24146  11.737  16.634  12.638  0.1554  0.1749 -0.0623
 8530W        W24147  15.824   0.951  13.337 -0.2676 -0.0084 -0.0071
 8531W        W24148  12.781   0.018   3.393  0.0911 -0.2144  0.1300
 8532W        W24149   2.173  15.703   4.932  0.3656  0.0682 -0.2991
 8533W        W24150   2.506   8.188   0.935 -0.0039 -0.1695  0.4370
 8534W        W24151  14.950   1.562   0.382 -0.0715  0.0578 -0.1613
 8535W        W24152  12.811   0.469   4.424  0.1695  0.1988 -0.4220
 8536W        W24153   1.150  10.009   6.194 -0.1530  0.0834  0.0902
 8537W        W24154   5.432   3.054   1.944  0.0442  0.1540 -0.2251
 8538W        W24155   6.913   3.721  16.351 -0.1608  0.1544 -0.2616
 8539W        W24156   4.466   0.098   3.972  0.4065 -0.2644  0.0189
 8540W        W24157  17.527  10.381   4.608  0.0114  0.1977  0.3115
 8541W        W24158   3.925   1.135  15.672 -0.3310 -0.0035 -0.0478
 8542W        W24159  12.246   9.762   2.400  0.2291  0.2714 -0.1960
 8543W        W24160  16.162   0.539   3.465 -0.1046 -0.0035  0.0111
 8544W        W24161   4.208  18.034   3.381  0.1840  0.0167  0.1090
 8545W        W24162   4.175   9.019   1.000 -0.0033 -0.0361 -0.1491
 8546W        W24163   1.182   5.719  14.929 -0.1189 -0.0289  0.0981
 8547W        W24164  12.949   2.566  13.038 -0.0707  0.2618  0.0472
 8548W        W24165   2.393   0.356  16.131  0.0332  0.0588 -0.0228
 8549W        W24166  11.251   7.336   0.773  0.3475 -0.0691 -0.0343
 8550W        W24167  17.988   2.171   3.534  0.0622  0.0962 -0.0451
 8551W        W24168   5.640  12.811  16.380 -0.0282  0.0160 -0.1938
 8552W        W24169   8.590  10.922  15.262 -0.0512 -0.3578 -0.1088
 8553W        W24170   3.716   3.010   5.650  0.1163  0.1695  0.2211
 8554W        W24171  10.687   5.902  13.657 -0.2348 -0.3330 -0.3589
 8555W        W24172   6.904  15.623   2.111  0.0561 -0.1656 -0.1141
 8556W        W24173   0.302  15.118  14.492  0.3815  0.0148 -0.0475
 8557W        W24174  16.700  14.478   4.290  0.3297 -0.1139 -0.0445
 8558W        W24175  15.727   6.172   1.809  0.2330 -0.1120  0.0273
 8559W        W24176   0.276  17.491   4.406 -0.0231 -0.0132  0.3170
 8560W        W24177  18.036   0.097   6.000 -0.3404  0.1144  0.2340
 8561W        W24178   1.788   8.306   2.591  0.2161  0.2665  0.0780
 8562W        W24179   8.178  12.051  14.094  0.3008  0.0668  0.0236
 8563W        W24180  17.442   9.891   1.357 -0.1270 -0.2233  0.1336
 8564W        W24181  15.435  12.914   2.970  0.0391 -0.0202 -0.0511
 8565W        W24182   0.612  10.465   3.682 -0.0334 -0.0488  0.0061
 8566W        W24183   4.895  10.848   1.407  0.0390 -0.1344 -0.2726
 8567W        W24184   4.283   1.695   2.190 -0.2208 -0.0961 -0.0231
 8568W        W24185  14.475   2.637  15.032  0.1283  0.0461 -0.1009
 8569W        W24186   0.487  10.712   5.945  0.0266  0.0405  0.1117
 8570W        W24187  15.167  10.701   1.966  0.1700 -0.0975 -0.1208
 8571W        W24188   7.421  16.792  13.450  0.0723 -0.0239 -0.0085
 8572W        W24189  17.766   7.004  14.438 -0.2061 -0.4118 -0.1740
 8573W        W24190   4.298  15.065   1.606 -0.0429 -0.2413 -0.1121
 8574W        W24191   6.822  16.654   6.634  0.1076 -0.1085  0.3340
 8575W        W24192   5.208   7.481   0.819 -0.0258 -0.1178 -0.0731
 8576W        W24193  13.626  12.902  14.030  0.0133  0.3149 -0.1210
 8577W        W24194  17.803  12.154   2.624  0.1336 -0.1638 -0.1011
 8578W        W24195   3.643   3.117  16.363 -0.1105 -0.0229 -0.2479
 8579W        W24196   9.870  16.782   0.944  0.3122  0.1792  0.1673
 8580W        W24197   6.979  16.987  14.335  0.1699  0.1731 -0.0453
 8581W        W24198  15.745  16.292   3.945  0.0907  0.2763  0.1724
 8582W        W24199   6.569  14.538   3.605 -0.0685  0.0360  0.3964
 8583W        W24200  15.895  13.336   1.533  0.0147  0.3080 -0.0427
 8584W        W24201   8.572   4.782   3.182  0.2040  0.2533  0.0269
 8585W        W24202   6.503   3.478  16.405  0.2013  0.2460  0.1180
 8586W        W24203   0.634  13.685  14.518 -0.0010  0.0116 -0.2444
 8587W        W24204  12.655   0.068   2.165 -0.1790 -0.2523  0.0124
 8588W        W24205   5.705  15.754  15.539  0.0410 -0.1855  0.0029
 8589W        W24206  13.210   5.431  14.154  0.2681  0.0422 -0.0247
 8590W        W24207   3.488   1.483   2.355 -0.0669  0.1028 -0.1252
 8591W        W24208   9.619   5.142  10.744 -0.1171  0.0855 -0.1749
 8592W        W24209  16.258  10.430   4.985 -0.0854  0.1277  0.1630
 8593W        W24210   1.999   1.502  11.977 -0.1540  0.2267  0.0810
 8594W        W24211   9.024  18.001  16.020  0.2698  0.2189 -0.4655
 8595W        W24212   4.495   0.511  15.914 -0.0876  0.0054 -0.2961
 8596W        W24213  15.090   6.404  15.071  0.0348 -0.0311 -0.1415
 8597W        W24214  15.061  16.465  14.756 -0.1288 -0.0115  0.4241
 8598W        W24215  11.548   1.377   5.843  0.1617  0.3887 -0.0291
 8599W        W24216  14.912   4.717   1.977 -0.0640 -0.5008 -0.1655
 8600W        W24217  13.355  14.301  13.494  0.1497  0.3648  0.1930
 8601W        W24218   6.526  14.220  14.120  0.4330 -0.0359  0.0468
 8602W        W24219   3.395   8.502   2.969 -0.2466 -0.0823  0.0506
 8603W        W24220  12.067   6.953  12.417 -0.0317  0.2124  0.3379
 8604W        W24221  15.783  11.767   4.467  0.3682 -0.3236 -0.1307
 8605W        W24222   4.303  17.318   5.428  0.0881  0.1607 -0.0353
 8606W        W24223   2.132  10.984   3.486 -0.0680  0.0464  0.1388
 8607W        W24224   9.129   8.111  15.241  0.0110  0.1284 -0.3483
 8608W        W24225  12.842   0.915  16.744 -0.0581  0.0001  0.1097
 8609W        W24226  12.301  17.035  15.761 -0.1304  0.1244 -0.0294
 8610W        W24227   5.603  15.110   3.952 -0.0706 -0.2251 -0.1372
 8611W        W24228   9.562   2.052   4.492 -0.1320 -0.0678 -0.1437
 8612W        W24229  10.896  11.893  16.368  0.0822 -0.1372  0.1972
 8613W        W24230  17.826   3.967   2.097 -0.1896  0.1914  0.2099
 8614W        W24231  18.009  12.833   1.200 -0.0604  0.1119  0.0131
 8615W        W24232   0.037   5.980  14.100  0.1660  0.1137 -0.0695
 8616W        W24233   0.574   3.757   3.189  0.0359 -0.1489 -0.2124
 8617W        W24234  17.933   2.306  14.641 -0.1600 -0.1566 -0.0806
 8618W        W24235   1.479  17.926   5.349  0.1744 -0.2791 -0.0973
 8619W        W24236   6.961   8.702   0.296 -0.0117 -0.1840 -0.3118
 8620W        W24237  15.044   6.694  15.465 -0.0729  0.1121  0.0307
 8621W        W24238  17.536   7.295  11.283  0.0965 -0.0901 -0.3064
 8622W        W24239   0.412   0.899  12.648 -0.0563  0.0367  0.1129
 8623W        W24240  11.359   6.566   1.460 -0.0592  0.1466 -0.2524
 8624W        W24241   2.442   9.304   2.393 -0.1849  0.1960 -0.4243
 8625W        W24242  14.190   5.043   2.434  0.2553 -0.1752  0.2032
 8626W        W24243  10.834   2.038   4.058 -0.0144  0.0303 -0.0707
 8627W        W24244   1.529   2.290  12.123  0.3499 -0.0137 -0.0467
 8628W        W24245   1.747   6.927  15.415 -0.1521 -0.0742 -0.2897
 8629W        W24246   9.190  11.817  11.915  0.0969 -0.2892 -0.0881
 8630W        W24247   7.514   4.377  12.384 -0.0821  0.2372  0.3188
 8631W        W24248   5.146  10.168  15.985 -0.2199 -0.0468  0.0395
 8632W        W24249   7.773   4.773   3.105  0.0536 -0.3505 -0.0688
 8633W        W24250  10.483  16.607   5.288 -0.0524  0.0053  0.0277
 8634W        W24251   3.212   0.393   4.388 -0.2411 -0.1148 -0.0686
 8635W        W24252   3.548   5.402   3.942 -0.0104 -0.1190 -0.0757
 8636W        W24253  11.257  15.324   6.258  0.0150  0.3094  0.0732
 8637W        W24254   5.946   3.744   6.381 -0.0485  0.0927 -0.1507
 8638W        W24255   6.822   2.608  13.797 -0.5720 -0.0845  0.2767
 8639W        W24256   1.710   0.442  16.798 -0.0769  0.0254  0.2213
 8640W        W24257  14.318  15.851   5.318  0.0734 -0.1613 -0.0576
 8641W        W24258   6.295  11.035  13.657 -0.0503 -0.0262  0.1569
 8642W        W24259   2.350   9.561   0.921 -0.0014  0.3097  0.4301
 8643W        W24260  16.618  15.855   3.704 -0.3404 -0.1221 -0.0755
 8644W        W24261   9.767   3.571  11.615 -0.1948 -0.0083 -0.0875
 8645W        W24262  17.061   3.022   2.030 -0.2793 -0.0406  0.2426
 8646W        W24263   0.887   6.160   4.053 -0.0567  0.0176  0.3223
 8647W        W24264   4.544   2.614  13.883 -0.0162 -0.1645  0.1606
 8648W        W24265   3.260   4.696   3.487  0.1239 -0.1669  0.0471
 8649W        W24266   3.133   7.412   0.861 -0.0182 -0.4009  0.2332
 8650W        W24267   1.693  15.815  15.985 -0.3780  0.0445 -0.0409
 8651W        W24268   6.778  13.399  14.870  0.2846  0.0182 -0.0121
 8652W        W24269  16.030  10.731  12.203 -0.0488  0.2710  0.1763
 8653W        W24270   0.917  13.458   5.787  0.0209 -0.1952  0.2160
 8654W        W24271  11.376  13.262   3.681  0.2461  0.3034 -0.3376
 8655W        W24272   4.034   3.357  11.798 -0.1961  0.1864  0.2788
 8656W        W24273   5.981  14.612  12.538 -0.0126 -0.1761 -0.0190
 8657W        W24274  17.204   0.262   2.198 -0.0768  0.0045  0.1328
 8658W        W24275   4.581  16.743  14.779  0.1501 -0.5106  0.0598
 8659W        W24276  11.350  16.064   2.029 -0.2398  0.0266  0.2150
 8660W        W24277  13.143   1.708   0.214 -0.0828  0.0656  0.1787
 8661W        W24278  10.353   3.539  13.237 -0.0366 -0.1458  0.0762
 8662W        W24279   2.332   4.964  12.216 -0.0383 -0.1122 -0.0894
 8663W        W24280   3.885   7.985   6.293 -0.1780  0.0748 -0.0667
 8664W        W24281  12.245   0.142   2.563 -0.0453 -0.0229  0.2935
 8665W        W24282   1.043   9.971   2.699  0.0388  0.0533  0.1746
 8666W        W24283  16.466  14.058  12.004  0.2935 -0.0992 -0.0003
 8667W        W24284  12.834  12.976   4.255  0.1168 -0.2169  0.0787
 8668W        W24285  15.492   8.728   1.047  0.1906 -0.1253  0.2206
 8669W        W24286   2.236   2.392   2.951 -0.3171  0.0682 -0.3294
 8670W        W24287   6.651   3.077   3.757 -0.1581  0.2200 -0.4697
 8671W        W24288   9.704  12.118   5.064 -0.2474  0.4862  0.0544
 8672W        W24289   5.536  16.633  16.593  0.2518 -0.3183 -0.0050
 8673W        W24290  11.560   9.349   1.190 -0.4352  0.0509 -0.2870
 8674W        W24291  13.983   3.282   2.412  0.0774  0.0210  0.2209
 8675W        W24292  12.512   0.937   6.124 -0.0755 -0.0041 -0.0383
 8676W        W24293  15.196   0.986   0.464  0.0304 -0.0200  0.3711
 8677W        W24294  15.844  16.804   1.334 -0.0288  0.2288 -0.0195
 8678W        W24295   2.517   5.904  16.311  0.0416  0.1047 -0.0405
 8679W        W24296   4.709   5.586   0.382 -0.1827  0.1840 -0.1114
 8680W        W24297  17.031  16.965  13.868 -0.0495  0.0047  0.2585
 8681W        W24298   9.542   0.700  15.128  0.2690  0.0267  0.1814
 8682W        W24299   6.540  14.136   5.460 -0.1568  0.1391 -0.1220
 8683W        W24300   8.569  17.542   5.716 -0.1946 -0.0603  0.0470
 8684W        W24301   5.793  17.304  13.656 -0.1475 -0.0567 -0.0846
 8685W        W24302   7.974   5.346  16.662 -0.0126  0.0486  0.1681
 8686W        W24303  10.626   0.289  16.128  0.0137  0.1436 -0.3574
 8687W        W24304  15.869  15.584   2.672 -0.3948 -0.2949  0.0191
 8688W        W24305  17.649   8.927   2.273  0.0342  0.1857  0.0075
 8689W        W24306   7.934   6.860   3.611  0.2059 -0.1713  0.0248
 8690W        W24307   7.215  15.580   3.573 -0.0281  0.2972  0.3013
 8691W        W24308  17.813   3.416   3.677 -0.0222 -0.4295  0.2043
 8692W        W24309  11.810  11.982   2.157 -0.2520 -0.1545  0.1637
 8693W        W24310  10.332  15.152   2.254 -0.2390 -0.0971 -0.1655
 8694W        W24311   3.709  11.511  11.590 -0.0204 -0.1824  0.3842
 8695W        W24312   7.559   2.145  16.192 -0.2425  0.1596  0.2288
 8696W        W24313   8.425   5.390   0.263  0.2047 -0.0429 -0.0238
 8697W        W24314  15.184   0.416   3.300 -0.1723  0.1967  0.1064
 8698W        W24315  10.230  13.626   4.946 -0.0292 -0.2069 -0.1519
 8699W        W24316   3.257  13.453  16.728 -0.0301 -0.0780 -0.1490
 8700W        W24317   7.688   6.519   0.437  0.0245  0.4787  0.0658
 8701W        W24318   0.624   4.309  10.853  0.0923 -0.0670 -0.3830
 8702W        W24319   9.666   2.682   1.709  0.1641  0.1272 -0.2534
 8703W        W24320   5.025  16.637  16.805  0.0606 -0.1848 -0.4705
 8704W        W24321   8.846   3.823   4.715  0.0181 -0.4248 -0.1222
 8705W        W24322  15.925   9.846  16.388 -0.0604 -0.1876  0.1239
 8706W        W24323  12.437   5.708   5.169 -0.1427  0.1530 -0.3878
 8707W        W24324  13.599   4.169  13.715  0.1690  0.0624 -0.0260
 8708W        W24325  11.927   1.972   4.372 -0.0989  0.0982  0.2724
 8709W        W24326  17.095  15.134   2.217  0.1759 -0.0617 -0.3770
 8710W        W24327  14.277  11.635  16.086 -0.2785 -0.3987 -0.0917
 8711W        W24328  10.646   9.277   5.152  0.2253 -0.1355  0.1344
 8712W        W24329  13.718   9.162  15.393  0.0401  0.0175 -0.1641
 8713W        W24330   8.466  16.767   1.481  0.0711 -0.0287  0.0314
 8714W        W24331  16.181   7.821   5.295  0.1133  0.0240 -0.0150
 8715W        W24332  14.424   4.554   3.809  0.2891  0.3349 -0.0466
 8716W        W24333  15.535   5.725  15.403  0.1674  0.2971 -0.1961
 8717W        W24334  13.046  17.549  15.494 -0.0782  0.3132  0.0164
 8718W        W24335  17.020   6.610   3.758  0.0400 -0.1991 -0.0130
 8719W        W24336  13.453  10.408   4.073 -0.3663 -0.3293 -0.0816
 8720W        W24337   4.693  15.647   2.945 -0.2246 -0.2835 -0.0499
 8721W        W24338   5.397  10.485  11.523  0.1337  0.0481  0.5004
 8722W        W24339   5.799   9.266   1.381 -0.2213 -0.1430 -0.2371
 8723W        W24340  13.110   4.907   5.698 -0.1004 -0.0671 -0.1401
 8724W        W24341   3.035   4.690   0.318 -0.0527  0.0495 -0.3682
 8725W        W24342   6.693   8.328  15.149  0.2231 -0.1572  0.0876
 8726W        W24343   4.829  13.063  14.091  0.1949 -0.0029  0.0169
 8727W        W24344   3.736   5.202  16.234  0.0816 -0.1102  0.0285
 8728W        W24345  12.220  17.691   0.713 -0.1843 -0.1138 -0.0509
 8729W        W24346   3.149  15.855   0.243 -0.0896 -0.0757 -0.3726
 8730W        W24347   5.643  12.206  14.988 -0.0785  0.0066 -0.4033
 8731W        W24348   5.752   5.287  11.028 -0.0905  0.1210  0.3859
 8732W        W24349  10.137  16.256  15.577  0.1585 -0.1841 -0.2357
 8733W        W24350  10.059  10.706  14.731  0.2611 -0.1375 -0.0605
 8734W        W24351   6.542   5.232   3.862  0.1236  0.0242 -0.0197
 8735W        W24352   9.154  17.845  15.373  0.0242 -0.0209 -0.1154
 8736W        W24353   3.162   4.143  16.220  0.1958 -0.1447  0.0977
 8737W        W24354   6.601   0.644  13.269 -0.4072 -0.1603 -0.2578
 8738W        W24355   7.982  11.161   0.177  0.1038  0.2703 -0.0911
 8739W        W24356  11.557   7.464   4.455 -0.3299 -0.3965  0.0558
 8740W        W24357   8.535   5.193  16.527  0.1346  0.2222  0.0752
 8741W        W24358   5.213   2.722   2.364 -0.3430 -0.3033 -0.0614
 8742W        W24359   1.724   9.353   4.022  0.2369  0.1788 -0.3200
 8743W        W24360   9.578   2.062  16.659  0.1782  0.2194  0.0692
 8744W        W24361  12.405   3.220  12.746  0.5102  0.1873 -0.1765
 8745W        W24362  15.215   0.570  13.959  0.0549 -0.3934 -0.4698
 8746W        W24363   4.429   5.615   2.133  0.0896 -0.0930 -0.2669
 8747W        W24364   8.082   9.563  15.126 -0.0641 -0.0884 -0.1393
 8748W        W24365  12.124  14.204   0.905 -0.0167  0.4544  0.1589
 8749W        W24366   3.660  13.761  14.647 -0.1325 -0.0213 -0.2666
 8750W        W24367   3.238  12.371  16.022 -0.0810  0.0157 -0.2930
 8751W        W24368   5.235   9.466   1.468 -0.1408 -0.0439 -0.1401
 8752W        W24369   9.569   2.683   3.069  0.0788 -0.1482  0.2326
 8753W        W24370   8.009  10.339  16.712  0.1850  0.0736  0.0432
 8754W        W24371   7.163  12.544   2.393  0.0212  0.1578 -0.0592
 8755W        W24372   6.527  12.138   2.452 -0.0334  0.2836 -0.2419
 8756W        W24373   2.510   3.922   5.247 -0.4233  0.3252  0.2302
 8757W        W24374  10.874   0.805  14.497  0.1877  0.1573  0.1975
 8758W        W24375  11.456   0.522  12.897  0.0560  0.0362 -0.0155
 8759W        W24376  10.800   6.367   5.840 -0.3320  0.0424  0.4996
 8760W        W24377  16.023   6.673   4.435 -0.3283 -0.0113 -0.0434
 8761W        W24378  17.462   6.102   3.562 -0.2776  0.1075  0.0257
 8762W        W24379   0.207  13.509  13.352 -0.3641 -0.1307 -0.1768
 8763W        W24380   6.071  10.246   1.053  0.1200  0.4952 -0.0217
 8764W        W24381  13.604   5.932  14.803  0.2265 -0.0182  0.1247
 8765W        W24382   9.087  14.134  14.878 -0.0199  0.0915  0.1453
 8766W        W24383   7.308   2.585  15.560  0.2813 -0.3041 -0.0418
 8767W        W24384   0.655  14.454   1.189  0.0281  0.2507  0.0580
 8768W        W24385   0.522  17.799   1.957  0.2652  0.0068 -0.0579
 8769W        W24386  14.033   0.469  15.412 -0.0318  0.0727  0.2262
 8770W        W24387   1.496   2.872  13.741 -0.0888 -0.0537 -0.0306
 8771W        W24388  16.040  10.621   0.738 -0.0756  0.3661 -0.1786
 8772W        W24389  16.021   5.817  16.740  0.0708 -0.0771  0.4423
 8773W        W24390   3.693  13.230  13.781 -0.1919  0.3691  0.1083
 8774W        W24391   8.807  12.190   0.555 -0.0737  0.0146  0.2205
 8775W        W24392   9.633   3.366   4.264 -0.1319 -0.0962 -0.0048
 8776W        W24393  12.145  10.397   4.510 -0.2576  0.0940  0.0550
 8777W        W24394  11.113  11.325  15.030  0.0420  0.0118 -0.1673
 8778W        W24395  13.847   5.071   3.628  0.0551 -0.3005 -0.0351
 8779W        W24396  11.767  11.450   1.208 -0.0029 -0.3226 -0.0332
 8780W        W24397   5.666  15.912  15.046  0.3416  0.1660 -0.1630
 8781W        W24398  16.499  11.700  12.358  0.2696 -0.0463  0.0458
 8782W        W24399   9.607   0.592   5.834 -0.2338  0.0104 -0.1415
 8783W        W24400   1.064  13.830  14.130  0.0674 -0.1514 -0.1509
 8784W        W24401   1.079  13.252   1.110  0.0407  0.1440  0.2616
 8785W        W24402   5.938  12.580   5.242 -0.1711  0.2067  0.3113
 8786W        W24403  16.186   5.840   2.974 -0.0618 -0.0837 -0.3629
 8787W        W24404   7.242   9.130  11.766  0.1676 -0.0065 -0.0501
 8788W        W24405   1.080   4.395   5.404  0.0618  0.0324 -0.3256
 8789W        W24406  16.068   2.158   1.190 -0.0411 -0.0279  0.2578
 8790W        W24407   6.576   0.676   4.628  0.0428 -0.3751  0.0300
 8791W        W24408   4.856   4.728   2.060  0.1374  0.1359 -0.2121
 8792W        W24409   9.901  11.873   2.962 -0.1281  0.0136  0.1113
 8793W        W24410   2.010   7.449   4.814 -0.0768 -0.0171  0.1385
 8794W        W24411   8.717   2.322   2.904  0.0381 -0.1675 -0.0837
 8795W        W24412  15.111  17.498   1.689 -0.0094 -0.0441  0.2623
 8796W        W24413   9.299   6.548  12.879 -0.2929 -0.1860 -0.4208
 8797W        W24414   4.732   5.717   1.271  0.0091  0.3231  0.1284
 8798W        W24415   2.607  17.405  11.616 -0.0771  0.2069 -0.0194
 8799W        W24416   2.855   5.024  13.174  0.1698  0.0746  0.0519
 8800W        W24417   1.143   4.467  14.173 -0.2548 -0.1556  0.2410
 8801W        W24418  17.526  13.970   1.407 -0.2037  0.1282 -0.0183
 8802W        W24419  15.086   6.803   3.255 -0.0986 -0.0706 -0.0464
 8803W        W24420  17.082   9.663   4.308  0.0974 -0.2979  0.0322
 8804W        W24421   5.090  14.842  14.002 -0.3089  0.2991  0.0418
 8805W        W24422   6.099  17.796   0.977  0.0850  0.2413  0.1523
 8806W        W24423   7.329   4.073  14.771 -0.4881  0.2494 -0.2393
 8807W        W24424  11.767   7.512   0.054  0.3640  0.0719 -0.1255
 8808W        W24425   7.951  14.061  15.387 -0.5446  0.1587 -0.1303
 8809W        W24426   1.746   1.642  14.262  0.3163 -0.2698 -0.2005
 8810W        W24427  10.717   6.824   1.311  0.2380  0.0571  0.0602
 8811W        W24428  15.757  15.919  13.726 -0.2248  0.2561 -0.2215
 8812W        W24429   1.512   6.763  13.207 -0.0621 -0.3676 -0.1002
 8813W        W24430   7.611   0.288   0.509 -0.1422 -0.1628  0.1082
 8814W        W24431   5.334   8.796   3.761  0.0691  0.1924 -0.0393
 8815W        W24432   3.364   5.380  12.973  0.1290  0.2996  0.3958
 8816W        W24433   0.821   9.011   5.174 -0.1958  0.1172  0.0669
 8817W        W24434  16.084   8.609  16.725  0.3051 -0.0517  0.0262
 8818W        W24435   4.985  10.885  13.339  0.0863  0.3178 -0.0984
 8819W        W24436   9.075   1.153  11.978  0.0455 -0.1212  0.2429
 8820W        W24437   0.382   3.140  15.906 -0.0538  0.1534  0.0782
 8821W        W24438  12.780   4.767   4.289  0.2234  0.1610  0.0751
 8822W        W24439  13.308  11.077   5.350  0.0197 -0.1191 -0.3248
 8823W        W24440   6.143   1.184   1.485 -0.3007 -0.1779  0.2099
 8824W        W24441   7.061  12.953  14.818 -0.2957 -0.2080 -0.0483
 8825W        W24442   9.099  13.551   1.040  0.0187  0.1256 -0.1263
 8826W        W24443  13.750   5.252  12.976 -0.0634 -0.2750 -0.0419
 8827W        W24444  17.169  12.058   1.280  0.1647 -0.1653 -0.4844
 8828W        W24445   9.518  13.040   4.586 -0.0380  0.0292  0.0588
 8829W        W24446  14.364   8.611   4.001 -0.0874  0.2772 -0.0468
 8830W        W24447  13.700  17.341   1.106  0.0690  0.0725  0.3925
 8831W        W24448  14.281  16.399  14.944 -0.0175  0.1242  0.0286
 8832W        W24449   1.545  10.264   5.048 -0.0652 -0.0053  0.0359
 8833W        W24450   2.097  13.905   2.901  0.4590  0.2149 -0.0148
 8834W        W24451  15.824  13.083   2.018  0.0712  0.0050  0.1290
 8835W        W24452  14.137   9.423  15.571 -0.5523 -0.1436  0.1969
 8836W        W24453   8.661  17.452   0.309 -0.1608  0.0148 -0.2453
 8837W        W24454  17.782  15.645  16.354 -0.1360  0.0758  0.3381
 8838W        W24455  12.872   9.023   5.655  0.2232 -0.3164 -0.0415
 8839W        W24456   9.169   9.302  14.721  0.0891  0.3794  0.0283
 8840W        W24457  17.808  14.642  12.115 -0.0115  0.0277 -0.2728
 8841W        W24458  17.271   4.130   0.328  0.1922  0.0370  0.0963
 8842W        W24459  14.726  12.350  16.397 -0.2111  0.1523  0.3355
 8843W        W24460   0.413   4.512   2.482 -0.2689 -0.3226  0.2003
 8844W        W24461   5.366   6.094  12.517  0.1038  0.0838 -0.4152
 8845W        W24462   0.294  15.474  12.661  0.4588  0.0614  0.2340
 8846W        W24463  14.153  15.923   3.960  0.1477 -0.0594 -0.2006
 8847W        W24464   2.245   6.690   5.351 -0.0872  0.3913  0.0500
 8848W        W24465   7.616  17.148   0.852 -0.3451 -0.2949  0.0919
 8849W        W24466  12.831  16.756   4.041 -0.0289  0.0394  0.2734
 8850W        W24467  16.656  14.618  15.785 -0.2212 -0.0387 -0.0540
 8851W        W24468  12.340  11.452  13.088 -0.3689 -0.0076 -0.2304
 8852W        W24469  15.344   1.426  16.508  0.0572  0.4149  0.2305
 8853W        W24470  10.123  14.248  11.416 -0.2527  0.1275 -0.0597
 8854W        W24471  11.152  11.377   3.769  0.3684 -0.0788  0.0068
 8855W        W24472   0.435  17.387  12.082 -0.1301  0.1239  0.0071
 8856W        W24473  13.846   0.722  11.483  0.1504  0.0827  0.0733
 8857W        W24474   6.156  16.993   6.198 -0.0723 -0.5754 -0.0562
 8858W        W24475  17.496  10.598  13.220  0.1430  0.1477  0.0275
 8859W        W24476   7.677   2.217  15.568  0.1827  0.1374 -0.3435
 8860W        W24477  14.837  10.781   4.966  0.1025  0.1329 -0.1128
 8861W        W24478   6.411   9.525   0.717 -0.1067  0.3699 -0.0560
 8862W        W24479   7.640   8.024   1.781  0.0753 -0.2433  0.1974
 8863W        W24480  16.008   7.213   4.523 -0.1821 -0.2704  0.2074
 8864W        W24481  13.306   7.838  16.610 -0.0260  0.1390 -0.3167
 8865W        W24482  13.867  15.069   3.028 -0.3156 -0.0402 -0.1459
 8866W        W24483   2.330   9.128   4.846  0.2800  0.0249  0.0766
 8867W        W24484   8.056   5.087  12.812 -0.2179  0.0447  0.3184
 8868W        W24485   1.129  14.111   3.579 -0.1813  0.2816  0.3498
 8869W        W24486   1.676  11.085   5.073 -0.2984  0.1820 -0.1124
 8870W        W24487   3.059   4.293   4.611  0.0994 -0.0955 -0.0866
 8871W        W24488  14.583   1.812  13.456 -0.2633  0.0719  0.0354
 8872W        W24489   0.333   2.628   6.230 -0.0687  0.2673  0.7349
 8873W        W24490   3.557  12.998   0.544 -0.2345 -0.1291 -0.1539
 8874W        W24491  14.687   2.966   1.376 -0.2288  0.0090 -0.1436
 8875W        W24492  12.994  16.975   4.599 -0.0753 -0.0308 -0.0739
 8876W        W24493   6.375  11.782  11.481 -0.1280 -0.0893 -0.1676
 8877W        W24494   4.356  15.759   2.059 -0.0428  0.1245  0.2125
 8878W        W24495   6.942   5.522   1.426 -0.1722 -0.0453 -0.1140
 8879W        W24496  11.174  16.982  12.508 -0.0581  0.1150  0.0030
 8880W        W24497   9.636   5.934  16.710 -0.0646  0.2816  0.1878
 8881W        W24498  15.596   4.489  12.288 -0.0621 -0.1026  0.2401
 8882W        W24499   6.504  15.920  12.718 -0.0898  0.1538  0.1514
 8883W        W24500   0.562   3.835  11.247  0.3285 -0.1645  0.2164
 8884W        W24501   6.406   1.394  15.256  0.1326 -0.1384  0.1169
 8885W        W24502   7.814   1.282   1.814  0.1260  0.1277 -0.1537
 8886W        W24503  16.862   8.290  11.692 -0.1548  0.2778  0.2758
 8887W        W24504  13.334   2.756   1.785 -0.0948  0.0931 -0.1543
 8888W        W24505  13.974   1.856   3.182  0.1106  0.1483  0.1473
 8889W        W24506   9.800   4.683  12.009  0.0577 -0.0299  0.1834
 8890W        W24507   7.126   2.070   2.957 -0.0604 -0.2966  0.1782
 8891W        W24508   6.233  10.114   5.844 -0.0942 -0.1035  0.2214
 8892W        W24509   4.451  14.913   4.737 -0.1575 -0.0307 -0.0600
 8893W        W24510   8.664   2.108   0.808 -0.0026  0.1029 -0.0275
 8894W        W24511   4.503   1.227   3.734  0.2341  0.1550 -0.0281
 8895W        W24512   3.471   8.394   2.287  0.3756  0.4180  0.1534
 8896W        W24513  16.090   1.175   2.017  0.3767  0.0895  0.3080
 8897W        W24514  11.019   5.498  12.395  0.2587 -0.2554 -0.1127
 8898W        W24515  10.734   4.780   3.148  0.0859 -0.3534 -0.0822
 8899W        W24516   6.146   2.358  11.285 -0.1235  0.1763  0.0638
 8900W        W24517  14.690   5.934  13.275  0.0160  0.0285  0.4092
 8901W        W24518   7.334  12.153  16.490  0.0718 -0.2026  0.4259
 8902W        W24519   6.346  16.332   5.014  0.2421 -0.5651 -0.1101
 8903W        W24520  10.764  10.525  16.187 -0.1299 -0.1976 -0.1546
 8904W        W24521  10.237  14.778  11.422 -0.0230 -0.0201 -0.2241
 8905W        W24522   3.535  11.681  13.293 -0.2078  0.0996  0.3070
 8906W        W24523  13.808   5.819  11.754  0.0314  0.1145  0.0028
 8907W        W24524  12.327  17.924  13.801  0.1345  0.2296 -0.2616
 8908W        W24525   4.080   7.709  13.690 -0.2111 -0.1855 -0.2056
 8909W        W24526   7.842   8.522  14.284 -0.0392 -0.1009  0.0234
 8910W        W24527   4.558  13.497  14.133 -0.1176  0.3429  0.1133
 8911W        W24528  16.510   0.924   2.110 -0.2387  0.3219  0.2324
 8912W        W24529   0.997  11.562   3.492  0.0615  0.2034  0.0717
 8913W        W24530   6.462  17.169   5.906  0.1793  0.0269 -0.3322
 8914W        W24531  16.798  15.156  14.111  0.3525  0.1827  0.0350
 8915W        W24532   8.108  11.768  12.608  0.0184 -0.0674  0.2246
 8916W        W24533   3.296  17.776   1.894  0.1524 -0.0972 -0.2096
 8917W        W24534   7.875   7.727   2.563  0.1701 -0.1789 -0.0698
 8918W        W24535  15.374  10.167   1.911 -0.2030  0.1546 -0.0438
 8919W        W24536   0.593   5.004   2.138  0.2384  0.1588  0.1460
 8920W        W24537   6.546   2.272   1.821 -0.0352  0.0846  0.2945
 8921W        W24538   0.389   8.794   4.804 -0.1818  0.0216 -0.0000
 8922W        W24539   6.155   1.936  15.526  0.0221  0.1402 -0.1298
 8923W        W24540   2.679   2.986   0.233  0.1462  0.3039 -0.1338
 8924W        W24541   2.849  13.711  15.916  0.1440 -0.4551  0.1040
 8925W        W24542   1.380  15.469  13.313  0.3201  0.0926  0.0917
 8926W        W24543  11.920   9.055   5.609  0.0186  0.1175  0.0662
 8927W        W24544  16.804  10.421  14.863  0.2900 -0.0840 -0.3128
 8928W        W24545   3.223  16.407   0.512  0.1117  0.1612 -0.0889
 8929W        W24546  15.162   6.943  14.897  0.1059 -0.1314 -0.2166
 8930W        W24547   6.074   0.860   1.855  0.0653 -0.2631  0.1689
 8931W        W24548   4.644   9.839   1.864  0.0052 -0.0132 -0.2393
 8932W        W24549   7.028   8.334  11.806  0.1757 -0.1291  0.1032
 8933W        W24550  17.321   9.349   2.323  0.1662 -0.1380  0.0449
 8934W        W24551   6.329  11.989   2.857  0.2947 -0.1242 -0.2501
 8935W        W24552   2.883  13.205  13.125  0.1055 -0.2705  0.0667
 8936W        W24553  12.893   0.785   3.601  0.0094 -0.3694  0.2041
 8937W        W24554  15.326   7.438  14.890  0.1825  0.0050 -0.0209
 8938W        W24555  14.217   6.175  14.949  0.0622  0.1385  0.0717
 8939W        W24556   5.578  14.791   2.981  0.3992 -0.0533  0.3121
 8940W        W24557  10.898   1.580   3.579 -0.3566 -0.1106  0.0120
 8941W        W24558   0.364  12.153  16.125 -0.0113 -0.2944  0.0001
 8942W        W24559   9.609   6.392   5.052  0.0869  0.3492  0.1590
 8943W        W24560   6.024   3.061  14.379 -0.0816 -0.3297  0.5067
 8944W        W24561   0.518   9.075   2.666 -0.0605  0.3466 -0.2385
 8945W        W24562   3.586  17.416   4.979  0.2061  0.1802 -0.1925
 8946W        W24563  14.005   2.358   6.034  0.0128  0.1900  0.0441
 8947W        W24564   5.337   4.074  16.518 -0.0422  0.3309 -0.1614
 8948W        W24565   7.269   0.275  14.592 -0.2666 -0.2737  0.0555
 8949W        W24566  10.674  13.526   3.966 -0.2127 -0.0898 -0.0219
 8950W        W24567  10.805  15.449  16.699  0.4459 -0.3339  0.0527
 8951W        W24568   1.179   2.312   2.192  0.2036  0.0056  0.2887
 8952W        W24569   7.356   1.622  14.188 -0.2796 -0.2875 -0.3493
 8953W        W24570  12.647   2.562  13.468  0.0194  0.1697  0.0022
 8954W        W24571   8.420  12.835   4.897  0.0487  0.3275  0.2933
 8955W        W24572   0.452  17.093   5.788 -0.3071  0.2558 -0.5962
 8956W        W24573  14.380   0.848  11.153 -0.0363 -0.0100 -0.1694
 8957W        W24574   1.402   7.203   4.248  0.2237 -0.0699 -0.2079
 8958W        W24575  15.808   0.678   4.260  0.1469 -0.1949  0.0016
 8959W        W24576  12.331   4.329  13.715 -0.0884 -0.0108 -0.2874
 8960W        W24577   8.534  12.496  11.502 -0.0400  0.0919 -0.3810
 8961W        W24578   7.464   2.681   5.748  0.1965  0.0156 -0.0191
 8962W        W24579  17.749  13.930  11.412  0.1385 -0.0385 -0.2160
 8963W        W24580   8.747  17.796  15.701 -0.1580  0.3598 -0.2424
 8964W        W24581  15.491   4.667   4.807  0.0354 -0.0097 -0.3321
 8965W        W24582  12.593  14.995   2.418 -0.1522  0.3054  0.1181
 8966W        W24583  12.960   2.396   1.754 -0.2625 -0.0955 -0.0471
 8967W        W24584  13.229   9.329  14.116  0.0875 -0.0682 -0.0793
 8968W        W24585   2.880  12.718  11.890  0.1666  0.4496 -0.1390
 8969W        W24586  13.966  17.318   3.281  0.1654 -0.0110 -0.0335
 8970W        W24587   3.798   5.184  16.776 -0.4327  0.1509 -0.0486
 8971W        W24588  12.874   4.457   0.133 -0.0442  0.1906  0.1057
 8972W        W24589  13.587   3.845  12.358  0.0488  0.2082  0.1585
 8973W        W24590   6.222   0.394  15.212  0.0824  0.1047 -0.1959
 8974W        W24591   7.718   2.290  13.711 -0.0188  0.1161  0.2417
 8975W        W24592   7.914  16.155  16.176  0.1062 -0.0705 -0.2758
 8976W        W24593   4.772   4.610   3.646  0.0141  0.3047 -0.1449
 8977W        W24594  13.694  10.043   0.574  0.3652  0.4714  0.1845
 8978W        W24595  12.057   6.221   5.784 -0.1367  0.0178 -0.1849
 8979W        W24596  15.734   9.030  14.401  0.1589 -0.3896 -0.0234
 8980W        W24597   8.235  14.704   2.657  0.1104  0.0250 -0.2293
 8981W        W24598  16.220   4.142  12.752 -0.0742  0.2176  0.3332
 8982W        W24599   3.727   9.835   1.117 -0.1293  0.0771 -0.2171
 8983W        W24600   3.106   4.931   3.068  0.0923 -0.5287  0.1458
 8984W        W24601   1.711   9.612   0.245 -0.3627  0.0721 -0.0585
 8985W        W24602   8.921   0.078   3.924  0.1718 -0.0685  0.0470
 8986W        W24603   7.650   1.126   0.582  0.0639  0.2728 -0.2568
 8987W        W24604   2.108   0.311   0.287  0.1642 -0.1569 -0.0344
 8988W        W24605  14.705   5.241  13.951  0.0413 -0.1841 -0.0794
 8989W        W24606   0.387   9.399   2.335 -0.2552 -0.0197 -0.0395
 8990W        W24607  15.386   8.297  12.426 -0.1368 -0.1931 -0.1028
 8991W        W24608   6.333  12.115  14.632 -0.2382 -0.2399  0.1399
 8992W        W24609  11.178  10.541   4.440 -0.2187  0.1309 -0.1968
 8993W        W24610   7.402  14.597  12.608 -0.1491 -0.0681 -0.2510
 8994W        W24611   2.563   9.868   3.662 -0.0381  0.0221  0.2067
 8995W        W24612  11.874   6.450  13.634 -0.4484  0.2080 -0.0373
 8996W        W24613   1.149   5.690  16.571 -0.0455 -0.0559  0.1619
 8997W        W24614  12.250   0.883   5.707 -0.0057  0.0562  0.2518
 8998W        W24615  12.191  14.194  11.297 -0.1021 -0.1733 -0.0144
 8999W        W24616   5.531   6.863   1.051 -0.3963  0.2524 -0.1272
 9000W        W24617  12.333   8.964  13.788  0.0478  0.1111 -0.1728
 9001W        W24618  16.247   0.088  13.184  0.2625  0.1516 -0.1116
 9002W        W24619   5.208  10.006   3.604 -0.0922 -0.1369 -0.1504
 9003W        W24620   8.781  17.456  16.241  0.0321  0.0441  0.0494
 9004W        W24621  11.711  17.396  16.398 -0.0552 -0.2946  0.1184
 9005W        W24622  10.315  14.208   1.071  0.1939  0.0806 -0.1518
 9006W        W24623   2.888   5.162  16.144 -0.0865  0.0910 -0.0005
 9007W        W24624   0.445   8.238  15.619  0.0081 -0.0170  0.1890
 9008W        W24625  10.645  14.998  15.283  0.4374 -0.2330 -0.1962
 9009W        W24626  12.414   0.200   3.137 -0.1066 -0.5313  0.2905
 9010W        W24627   0.537   9.580  11.642  0.0012  0.0174 -0.0628
 9011W        W24628   3.353   7.082   1.227  0.1219  0.1841 -0.0563
 9012W        W24629   8.132  16.406  13.188  0.0782  0.4996  0.0806
 9013W        W24630   9.974   7.106  15.229 -0.0524 -0.1407  0.0444
 9014W        W24631  14.373  15.421   6.649  0.0230  0.0261  0.0445
 9015W        W24632  12.183  14.532  11.961 -0.1469 -0.2767 -0.1172
 9016W        W24633   8.977   7.299  11.925 -0.2326 -0.0368  0.1591
 9017W        W24634   5.756  16.973  15.012 -0.1827 -0.2071  0.4473
 9018W        W24635   5.409  15.817   3.444 -0.1543 -0.0236 -0.0559
 9019W        W24636  15.284   1.047   4.043 -0.0589 -0.2060 -0.2739
 9020W        W24637   1.219   8.612  12.209 -0.1362  0.1607  0.2654
 9021W        W24638  12.901  16.114  15.616 -0.0805 -0.0862 -0.1921
 9022W        W24639   5.095   8.439  14.590 -0.0509  0.1451 -0.2773
 9023W        W24640   8.561   5.361  12.467  0.2293 -0.0368  0.0202
 9024W        W24641  15.370   4.073   3.052  0.0395 -0.3393  0.1821
 9025W        W24642   4.574   8.692   6.007 -0.2163 -0.2537 -0.4349
 9026W        W24643   8.264  11.262  13.647  0.2666 -0.0608  0.1986
 9027W        W24644  13.726   4.340  15.106  0.2690 -0.1555 -0.1989
 9028W        W24645  13.112   4.669   1.915 -0.0134 -0.1124  0.1483
 9029W        W24646   1.081   1.796  14.699 -0.0078  0.0555 -0.1219
 9030W        W24647  10.970   3.090   5.411 -0.2019 -0.2646 -0.2218
 9031W        W24648   5.005   9.882  15.015 -0.1305 -0.2023 -0.1271
 9032W        W24649  16.326   4.705   2.727 -0.1232 -0.0144  0.0984
 9033W        W24650   6.702  13.207  12.423 -0.1996 -0.3182  0.3093
 9034W        W24651  12.806   8.839  13.016 -0.1348 -0.1502 -0.0977
 9035W        W24652   7.047  14.395   2.469 -0.0393  0.0923 -0.1266
 9036W        W24653   6.822  10.820  16.672  0.1449 -0.0948 -0.1017
 9037W        W24654   1.758  12.331  11.979  0.1008 -0.1499 -0.2352
 9038W        W24655   2.240   3.924   0.289  0.2351  0.1301  0.1565
 9039W        W24656   8.729   9.833   0.089 -0.3268  0.1315  0.1589
 9040W        W24657   5.777  17.794   4.491 -0.0006 -0.0864 -0.0952
 9041W        W24658  11.761  17.242   3.409  0.0047  0.2722 -0.2426
 9042W        W24659  16.927  13.634  14.682 -0.3463  0.1966 -0.0218
 9043W        W24660   3.635   8.624  15.678  0.1368 -0.2510 -0.1165
 9044W        W24661   1.996  16.093   4.606 -0.3274  0.1696 -0.3259
 9045W        W24662  17.306   0.232  13.425 -0.0166 -0.3194 -0.1433
 9046W        W24663  11.714   0.390   4.990  0.2206  0.0129  0.3160
 9047W        W24664   1.468   2.617   0.328 -0.1052 -0.2130  0.0101
 9048W        W24665   2.107  17.084   4.141 -0.0011 -0.3544 -0.0013
 9049W        W24666   5.497   2.959   0.345 -0.2866  0.3418  0.1774
 9050W        W24667   3.826  17.357  15.035 -0.0005  0.0244  0.4305
 9051W        W24668  16.780  14.645  15.325  0.2886 -0.4080 -0.1590
 9052W        W24669  12.294   3.282  12.236 -0.1062 -0.1001  0.2177
 9053W        W24670   3.106  16.169  15.971  0.3234 -0.0239  0.1391
 9054W        W24671  12.030  10.533   5.349 -0.1224  0.0936 -0.0464
 9055W        W24672  10.161   8.720   2.340 -0.1223  0.1689  0.3550
 9056W        W24673   7.814   6.274  15.703  0.0675 -0.1876 -0.0800
 9057W        W24674  12.748  16.608  13.700  0.2751  0.0002 -0.5464
 9058W        W24675  12.354  13.448  14.884  0.0788  0.2187 -0.2475
 9059W        W24676  14.755   5.923  12.754 -0.0123 -0.0671 -0.1796
 9060W        W24677  12.449   5.555   2.680  0.2027 -0.1686 -0.1519
 9061W        W24678  12.131   4.283  16.758  0.0168 -0.0634  0.1948
 9062W        W24679  15.314  14.546  14.313  0.1443 -0.1985  0.0967
 9063W        W24680  10.685  13.796   4.557 -0.1086 -0.2749 -0.0712
 9064W        W24681  12.423  11.750   4.964 -0.2125  0.0236  0.2564
 9065W        W24682  12.182  13.548   2.171 -0.2409 -0.3380 -0.4679
 9066W        W24683  10.093   3.730  14.598  0.2196 -0.1272  0.2095
 9067W        W24684  10.344   7.831   2.770 -0.0012 -0.3280  0.0841
 9068W        W24685  12.168   8.028   4.626 -0.2859  0.3237 -0.1925
 9069W        W24686  13.237  11.122  11.565 -0.0041 -0.1128  0.0536
 9070W        W24687  17.242   0.983   5.688  0.0425  0.3003 -0.1137
 9071W        W24688  16.327   1.933  14.531 -0.0530 -0.0684 -0.1059
 9072W        W24689  16.865   3.844   6.234 -0.0333  0.0599 -0.0643
 9073W        W24690  11.788  15.025   0.574  0.3355 -0.0942 -0.1528
 9074W        W24691  17.843  14.218  13.847  0.0965 -0.3478  0.0875
 9075W        W24692   6.794  16.978   2.063 -0.1994  0.0883 -0.1680
 9076W        W24693  10.507  13.763   0.139 -0.0059 -0.2020  0.0439
 9077W        W24694  13.926   5.652   5.990 -0.0890 -0.0009 -0.3183
 9078W        W24695  17.910  14.146  12.263 -0.0362  0.0602  0.1252
 9079W        W24696  16.697  17.160  15.182 -0.1115 -0.1492 -0.3045
 9080W        W24697   2.221   8.007  16.253 -0.1930 -0.1960  0.0580
 9081W        W24698  15.338   9.485  14.729 -0.2875 -0.1441 -0.1666
 9082W        W24699  17.733  12.404  14.328 -0.0843 -0.1649  0.0373
 9083W        W24700  17.829  15.126  12.353 -0.0132  0.1014 -0.3165
 9084W        W24701  16.453  16.321   0.063  0.1029  0.2184  0.2599
 9085W        W24702  15.884   6.080   0.508  0.1923  0.1430 -0.1309
 9086W        W24703   6.250   9.802   2.906 -0.0095 -0.1008 -0.0036
 9087W        W24704   3.388  11.570   3.442 -0.0500 -0.0829 -0.1276
 9088W        W24705   9.471  13.142  10.922  0.1488 -0.0686  0.1140
 9089W        W24706  11.513   9.775   5.061  0.1384 -0.2083 -0.3079
 9090W        W24707  16.618   2.524   0.781  0.0695  0.3602  0.0919
 9091W        W24708   3.403  17.069   0.433 -0.2545  0.0829  0.1443
 9092W        W24709   7.615  13.873   6.126  0.1885 -0.3196 -0.2858
 9093W        W24710   8.387  13.740   3.566  0.1895 -0.0019 -0.2441
 9094W        W24711   5.759   4.305  16.696  0.2492  0.0204 -0.0506
 9095W        W24712   6.047  16.116   3.235  0.1677 -0.0251 -0.1079
 9096W        W24713   1.679  14.587  13.168 -0.0628 -0.1291 -0.1328
 9097W        W24714   2.638  15.458   0.617 -0.1243 -0.2216 -0.1995
 9098W        W24715  13.028   3.918  14.607 -0.0963 -0.2020 -0.0397
 9099W        W24716   4.128   8.629  13.451  0.2728  0.0858  0.1088
 9100W        W24717   6.435  13.247  15.418 -0.0422 -0.0817  0.2763
 9101W        W24718   8.821   0.488   3.562 -0.0051  0.1955 -0.0444
 9102W        W24719  13.121   2.824  13.425 -0.2951 -0.0299 -0.1037
 9103W        W24720  14.132  16.455   3.941 -0.0174  0.0740  0.1409
 9104W        W24721   4.006   0.425  13.531 -0.2181  0.0330 -0.0396
 9105W        W24722  14.721   1.142   6.038  0.2045  0.0840  0.1505
 9106W        W24723  13.572   7.829  16.202 -0.0563  0.1199  0.2386
 9107W        W24724   0.376   6.029   3.822 -0.2245  0.0154  0.0331
 9108W        W24725  10.952   7.674  11.930 -0.2708  0.2181  0.0033
 9109W        W24726   9.402   0.303  13.204  0.0644 -0.4750 -0.2307
 9110W        W24727   9.499   2.636  13.671  0.1799 -0.6795 -0.2395
 9111W        W24728   9.136  15.909   3.524  0.2028 -0.1239 -0.0002
 9112W        W24729  17.267   9.987   4.737 -0.1910  0.2600  0.0871
 9113W        W24730  12.921  12.964   0.917 -0.1082  0.2096  0.0363
 9114W        W24731   0.534  13.204   2.869  0.1448 -0.1623  0.0530
 9115W        W24732  12.133   2.484  14.862 -0.0484  0.3379  0.3881
 9116W        W24733   7.194   6.067  13.833  0.0907  0.4187  0.2405
 9117W        W24734  16.097  15.022   2.722  0.0347 -0.3027 -0.0803
 9118W        W24735  12.818   3.597   3.486  0.1293 -0.2255 -0.0831
 9119W        W24736  16.702   5.339   1.695  0.0159 -0.0486 -0.1604
 9120W        W24737   3.521   1.984   2.816  0.3746 -0.0646  0.1649
 9121W        W24738   6.601  13.046   2.433  0.1155 -0.0640  0.0311
 9122W        W24739  14.079  13.318  15.956 -0.0985 -0.1722  0.0041
 9123W        W24740  11.472  18.034  10.598 -0.1244 -0.0740  0.2282
 9124W        W24741   6.274   5.995   1.710 -0.1962  0.4568 -0.2593
 9125W        W24742   1.397  18.046   3.904 -0.0586 -0.0485  0.0477
 9126W        W24743  16.421   6.734  11.831  0.0478 -0.1890 -0.1770
 9127W        W24744   4.541  16.255   3.598 -0.2648 -0.2020 -0.0595
 9128W        W24745  10.796   6.590  15.830 -0.1290 -0.1971  0.1816
 9129W        W24746  12.346  13.759   5.373  0.2411 -0.1141  0.0544
 9130W        W24747  14.994  14.869   3.982  0.2802 -0.0203 -0.0065
 9131W        W24748  16.546   4.186  13.584  0.0578  0.0533 -0.1298
 9132W        W24749   8.371   2.229   3.744 -0.3047  0.1489  0.0102
 9133W        W24750   9.198  15.801   5.358  0.0421  0.0816  0.2398
 9134W        W24751  10.158   5.777   3.467  0.1864  0.0868  0.1285
 9135W        W24752  10.336  17.196   2.964  0.1505  0.1141 -0.0620
 9136W        W24753  17.262  15.871   0.384  0.1552 -0.1462  0.0633
 9137W        W24754  13.166  13.109  12.803 -0.2210 -0.2659 -0.0241
 9138W        W24755   9.631  11.093  14.467  0.0568 -0.0691  0.2233
 9139W        W24756   6.681  11.454   3.266  0.0779 -0.2011  0.4078
 9140W        W24757   0.103   7.633   3.940  0.0299  0.2988 -0.2058
 9141W        W24758   3.634   1.343  16.483  0.3102 -0.2337 -0.0107
 9142W        W24759  15.998  10.091   3.354 -0.0535 -0.0353 -0.1247
 9143W        W24760   7.911  17.585   2.436 -0.2701 -0.0832 -0.1169
 9144W        W24761   4.476   9.700   1.150 -0.0434 -0.0697 -0.0271
 9145W        W24762  11.598  17.109   2.695 -0.0443  0.1206  0.3166
 9146W        W24763   8.652  13.080  15.698 -0.2025  0.2301  0.1435
 9147W        W24764   1.564  16.597  16.136  0.2334  0.1057 -0.1405
 9148W        W24765  14.238   9.484   3.346 -0.1158  0.0416  0.0275
 9149W        W24766  12.687  17.055  15.382  0.1603  0.1320  0.2608
 9150W        W24767   0.102   8.821  12.031  0.0396  0.0297  0.0730
 9151W        W24768   6.541   4.270   2.541 -0.0748 -0.1160 -0.2682
 9152W        W24769  12.960  12.154  15.371  0.2584 -0.1301 -0.0944
 9153W        W24770  17.700   6.588  11.551 -0.2072 -0.2357 -0.3192
 9154W        W24771   6.222   6.814  13.404 -0.2846 -0.2249  0.3672
 9155W        W24772   9.260  16.523  12.604 -0.0728 -0.3590  0.0505
 9156W        W24773   6.962   3.851   1.719 -0.0408 -0.2908 -0.1383
 9157W        W24774  15.091  14.045   3.013 -0.1908  0.0120  0.0740
 9158W        W24775   3.967   7.576   4.055  0.1207  0.0837  0.1222
 9159W        W24776   3.325   5.775   3.626 -0.2998 -0.0718 -0.0408
 9160W        W24777   3.815   5.886   1.106  0.0460  0.1236  0.2765
 9161W        W24778  12.004  12.833  11.174 -0.3162  0.0294 -0.0546
 9162W        W24779   1.450   0.013  15.079 -0.2110  0.2746  0.0125
 9163W        W24780   9.044   8.856   4.427 -0.3201 -0.3801 -0.1023
 9164W        W24781  16.245   7.266  15.910  0.1370  0.0320  0.1660
 9165W        W24782   7.954   6.088  12.830 -0.3850 -0.1184 -0.0134
 9166W        W24783   8.854  13.825  12.822 -0.0233 -0.0937 -0.0010
 9167W        W24784   0.289   3.376   0.391  0.2619  0.0425 -0.3058
 9168W        W24785   1.208   8.689  13.785 -0.1288 -0.0714  0.1121
 9169W        W24786   0.633   1.775   4.635 -0.2823 -0.0095 -0.2362
 9170W        W24787   7.520   8.048  11.317  0.1962  0.2406 -0.2308
 9171W        W24788   6.470   4.089   0.408 -0.1160  0.0056  0.0987
 9172W        W24789   0.587  11.019   3.041  0.2597 -0.0073  0.2289
 9173W        W24790   3.019   2.231   1.706 -0.1582  0.0981  0.4670
 9174W        W24791   3.453  16.906  14.934  0.2541 -0.1893 -0.2506
 9175W        W24792  15.961  17.773   5.379 -0.0443 -0.0721 -0.0546
 9176W        W24793   6.391  12.728  14.307  0.1744  0.2808  0.1173
 9177W        W24794   7.891  10.830   3.981  0.1246  0.1197 -0.0953
 9178W        W24795   5.509   3.517   5.518 -0.1178  0.1062  0.0777
 9179W        W24796  17.140  10.196   0.145 -0.0139  0.2755  0.1445
 9180W        W24797  15.265  13.954  11.819 -0.0138  0.0589 -0.0309
 9181W        W24798   4.072   9.327   5.616  0.0415 -0.0031  0.2644
 9182W        W24799  18.050   8.256   4.923 -0.1954 -0.2470 -0.0639
 9183W        W24800   3.955  12.908   1.668  0.2297  0.2369 -0.0662
 9184W        W24801   2.971  14.012  12.748 -0.0079 -0.1867  0.2725
 9185W        W24802  12.168   2.533   3.924 -0.1609 -0.0299  0.2023
 9186W        W24803   0.326  12.697   0.871 -0.0316  0.1521 -0.2390
 9187W        W24804  13.239  13.073  15.645  0.0239 -0.0327 -0.1163
 9188W        W24805   5.139   3.437  11.311 -0.0825  0.0145 -0.5050
 9189W        W24806   4.295  10.641   2.731 -0.0420 -0.0824 -0.1388
 9190W        W24807   5.846  14.184   4.246 -0.3522 -0.3265  0.1118
 9191W        W24808   2.354   7.088   4.684  0.4355  0.0364  0.1759
 9192W        W24809  15.782  16.616  12.741 -0.0495  0.4310 -0.0213
 9193W        W24810  17.649   3.206  15.665 -0.1250  0.0578 -0.0216
 9194W        W24811  16.103   7.174  12.784  0.2787 -0.2620  0.3225
 9195W        W24812   6.884   5.294   3.453 -0.0290 -0.0732  0.0556
 9196W        W24813  17.678  12.478  12.151  0.1256  0.0090 -0.2673
 9197W        W24814   8.977   5.511   2.105 -0.0310 -0.0774  0.2714
 9198W        W24815  15.763  10.966   3.194  0.2383 -0.1127  0.0952
 9199W        W24816   1.015  11.113   0.283  0.0358 -0.2955  0.0966
 9200W        W24817  14.929  15.743   4.468 -0.1590  0.0745  0.0410
 9201W        W24818   4.022  14.476   3.888 -0.1726 -0.3034  0.0313
 9202W        W24819   1.334  11.621  11.597 -0.0808  0.3138 -0.4964
 9203W        W24820   6.909   1.388  15.322  0.0083  0.2122 -0.1964
 9204W        W24821  10.307   9.634  11.115  0.0772 -0.2568 -0.0147
 9205W        W24822  16.160  13.611   0.665  0.1079 -0.0976 -0.1398
 9206W        W24823   2.826  17.053  14.392  0.0082 -0.1150  0.1957
 9207W        W24824   2.325  15.288  13.611 -0.0148 -0.0636  0.1259
 9208W        W24825   2.086   9.991   5.754  0.4607 -0.2358 -0.4180
 9209W        W24826  17.768  10.965  15.756  0.2200  0.0978 -0.3308
 9210W        W24827  12.906  17.699   2.114  0.1037  0.2293 -0.1084
 9211W        W24828   8.794  15.540  11.078 -0.2629  0.2301 -0.0227
 9212W        W24829   9.098   3.318   4.124 -0.0693  0.1365 -0.3563
 9213W        W24830   6.688   8.059   3.322 -0.1430  0.2528  0.0640
 9214W        W24831   0.547   3.213  12.882 -0.0829 -0.0216  0.1573
 9215W        W24832  15.581  12.989   5.889  0.1421 -0.1298 -0.0759
 9216W        W24833   1.082   1.566   3.037  0.2904  0.1939 -0.1766
 9217W        W24834   1.817   8.064  11.835  0.2173  0.3912  0.1726
 9218W        W24835   3.968   6.152   4.110  0.1539  0.3591 -0.1141
 9219W        W24836  11.170   9.384  12.335  0.0108 -0.1162 -0.0321
 9220W        W24837  17.898  14.343  12.944  0.0776 -0.0517  0.0991
 9221W        W24838  13.090  13.879  13.165  0.0299  0.3562 -0.1507
 9222W        W24839   5.715   8.838   3.395  0.0557 -0.4062  0.4390
 9223W        W24840   3.185  10.494   1.477 -0.0140  0.2010 -0.1169
 9224W        W24841   1.241   5.508   1.754  0.0262 -0.2479 -0.2728
 9225W        W24842  13.012  15.987  14.339  0.0192 -0.3397 -0.2796
 9226W        W24843  17.834  17.088   2.483  0.0350 -0.0964  0.1907
 9227W        W24844   7.803  11.565   1.355 -0.2865  0.2553 -0.3322
 9228W        W24845   6.014  10.276   3.456 -0.0908  0.1375  0.0155
 9229W        W24846   6.283  17.428  14.066 -0.0795  0.0745 -0.0891
 9230W        W24847   4.990  10.786  11.393  0.1048 -0.1991  0.0687
 9231W        W24848  14.540  15.114   5.400 -0.0009 -0.0328  0.2202
 9232W        W24849   7.578   9.722   0.000 -0.2137  0.3501  0.0296
 9233W        W24850  16.652   8.204   0.033  0.0032  0.0264  0.2179
 9234W        W24851   5.271  11.923   4.820  0.2511  0.1151 -0.0380
 9235W        W24852   9.110  16.688  11.384 -0.0395  0.2159  0.1602
 9236W        W24853  10.639   9.720  12.775 -0.1667  0.0757 -0.0633
 9237W        W24854   9.634   2.445   0.965 -0.1755 -0.0665  0.0453
 9238W        W24855  10.257  13.873  15.582  0.0387 -0.0610 -0.2007
 9239W        W24856   9.985   8.750   4.937 -0.3118 -0.2350 -0.1261
 9240W        W24857   7.984  14.903   1.634 -0.3282 -0.1437 -0.0902
 9241W        W24858   8.726  15.750   3.302 -0.1105 -0.0796  0.0802
 9242W        W24859   6.709   9.818   4.780  0.0656 -0.4293 -0.1490
 9243W        W24860   7.260  17.453   1.814 -0.1347  0.1610 -0.2000
 9244W        W24861   3.802  17.082   2.649  0.5302 -0.2937  0.1168
 9245W        W24862   3.330   3.212   5.350  0.1104 -0.0309  0.1325
 9246W        W24863   9.368  17.278  12.175  0.0439  0.1436 -0.1635
 9247W        W24864  12.507   7.057   3.913 -0.4334  0.2897 -0.3660
 9248W        W24865  10.570  16.179   4.169 -0.3248  0.0167 -0.0029
 9249W        W24866  11.561  11.948  14.070 -0.0654  0.0188 -0.1887
 9250W        W24867  13.764   1.003   3.439 -0.0006  0.0357  0.2624
 9251W        W24868   9.332   3.899   5.329  0.0553 -0.0328  0.0776
 9252W        W24869   3.140  14.305   1.574 -0.0028  0.0702  0.0897
 9253W        W24870   1.046   2.306   4.085  0.2941  0.0878  0.0069
 9254W        W24871  13.484  15.248  15.189  0.0682 -0.1826 -0.0015
 9255W        W24872  11.570  17.195   4.976 -0.0316  0.2266  0.0105
 9256W        W24873  14.682   9.606  13.444 -0.2755  0.3026 -0.0769
 9257W        W24874   1.542   5.204   2.028 -0.1129  0.1342  0.2278
 9258W        W24875   9.556  10.528   0.564 -0.0221 -0.1096 -0.0275
 9259W        W24876   9.365   6.216   2.093 -0.5312  0.2670  0.2104
 9260W        W24877   1.709   0.502  13.939  0.2320  0.2269  0.0222
 9261W        W24878  15.925  10.934   5.624 -0.0799  0.1365 -0.1378
 9262W        W24879  16.438   3.676   2.550  0.0697 -0.0466 -0.0721
 9263W        W24880   2.634   6.628  12.912 -0.1332  0.0716 -0.0941
 9264W        W24881  17.249   0.131  11.814 -0.0418  0.0418 -0.1674
 9265W        W24882  18.009  17.476  16.441 -0.0374  0.1802 -0.4411
 9266W        W24883   2.579   5.477  12.207  0.1152  0.1598 -0.4471
 9267W        W24884  15.212  11.039  14.218  0.2253 -0.0203  0.1793
 9268W        W24885   1.279   6.763   2.951 -0.0846  0.2119  0.0063
 9269W        W24886  11.075   7.940  14.237  0.1098 -0.2679 -0.2750
 9270W        W24887  16.322   5.840   2.062  0.0557  0.1661 -0.1367
 9271W        W24888  11.657   7.193  12.226 -0.1737 -0.1604 -0.1039
 9272W        W24889   7.669  11.724   5.557 -0.1019 -0.1969  0.0795
 9273W        W24890  15.321  15.008   1.459 -0.2837 -0.0847  0.3279
 9274W        W24891  13.290  15.241  12.632  0.0561  0.1233  0.0910
 9275W        W24892   1.286  12.517   2.686  0.0128 -0.3025 -0.0750
 9276W        W24893  17.670   1.797  12.724 -0.1408  0.0491  0.0307
 9277W        W24894  13.505   5.467  12.461 -0.0272 -0.1371 -0.3181
 9278W        W24895   9.202   5.027  12.544  0.0794 -0.1716 -0.4652
 9279W        W24896  11.798   4.213  16.382 -0.0319  0.0722 -0.1489
 9280W        W24897  15.539   9.709   2.070  0.1676 -0.1904  0.1301
 9281W        W24898  10.953   8.428  16.801 -0.1407 -0.0791 -0.0733
 9282W        W24899  11.263  13.122   0.209 -0.1762  0.1685 -0.0411
 9283W        W24900   7.884   2.607  15.445  0.2305  0.0462 -0.0494
 9284W        W24901  16.790   5.926  15.530  0.0303 -0.3080 -0.0591
 9285W        W24902   9.965   4.086  11.689 -0.4500 -0.0960  0.1008
 9286W        W24903   7.576  14.960  10.550 -0.2608 -0.2882  0.2177
 9287W        W24904  11.295  15.213   4.797  0.2720 -0.5199 -0.1421
 9288W        W24905  13.715  11.821  13.700 -0.0175 -0.1977  0.0340
 9289W        W24906  14.039   0.008   3.703  0.0983  0.2066  0.2018
 9290W        W24907  16.326   9.566  13.232  0.1636 -0.4478  0.0184
 9291W        W24908   7.427   6.989  11.633  0.0457  0.2349  0.0670
 9292W        W24909   6.646   6.735   4.341  0.1438  0.0453 -0.1103
 9293W        W24910   1.605  15.836  14.490 -0.0667 -0.0544 -0.3146
 9294W        W24911  15.537   6.499  14.288 -0.0991  0.2212  0.0729
 9295W        W24912  11.966  17.629   3.107  0.1871  0.1497  0.2473
 9296W        W24913   8.630  10.963   1.524 -0.1236 -0.2190  0.2040
 9297W        W24914   1.982  16.117  13.068  0.0913  0.3191  0.2283
 9298W        W24915   1.680   3.946   1.496 -0.1035  0.0126  0.0805
 9299W        W24916  10.883  10.407  16.701 -0.2085 -0.0143  0.0501
 9300W        W24917   1.309  17.140  13.742  0.0451  0.0652  0.2948
 9301W        W24918   2.210  12.398   2.879 -0.1009 -0.0363 -0.2605
 9302W        W24919  16.983   7.881   0.946 -0.0961 -0.0336  0.0789
 9303W        W24920  16.317   6.950   0.604 -0.0312  0.2171  0.0598
 9304W        W24921   6.279   5.300  12.877 -0.0265  0.2022  0.1404
 9305W        W24922   3.227   3.425   4.387 -0.0704  0.1779 -0.2413
 9306W        W24923  16.236  14.723  13.212  0.2022 -0.1034 -0.0233
 9307W        W24924   9.347   2.780   2.080  0.0960  0.2301  0.0248
 9308W        W24925  13.211  17.158  15.242  0.0944 -0.0130  0.0621
 9309W        W24926  11.773   0.049   5.487 -0.0307  0.2907  0.2596
 9310W        W24927   4.978   8.026  15.883 -0.1106  0.1280  0.2832
 9311W        W24928  12.652  16.122  11.715  0.1739  0.2578 -0.2541
 9312W        W24929  12.665   3.166   0.716 -0.2350 -0.4172 -0.3942
 9313W        W24930  10.504   8.514   4.593 -0.1497 -0.1330  0.0172
 9314W        W24931   4.265   9.690  16.761  0.1097 -0.2457  0.4328
 9315W        W24932   9.305   9.808  16.758 -0.2679 -0.1981 -0.0702
 9316W        W24933  15.883   2.729   3.085  0.2911  0.1255  0.2381
 9317W        W24934   6.157   3.904   3.897  0.0390 -0.0811  0.1009
 9318W        W24935  16.476  14.373  12.904  0.0642 -0.0898  0.1214
 9319W        W24936  13.912  12.926   3.570  0.1639  0.2324 -0.0344
 9320W        W24937   8.406   6.204  13.621  0.0619 -0.0371  0.1744
 9321W        W24938   0.309  15.611   0.402 -0.3076 -0.0666  0.0790
 9322W        W24939   5.103   7.679   2.680 -0.0478 -0.1118  0.0086
 9323W        W24940   5.920   2.301  15.990 -0.2808 -0.4094  0.2339
 9324W        W24941   7.082  17.730   3.745 -0.1952 -0.1279 -0.0242
 9325W        W24942   8.804  16.157  15.818 -0.0496 -0.0516  0.2020
 9326W        W24943  12.393   5.078   0.452 -0.1779  0.1081 -0.0312
 9327W        W24944  17.650  15.778   5.496 -0.1680 -0.0375  0.0162
 9328W        W24945  16.395  14.241  15.001  0.2834 -0.0897  0.1426
 9329W        W24946   5.368  10.161  14.826  0.2059 -0.2703 -0.2350
 9330W        W24947   7.116  16.007   1.859 -0.4130 -0.1164 -0.0932
 9331W        W24948   9.489   5.046  14.546 -0.1561 -0.2843  0.1139
 9332W        W24949   5.280  16.280  12.488 -0.0237  0.2356  0.0010
 9333W        W24950  11.778   0.932   3.015  0.1992 -0.0658  0.0681
 9334W        W24951   5.120   1.522  14.374 -0.3070  0.0707 -0.4154
 9335W        W24952  14.078   4.518  14.356 -0.1828  0.0033 -0.3066
 9336W        W24953  12.158   4.521   4.620  0.0501 -0.0286  0.0854
 9337W        W24954  16.108   5.207   0.135  0.3177 -0.0488 -0.1029
 9338W        W24955  13.603   7.628  15.190 -0.0292 -0.0148 -0.0629
 9339W        W24956   6.987   9.712  16.718  0.0301 -0.2065  0.1914
 9340W        W24957  11.492   8.951  13.028  0.0439 -0.0047  0.2803
 9341W        W24958  12.925   4.220   4.959  0.1764  0.1947  0.0477
 9342W        W24959   3.546   6.905   5.624 -0.3249 -0.0472  0.3363
 9343W        W24960  13.472   2.003   2.495  0.1724 -0.0261 -0.2338
 9344W        W24961  15.273  14.074  11.360  0.4363 -0.1131 -0.1790
 9345W        W24962  14.168  15.775  12.276  0.2350  0.0912 -0.0584
 9346W        W24963   9.474   2.286   0.318 -0.1395  0.1343  0.0690
 9347W        W24964  16.606  12.668  12.613  0.1292  0.1004  0.0499
 9348W        W24965  13.102   2.856  15.085 -0.0561  0.0873  0.1987
 9349W        W24966  17.604   8.160   4.763  0.3906 -0.2850 -0.2775
 9350W        W24967  17.285   0.122   2.778  0.0762 -0.1249  0.1713
 9351W        W24968   9.892  11.429  14.021 -0.4074  0.2631 -0.0504
 9352W        W24969   9.224   0.649   3.850 -0.2256 -0.1863 -0.2698
 9353W        W24970   8.262  13.607  11.991 -0.0655 -0.4301 -0.0758
 9354W        W24971  16.159   7.029  12.204  0.1501 -0.1384  0.2224
 9355W        W24972  10.243  12.201   0.502  0.0873  0.2139 -0.4993
 9356W        W24973  16.096   8.962  15.235  0.0860  0.2369 -0.1238
 9357W        W24974  14.272  10.588  12.619  0.0660  0.0846 -0.4553
 9358W        W24975   0.893  17.448  12.466  0.1497 -0.4605  0.3226
 9359W        W24976  17.813  17.491   1.250 -0.0182  0.5965 -0.0045
 9360W        W24977   1.342  18.003   0.915 -0.1628  0.0513  0.0440
 9361W        W24978   8.828   4.602   5.409 -0.1862 -0.1186 -0.2361
 9362W        W24979   0.276   7.076   0.801 -0.2198 -0.0202 -0.0146
 9363W        W24980  13.676  16.015  16.232 -0.0099  0.2913 -0.1382
 9364W        W24981   0.434   4.204  14.339 -0.0090  0.0398 -0.2187
 9365W        W24982  17.667  14.400  13.419  0.2332  0.0680 -0.2013
 9366W        W24983   7.727   3.909  13.062  0.0751 -0.3881  0.2975
 9367W        W24984  14.857  17.250   3.010  0.2336 -0.1137  0.0504
 9368W        W24985  14.000  10.688  16.691 -0.0303  0.0520 -0.0785
 9369W        W24986   7.263  12.623   0.523  0.1089  0.2354  0.1672
 9370W        W24987   4.203   2.525   3.151 -0.0287  0.0009  0.3823
 9371W        W24988   4.265  11.059   4.323  0.0219 -0.1597 -0.5481
 9372W        W24989  15.973  13.789  14.485 -0.2251  0.1024  0.2686
 9373W        W24990   6.860  16.942  13.437 -0.0309 -0.0255  0.1133
 9374W        W24991   4.063  11.716  15.583  0.0958 -0.4275  0.0383
 9375W        W24992  17.984  15.408  13.279  0.3738 -0.1725 -0.0829
 9376W        W24993   7.944   7.139   5.352  0.2180 -0.1621  0.3108
 9377W        W24994  11.320   8.168  16.570 -0.0845  0.0626 -0.0355
 9378W        W24995   6.588   7.280   0.980  0.4922  0.1085 -0.1610
 9379W        W24996  16.823  13.765   0.477 -0.4697 -0.1848 -0.4328
 9380W        W24997  12.936   9.726   1.135 -0.2032 -0.1338 -0.0115
 9381W        W24998   1.053   8.984   3.209 -0.0820  0.4006  0.1247
 9382W        W24999   7.850  14.844  14.843  0.1004  0.0563 -0.3074
 9383W        W25000  11.334   5.886   1.670 -0.0602  0.4096 -0.0686
 9384W        W25001   5.141   1.346  15.655 -0.0042 -0.0191  0.1002
 9385W        W25002  14.129   4.991   1.359 -0.0439  0.0581 -0.0295
 9386W        W25003   5.518   9.636   2.754 -0.0084 -0.0217  0.0424
 9387W        W25004   4.828  12.004   2.911  0.2189  0.0164 -0.1756
 9388W        W25005   8.017  12.089   1.846 -0.0622 -0.2326 -0.1198
 9389W        W25006   8.735  13.157   1.286 -0.1534 -0.1935  0.0261
 9390W        W25007   2.506   4.379   5.518 -0.0727  0.0436 -0.1390
 9391W        W25008   4.083  16.612  11.741  0.1923 -0.1151 -0.1578
 9392W        W25009  14.180  15.417   5.147 -0.1198 -0.2755  0.1384
 9393W        W25010   5.846   2.475   3.574  0.0971 -0.1010  0.1210
 9394W        W25011   8.445  16.835  13.151  0.0919 -0.1009  0.1584
 9395W        W25012  12.271  16.890   1.940  0.0148  0.1249  0.1316
 9396W        W25013   4.803   8.010  16.391  0.0379 -0.3189  0.0189
 9397W        W25014   5.021  14.635  13.437 -0.0225 -0.1839 -0.2953
 9398W        W25015  16.504   9.093   2.503 -0.0738  0.0510  0.0886
 9399W        W25016   5.469   4.842   4.347 -0.2205 -0.0197  0.1172
 9400W        W25017  11.498  13.648   0.453 -0.2136  0.1391 -0.1684
 9401W        W25018  15.905  15.544   0.924  0.0701 -0.2958  0.1555
 9402W        W25019   4.687  16.162   1.198  0.1171  0.0478 -0.0562
 9403W        W25020   3.278   3.423  16.603  0.0942  0.2968 -0.2398
 9404W        W25021   0.397   1.726  12.162  0.0927  0.1011  0.2330
 9405W        W25022   7.153   4.930  15.060 -0.0765 -0.0622 -0.1069
 9406W        W25023  15.120  10.400  14.800 -0.0902  0.1969 -0.0653
 9407W        W25024  13.119  13.599   5.078  0.0770 -0.2110 -0.0631
 9408W        W25025   9.118   5.096  15.526  0.2629 -0.0586  0.1118
 9409W        W25026  15.665  10.861  14.060  0.0416  0.0033 -0.2433
 9410W        W25027   8.559  12.547   4.528 -0.2613 -0.1295  0.0168
 9411W        W25028  16.647  16.419   6.180  0.1287 -0.2841  0.1685
 9412W        W25029  16.723  11.944  13.318 -0.2158 -0.1110  0.1844
 9413W        W25030  17.284   6.979  13.414  0.0596  0.1600  0.1935
 9414W        W25031   2.862  17.938  12.817  0.1418  0.0900 -0.1488
 9415W        W25032   1.357   2.648   4.348 -0.0035 -0.0600 -0.0121
 9416W        W25033  17.361   8.103  16.131  0.1084 -0.0632 -0.0177
 9417W        W25034  16.565   4.613  14.822  0.0893 -0.1224  0.2253
 9418W        W25035   1.142  17.644  15.173 -0.1796  0.1622  0.0959
 9419W        W25036   3.294   3.513   4.931 -0.0292 -0.0122 -0.2387
 9420W        W25037   8.832  13.005   4.640 -0.0198  0.0981  0.3455
 9421W        W25038   0.914   1.502   3.776  0.1054  0.2649  0.0540
 9422W        W25039   2.474  17.375   1.659  0.0579 -0.0182 -0.0068
 9423W        W25040   0.201  13.878   0.113  0.2452  0.1527  0.0733
 9424W        W25041   3.746   5.875   2.743  0.1022  0.1569  0.2926
 9425W        W25042   2.002   6.749   0.066  0.0858  0.2033 -0.2951
 9426W        W25043  16.860   4.131  15.631  0.2960 -0.0023  0.0213
 9427W        W25044   0.138  16.854   4.918 -0.2533 -0.1026  0.1934
 9428W        W25045   1.833   3.457   1.319 -0.0782  0.1990  0.0210
 9429W        W25046   2.558   9.759   4.259  0.2388  0.1836  0.1233
 9430W        W25047  15.916   2.070  15.098  0.1461 -0.0649  0.0701
 9431W        W25048   0.470  12.519  15.528  0.1925  0.0466  0.0177
 9432W        W25049  11.529  17.256   0.422 -0.1454  0.2602 -0.2467
 9433W        W25050  10.690   3.718   1.389  0.0234 -0.3242  0.1063
 9434W        W25051   9.110   5.489   2.956 -0.2627 -0.0034  0.1195
 9435W        W25052  16.600   3.481   4.601 -0.1139  0.0607  0.0415
 9436W        W25053  12.050   4.034  15.843  0.0186 -0.0242  0.1296
 9437W        W25054  15.762  10.354  13.230 -0.0250 -0.1995 -0.0719
 9438W        W25055  10.526  12.436   3.986  0.1378  0.0192  0.1942
 9439W        W25056   2.376  13.551  16.460  0.4048  0.2636 -0.4074
 9440W        W25057  15.336  14.200  15.905 -0.2379 -0.1741 -0.2664
 9441W        W25058   6.361   5.882   0.845  0.0950  0.0223 -0.0969
 9442W        W25059  10.355  16.893  15.105 -0.0919 -0.1090 -0.0957
 9443W        W25060   5.371  12.896   4.527 -0.0052  0.0994 -0.1672
 9444W        W25061   5.168   9.737   0.577 -0.0017  0.3034 -0.1996
 9445W        W25062  15.799   8.121   1.684  0.1245 -0.0605  0.0141
 9446W        W25063  15.554   5.405   5.129  0.0862  0.2288  0.2745
 9447W        W25064  14.833   6.241  15.488  0.2391  0.0453  0.1021
 9448W        W25065  14.649  16.314  11.668  0.1228  0.0718  0.0848
 9449W        W25066  15.001  11.632   2.936 -0.1336  0.0109 -0.0026
 9450W        W25067   0.329  10.782   3.407  0.1030 -0.0427 -0.0499
 9451W        W25068   9.296   5.103   0.316  0.0905 -0.1441 -0.2786
 9452W        W25069   6.412  14.158   1.164 -0.1274 -0.1071  0.1351
 9453W        W25070   8.037   7.278  12.295 -0.1503  0.1823  0.0627
 9454W        W25071   4.327   5.962  13.842 -0.1389 -0.3570 -0.1904
 9455W        W25072  17.152  12.750   2.161  0.0647  0.1548  0.2581
 9456W        W25073   4.889  10.400   1.917  0.1439 -0.0382 -0.0913
 9457W        W25074   5.284   6.889  14.536 -0.1457 -0.2186  0.3572
 9458W        W25075   2.678  17.690   1.996 -0.1410 -0.1684  0.2421
 9459W        W25076  11.261  15.668  11.787  0.0934  0.2625  0.1055
 9460W        W25077  16.891  17.873  13.917  0.1146  0.1069 -0.0593
 9461W        W25078   8.766   4.827  16.795 -0.5031 -0.0415  0.0139
 9462W        W25079   7.119  17.822   2.604  0.3267  0.1317  0.1469
 9463W        W25080   9.093  17.530  16.782 -0.0334  0.0524 -0.4860
 9464W        W25081   3.868   4.669   4.353 -0.2228  0.1565  0.2401
 9465W        W25082  11.682  11.590  14.381 -0.0159  0.0971  0.3772
 9466W        W25083   2.497  12.036  13.907 -0.2221 -0.1196  0.2535
 9467W        W25084  11.261  14.728  12.172  0.2462  0.2572  0.3400
 9468W        W25085   6.710   7.605   3.546 -0.1895  0.1350  0.2318
 9469W        W25086   6.816   2.776  14.665 -0.1167  0.1317  0.1474
 9470W        W25087   0.577   2.932   2.608 -0.0778 -0.3454 -0.4447
 9471W        W25088  16.059   0.849   3.065  0.1105  0.0767 -0.1466
 9472W        W25089  12.781  17.335   4.181 -0.2223 -0.1213  0.1673
 9473W        W25090  10.332  15.754  16.673  0.2722 -0.0091 -0.0506
 9474W        W25091  15.890  16.111   4.802  0.0214  0.0952  0.0013
 9475W        W25092  16.747  12.372   1.159 -0.0489 -0.4701 -0.1378
 9476W        W25093   9.663   4.896  12.389 -0.1737 -0.1323  0.0471
 9477W        W25094   3.981   2.413   3.990  0.1037 -0.1464 -0.1360
 9478W        W25095   4.255   1.779  15.552  0.1335 -0.0134 -0.1929
 9479W        W25096  17.999   3.917  12.741  0.3812  0.0052  0.2364
 9480W        W25097  11.123  17.536   1.457 -0.3393 -0.0130  0.1171
 9481W        W25098   0.730   5.645  13.674  0.0901 -0.0181 -0.0722
 9482W        W25099   1.419   0.478  15.686 -0.0402 -0.2196 -0.2923
 9483W        W25100  11.322   2.007  16.339 -0.0580 -0.2171  0.1395
 9484W        W25101  11.028  17.019   2.321  0.1735 -0.0469 -0.2268
 9485W        W25102  12.665   1.902   3.000 -0.1701 -0.2982 -0.2326
 9486W        W25103  12.135  10.301   5.754  0.0151  0.1862 -0.0882
 9487W        W25104   7.049   1.285  14.666 -0.0915 -0.0662  0.0427
 9488W        W25105   7.895   9.188   5.369  0.1899  0.2936 -0.3762
 9489W        W25106   7.554  11.155  15.600  0.2385  0.1809 -0.0852
 9490W        W25107   4.907   2.838   4.144 -0.5895 -0.1000 -0.1853
 9491W        W25108   8.559  12.041   5.506  0.0977  0.0076  0.0844
 9492W        W25109   9.273  12.326   2.405 -0.3465 -0.0647 -0.1244
 9493W        W25110  13.649   1.492   3.360 -0.2563 -0.1747  0.3304
 9494W        W25111  14.755   8.674  12.951  0.1058 -0.0491  0.3637
 9495W        W25112   7.245   8.977  13.707  0.3316  0.0725 -0.1561
 9496W        W25113  10.642  10.245  13.852  0.3029  0.0716 -0.0432
 9497W        W25114  10.239   9.066  16.249  0.0128 -0.0050 -0.0785
 9498W        W25115   3.775  11.587   1.176 -0.0791 -0.0420 -0.1445
 9499W        W25116  15.583   2.400   1.163 -0.2162 -0.0418  0.1066
 9500W        W25117  11.754  15.796   2.996  0.1371  0.1863  0.1173
 9501W        W25118   7.409   1.500   2.025  0.0156  0.1449 -0.2257
 9502W        W25119   2.723   7.225  14.455  0.0300  0.0110 -0.0600
 9503W        W25120  12.040  11.741  15.318 -0.0073 -0.1928 -0.0327
 9504W        W25121  14.654  17.505   6.026  0.0601 -0.2333  0.0533
 9505W        W25122   2.740   6.572   4.384  0.3254 -0.2239  0.0088
 9506W        W25123   4.672   7.727  11.709  0.0263 -0.2069  0.3260
 9507W        W25124   7.844   5.591  13.157 -0.1829  0.2842 -0.1047
 9508W        W25125  10.844   1.622   1.615  0.0235  0.1050 -0.0030
 9509W        W25126  16.425   8.268  12.457  0.0711  0.0929 -0.1354
 9510W        W25127  11.481   2.239  13.098 -0.0452  0.2037  0.2934
 9511W        W25128   3.668  14.688   0.422  0.1028 -0.3151 -0.1341
 9512W        W25129  11.283  10.905  11.154  0.0082 -0.1067 -0.1516
 9513W        W25130   0.133   0.068  14.222 -0.0577 -0.4291 -0.0932
 9514W        W25131  16.247  15.526  14.531  0.3720  0.1809  0.1526
 9515W        W25132   3.683   6.268   4.708  0.0971 -0.1814 -0.1295
 9516W        W25133  13.259   1.053   3.343  0.0391  0.0263  0.2720
 9517W        W25134  13.353  14.231  12.422  0.2050  0.1033  0.2476
 9518W        W25135   2.475  16.922  16.281  0.1814  0.1556 -0.0736
 9519W        W25136   1.841   8.979   5.653 -0.1701 -0.1162  0.1440
 9520W        W25137  13.180  10.685  13.334 -0.1055 -0.1000  0.0791
 9521W        W25138  18.029  11.164   4.710 -0.0914 -0.2890 -0.2673
 9522W        W25139  11.230  16.484   0.563  0.0708 -0.0820 -0.2345
 9523W        W25140   9.765  15.953   2.626 -0.1374  0.0508  0.1017
 9524W        W25141   1.870   7.677  15.978  0.2501  0.0951  0.1506
 9525W        W25142   1.357  13.592   0.220 -0.1151 -0.4958 -0.1798
 9526W        W25143   1.228  17.556  12.811 -0.0926  0.0267 -0.3083
 9527W        W25144   7.602  14.957  16.076 -0.0635 -0.2582 -0.0460
 9528W        W25145   1.335  10.407  15.639  0.0209  0.0251 -0.2520
 9529W        W25146   3.634  15.193   2.541 -0.2915  0.0279 -0.0758
 9530W        W25147   5.759   8.768  11.923 -0.2843 -0.0570 -0.1387
 9531W        W25148   2.800   3.527   2.532 -0.1524 -0.1125 -0.2219
 9532W        W25149  16.243  17.449   3.484  0.1832 -0.1180  0.2791
 9533W        W25150   0.824   8.910   4.087 -0.3951 -0.0563 -0.0043
 9534W        W25151   5.685   7.038   5.808  0.2327  0.1309  0.1576
 9535W        W25152   3.650   2.273  14.000 -0.1847  0.1361 -0.0355
 9536W        W25153  10.896  13.273   4.602 -0.0706  0.0323 -0.0483
 9537W        W25154   6.335   2.889   2.348  0.1456  0.3174 -0.1831
 9538W        W25155   1.174   0.483   2.313 -0.0521  0.1559  0.0954
 9539W        W25156   8.345  10.428  12.220  0.0567 -0.2953 -0.2383
 9540W        W25157  12.878  15.605   1.819  0.0896 -0.2657 -0.2279
 9541W        W25158   7.768  13.443   5.123  0.2549 -0.0803 -0.1339
 9542W        W25159   1.480  12.868   0.967  0.3222 -0.0274 -0.0772
 9543W        W25160  10.485  10.677   0.156  0.0548 -0.0273 -0.2497
 9544W        W25161  12.934  11.129   1.757 -0.1788  0.2777  0.0200
 9545W        W25162  15.186  13.155   6.181 -0.0415  0.2212  0.1885
 9546W        W25163   3.360  18.015  12.725 -0.1653  0.0133 -0.1542
 9547W        W25164   2.187   8.253  14.099  0.0624  0.1311 -0.0713
 9548W        W25165   9.059   0.766   5.701  0.0066 -0.2888 -0.0239
 9549W        W25166   9.977   3.620  15.609  0.1530  0.0810 -0.0470
 9550W        W25167  15.416   4.626  15.120 -0.2046 -0.0619  0.1403
 9551W        W25168  13.998  15.814   4.400 -0.1822 -0.1295 -0.1473
 9552W        W25169  15.468   1.118  12.021  0.0991 -0.1974 -0.2232
 9553W        W25170   1.362   2.328  13.818  0.1003 -0.0559  0.0717
 9554W        W25171   2.435   5.582  15.949  0.1232  0.0063  0.0508
 9555W        W25172   3.753  13.576   5.192 -0.2111  0.0166  0.1059
 9556W        W25173   9.815  14.481  13.846  0.2737 -0.0674  0.1223
 9557W        W25174  11.076  10.074   2.324 -0.0121  0.2548 -0.0355
 9558W        W25175   0.879  17.861  14.760  0.3224 -0.0096  0.2511
 9559W        W25176  15.760   7.995   5.514 -0.0088  0.5416 -0.2426
 9560W        W25177   5.772  17.888  11.918  0.0853 -0.0982 -0.0174
 9561W        W25178   6.312  14.866   3.334  0.2065  0.4372 -0.0749
 9562W        W25179   7.212   9.753   1.109  0.1744  0.0131 -0.1220
 9563W        W25180  12.011   8.561  14.695 -0.0858  0.0671  0.1170
 9564W        W25181  17.222   1.681   0.057  0.1282 -0.1059  0.1781
 9565W        W25182   5.236   6.492   5.139  0.1406 -0.1599  0.2150
 9566W        W25183   2.162  11.872  12.144  0.0860 -0.1260 -0.3155
 9567W        W25184   1.159   7.184  16.719 -0.0423 -0.2692 -0.2606
 9568W        W25185   8.023   8.289   5.479 -0.1138 -0.2250  0.0643
 9569W        W25186  15.367  16.862  14.629 -0.1595  0.0255 -0.0102
 9570W        W25187   4.534   5.242   1.043  0.1392  0.1994  0.1329
 9571W        W25188   2.004   4.134   1.808 -0.0576 -0.1347 -0.2529
 9572W        W25189   4.860  11.693   5.016  0.0374 -0.1007 -0.3982
 9573W        W25190   8.025  15.673  13.016  0.0069 -0.1058 -0.3118
 9574W        W25191   8.765   8.924   5.215  0.0061 -0.3186 -0.1561
 9575W        W25192   5.652   8.979  15.708 -0.2817  0.1642  0.2609
 9576W        W25193   8.577   3.100  14.183  0.3104  0.2037 -0.1442
 9577W        W25194  15.914  15.750  14.840 -0.0354  0.0328 -0.0421
 9578W        W25195   5.842   9.823  15.503  0.0513 -0.1935  0.2036
 9579W        W25196  16.837   9.412   2.540 -0.2288 -0.2012  0.1876
 9580W        W25197  15.151  10.311  12.502 -0.3087 -0.3166  0.0425
 9581W        W25198   2.393  17.433  16.479  0.0817 -0.0493  0.0693
 9582W        W25199   5.004  16.399   2.759 -0.1838  0.0040  0.1313
 9583W        W25200  12.414   8.302  14.582 -0.2016 -0.0949 -0.1526
 9584W        W25201   2.345  15.688   6.394  0.0832  0.0478  0.1836
 9585W        W25202   1.866   0.513  12.457 -0.0280  0.4125  0.3513
 9586W        W25203   4.446   6.148   4.088  0.3522  0.0609  0.0947
 9587W        W25204   5.676   3.649  15.657  0.0965  0.0339 -0.0112
 9588W        W25205   8.204   8.712   0.851 -0.0006  0.0222  0.1491
 9589W        W25206  14.208   9.811   0.866 -0.1253  0.1072  0.0733
 9590W        W25207   2.409   4.055  11.733 -0.0481  0.1302 -0.0569
 9591W        W25208   0.837  12.013  12.668  0.0204  0.1791 -0.1660
 9592W        W25209   4.608  16.194   3.037 -0.2320 -0.1023  0.3137
 9593W        W25210   8.208   6.714  12.077  0.1500 -0.0875 -0.3329
 9594W        W25211   4.713  11.454   3.757  0.0278  0.0268  0.2422
 9595W        W25212  15.018   7.953   2.284  0.1531 -0.0624  0.0079
 9596W        W25213   5.681   7.589  13.289 -0.3095 -0.1050  0.1736
 9597W        W25214  16.166   4.058   0.203  0.1238  0.0614  0.0488
 9598W        W25215   8.725  15.247  11.461 -0.1464 -0.1662  0.2369
 9599W        W25216   0.409   7.378   5.023  0.4524  0.4831 -0.0217
 9600W        W25217   5.084   4.650  13.915  0.0565 -0.2097  0.2272
 9601W        W25218   6.297   3.281  15.215  0.1066 -0.1959  0.3868
 9602W        W25219   4.569  11.872   1.192 -0.1915 -0.1128 -0.1093
 9603W        W25220  17.825  10.216   1.357 -0.0661 -0.1409 -0.1121
 9604W        W25221  16.047  13.159   3.262  0.0123  0.0330 -0.0447
 9605W        W25222  16.584   0.892   2.994  0.0131  0.1504 -0.2266
 9606W        W25223   8.941   9.937  14.024  0.0997  0.1207 -0.2242
 9607W        W25224   7.313   3.276  15.035  0.0271 -0.2558  0.1619
 9608W        W25225   3.054  14.566   2.856  0.0803  0.3623  0.2483
 9609W        W25226   1.016   6.649  14.473 -0.1640  0.2126 -0.0501
 9610W        W25227   4.990   7.289  13.307  0.2369 -0.1593 -0.1575
 9611W        W25228   5.558   2.674   4.767 -0.0261  0.1535  0.1050
 9612W        W25229  15.432  13.960   0.971  0.3178 -0.1389 -0.1631
 9613W        W25230  16.069   7.336   5.379  0.1097 -0.0373 -0.1008
 9614W        W25231  17.018  15.984   5.499 -0.0433 -0.1907 -0.1222
 9615W        W25232   4.405  15.041  16.801  0.1795  0.2205 -0.2494
 9616W        W25233  18.010   4.359   0.471  0.0526  0.0486  0.0147
 9617W        W25234  17.606  11.196   6.035  0.0547  0.1731 -0.1943
 9618W        W25235   3.366   0.236   2.756 -0.3443 -0.0370  0.0671
 9619W        W25236   1.584  10.084  12.101 -0.1847 -0.0671 -0.3850
 9620W        W25237   3.249  16.182   4.489  0.1261  0.2054 -0.0768
 9621W        W25238   1.607   6.688   3.373 -0.0527  0.0288 -0.0183
 9622W        W25239  15.630  15.218   5.300 -0.1299  0.2256  0.2053
 9623W        W25240  11.291   9.134  11.391 -0.1023 -0.2391 -0.1066
 9624W        W25241   6.555  17.013   4.537  0.2443 -0.3013  0.1737
 9625W        W25242   5.951   9.199  11.822  0.2003  0.1433  0.2040
 9626W        W25243  13.784   7.166  15.426 -0.0610 -0.0642 -0.1228
 9627W        W25244  15.630   2.245   3.255 -0.2275 -0.5265  0.0025
 9628W        W25245  10.809   5.919   1.213 -0.1674 -0.0090 -0.0568
 9629W        W25246   3.336  17.087  12.912  0.0318  0.5537 -0.1522
 9630W        W25247  13.161   9.581   2.156 -0.2051  0.1376 -0.0473
 9631W        W25248  10.763  15.400  15.670  0.1951  0.3788 -0.0112
 9632W        W25249  15.779   5.127  13.020 -0.2276 -0.1535  0.0458
 9633W        W25250   3.442   9.912  14.060 -0.1309  0.1346 -0.1318
 9634W        W25251  13.693   3.895  12.835 -0.4905  0.0049  0.0876
 9635W        W25252  16.222  15.074  13.603  0.0992 -0.0023 -0.2900
 9636W        W25253   8.941   8.342   3.622 -0.2148  0.0455  0.2583
 9637W        W25254   6.917   7.189   4.158  0.1978  0.0340 -0.0499
 9638W        W25255  11.659  14.840  13.288 -0.0233  0.3588  0.1771
 9639W        W25256  12.005   6.763  16.418  0.0456  0.3207  0.1320
 9640W        W25257   4.900   9.902   1.392  0.1132 -0.3269  0.3392
 9641W        W25258   4.276   9.805   4.727  0.0131 -0.1995 -0.0781
 9642W        W25259   6.825  16.378  15.859 -0.0795  0.0104  0.0960
 9643W        W25260   4.861   7.836  13.208 -0.0407  0.6042  0.1028
 9644W        W25261  15.253   8.356  14.634  0.2448 -0.1829  0.0813
 9645W        W25262   4.566   3.110   4.514  0.1570  0.0275 -0.0496
 9646W        W25263  13.038   0.889   0.436  0.0615 -0.4290  0.2385
 9647W        W25264   0.774   7.246  16.394 -0.0212 -0.0959 -0.2258
 9648W        W25265  14.811  13.167   4.795 -0.1417  0.0610  0.3016
 9649W        W25266   0.930  15.197   3.151  0.1718  0.0778 -0.2751
 9650W        W25267   9.860   0.182  12.979 -0.0127  0.1382 -0.3558
 9651W        W25268   4.255  16.964   2.828 -0.0418  0.0908  0.0378
 9652W        W25269   8.562   5.720  12.024 -0.0991 -0.1481 -0.0913
 9653W        W25270  15.065   0.225   5.918 -0.0245  0.3948 -0.1220
 9654W        W25271   2.027   2.252   5.075  0.1758 -0.2868  0.0979
 9655W        W25272   5.036  16.240   5.701  0.1745  0.4707  0.1968
 9656W        W25273  13.713  16.937   4.840  0.1800 -0.1197  0.0776
 9657W        W25274   7.551  15.898   5.295 -0.0610  0.0703 -0.2446
 9658W        W25275   9.017   4.575   3.379  0.4588 -0.0339 -0.0847
 9659W        W25276  10.348   8.313   6.152  0.0556 -0.1616 -0.1220
 9660W        W25277  14.661  10.015   5.505  0.2827  0.1693  0.1964
 9661W        W25278   3.879  10.368  16.153  0.0185 -0.1365 -0.2478
 9662W        W25279   1.547   1.921   6.005 -0.3867  0.0019  0.2565
 9663W        W25280  12.846   0.415  12.989  0.2762  0.0066 -0.3044
 9664W        W25281   6.801  12.804  16.084 -0.0945  0.3552 -0.2997
 9665W        W25282   5.924   2.900   0.078 -0.1835 -0.1452 -0.0736
 9666W        W25283   7.302  16.707   3.259  0.0641  0.1757 -0.1828
 9667W        W25284  17.807  13.709   0.410  0.2404  0.1916  0.0384
 9668W        W25285  14.369  12.775   3.499  0.0339  0.1272 -0.0680
 9669W        W25286   5.763  12.635  15.292 -0.0041  0.0156 -0.2775
 9670W        W25287   2.158  16.028   5.387  0.4031  0.1217 -0.2748
 9671W        W25288  10.940   6.549  12.087  0.4596 -0.1128  0.2626
 9672W        W25289   2.979   4.149   2.769 -0.0399  0.0323  0.1454
 9673W        W25290   1.550   5.389  14.979  0.3547 -0.1277 -0.2818
 9674W        W25291  14.980  17.948   1.958  0.2005 -0.4366  0.0076
 9675W        W25292   3.674  11.935   3.651  0.4172  0.0308  0.1292
 9676W        W25293   8.879   0.216  13.938  0.0113  0.0916 -0.1076
 9677W        W25294   2.967   5.959  14.255  0.2133  0.1752  0.2000
 9678W        W25295  11.040   4.442   1.975 -0.1157 -0.0335  0.1914
 9679W        W25296   6.978   8.266  14.137  0.0325 -0.0714 -0.2351
 9680W        W25297   7.732  14.359   1.800  0.0660 -0.0447 -0.2713
 9681W        W25298  12.764   6.885  15.574 -0.2228  0.3448 -0.1084
 9682W        W25299   1.390   0.273  11.467  0.0781 -0.1515 -0.0043
 9683W        W25300  16.288  10.579   0.299  0.3342  0.0441  0.0295
 9684W        W25301   3.919   3.188   3.448  0.2496  0.3928 -0.0743
 9685W        W25302   7.499  14.165  14.102 -0.1855 -0.0573 -0.1080
 9686W        W25303   3.776   0.611   2.771 -0.0325 -0.1620  0.0738
 9687W        W25304   8.846  14.455  16.493 -0.1885 -0.2267  0.0811
 9688W        W25305  10.141   7.230  16.289 -0.0888 -0.1692 -0.2738
 9689W        W25306  15.424   7.896   3.916  0.1861 -0.4118 -0.0232
 9690W        W25307   3.435  15.824   4.215 -0.0351  0.1961 -0.0972
 9691W        W25308  11.146   9.209   5.078  0.0078 -0.0792  0.0799
 9692W        W25309   3.922  13.045   3.483  0.0309  0.0367  0.0002
 9693W        W25310  15.188  10.035  16.662  0.3249 -0.2187 -0.1203
 9694W        W25311   9.791   4.141   2.543 -0.0952  0.1628 -0.0170
 9695W        W25312  12.616   2.877  15.502  0.4527  0.1904  0.0651
 9696W        W25313  14.540   9.565   2.137  0.0626 -0.2696  0.0661
 9697W        W25314  14.942   4.159  13.131  0.0194  0.1221 -0.0429
 9698W        W25315   9.245  11.387  15.804 -0.0188 -0.0787  0.0389
 9699W        W25316   1.494  13.802   3.014 -0.0075 -0.0483  0.0534
 9700W        W25317  12.933  12.230  12.532 -0.1408 -0.0573  0.1218
 9701W        W25318  11.777   5.843   3.529  0.0311  0.0683  0.2915
 9702W        W25319   2.397   5.357  16.734 -0.3767  0.0566 -0.1813
 9703W        W25320  14.043   2.216   5.510  0.0946  0.0421 -0.1225
 9704W        W25321  17.183   9.114  14.798  0.1548  0.4430  0.1189
 9705W        W25322   2.752   2.955   5.593 -0.5924 -0.0541  0.1132
 9706W        W25323   6.286   5.619   2.129  0.3906 -0.0640 -0.1317
 9707W        W25324  11.504  13.219  15.774  0.1205 -0.2591  0.0442
 9708W        W25325  12.759  11.246  14.319  0.1457 -0.0838 -0.0908
 9709W        W25326  15.208   6.169   3.985  0.1761 -0.0385 -0.1032
 9710W        W25327   1.023   2.610  15.095  0.0548 -0.1810 -0.2318
 9711W        W25328  12.699  14.179  14.243 -0.0374  0.2641 -0.1116
 9712W        W25329  17.268   9.956   6.625  0.0108 -0.2693 -0.0348
 9713W        W25330  16.883  10.612   4.633 -0.3569 -0.0547 -0.0333
 9714W        W25331   0.342  10.542   2.067 -0.1695 -0.3703 -0.0620
 9715W        W25332   0.630   7.119  14.415  0.0072  0.3073  0.0432
 9716W        W25333   1.551   0.873  10.668  0.0319 -0.2803 -0.1449
 9717W        W25334  16.404  12.436   3.150  0.2903  0.0604 -0.1722
 9718W        W25335   0.424   2.792  15.580  0.1088  0.0712  0.0245
 9719W        W25336  12.152  15.248   5.021 -0.1879 -0.1011 -0.2792
 9720W        W25337   7.908  10.299  11.993 -0.0173  0.0221  0.2176
 9721W        W25338   2.257   2.661   3.396 -0.1230 -0.1102 -0.0254
 9722W        W25339  11.663   4.928   3.807  0.0864  0.1052 -0.2269
 9723W        W25340  11.496  14.216  11.044  0.2095  0.0355 -0.1270
 9724W        W25341  15.795   9.531  14.512  0.1225 -0.0606  0.2017
 9725W        W25342  16.682  10.581  16.201 -0.3605  0.0893  0.0786
 9726W        W25343   2.118  17.216   1.253 -0.0669  0.3850  0.1138
 9727W        W25344  11.270   6.217   0.551 -0.0250 -0.3028  0.1832
 9728W        W25345  16.005   9.455   3.145 -0.0112  0.2445  0.0097
 9729W        W25346  16.760  16.985  13.341  0.1161 -0.1267  0.0443
 9730W        W25347  15.620   0.642   3.091 -0.0321  0.3062 -0.0456
 9731W        W25348   9.001   1.979   3.855 -0.0142  0.1849  0.3951
 9732W        W25349   7.468   9.512  13.435  0.2447 -0.2720  0.1217
 9733W        W25350   9.528   7.554  10.576 -0.1537  0.0835 -0.0569
 9734W        W25351  13.509  16.202   1.454  0.2739 -0.1436  0.1149
 9735W        W25352   0.175   4.978  15.536  0.1550 -0.2514  0.1839
 9736W        W25353  12.917   4.858   3.737 -0.0782  0.0097  0.0275
 9737W        W25354   9.356   6.256   3.651  0.2648 -0.3407  0.0933
 9738W        W25355   8.990   4.252   0.831  0.2551 -0.1921 -0.0813
 9739W        W25356   4.095   1.860  12.691  0.0097 -0.2118 -0.4284
 9740W        W25357   4.760  15.035  11.857  0.2107 -0.0445 -0.2557
 9741W        W25358  15.893   0.234   5.321  0.2470 -0.2271 -0.0977
 9742W        W25359  10.073   5.609  15.065  0.4883  0.2126 -0.2312
 9743W        W25360   8.892   2.396  15.287 -0.2419 -0.0864 -0.2426
 9744W        W25361   9.210   0.352   5.861 -0.0302 -0.0203  0.0164
 9745W        W25362  15.611  10.397  15.486 -0.1620 -0.2256  0.0842
 9746W        W25363  17.288   1.481  14.550  0.2074 -0.0986 -0.4226
 9747W        W25364   3.217   5.222  12.050  0.2197 -0.2169  0.1595
 9748W        W25365  16.754  10.392   2.689 -0.3337  0.1255 -0.3918
 9749W        W25366   6.788  14.687  15.692 -0.1707 -0.1126 -0.2116
 9750W        W25367  16.502   7.491  13.161 -0.1630 -0.0631 -0.0165
 9751W        W25368  14.127  12.121   0.879 -0.0448 -0.2733 -0.1707
 9752W        W25369   8.806   4.497   4.011  0.3565  0.0544  0.0911
 9753W        W25370  17.804  12.050   4.962 -0.0308 -0.0085  0.0902
 9754W        W25371  10.189   8.187  16.144 -0.0874  0.0010  0.1905
 9755W        W25372   8.920  14.031   5.257 -0.0274  0.1172  0.1382
 9756W        W25373  12.625  13.753   1.160  0.0089  0.2933  0.0345
 9757W        W25374  16.030   2.328   2.040 -0.1931  0.0268 -0.0867
 9758W        W25375   8.885  15.129   3.153  0.2763  0.0625 -0.1649
 9759W        W25376   5.889   9.397   5.201 -0.1719 -0.0808  0.2021
 9760W        W25377   8.829   2.875   0.375 -0.1064 -0.2058  0.0064
 9761W        W25378   9.494  13.576   2.474  0.2544 -0.0709 -0.1746
 9762W        W25379   1.116   9.440   5.356  0.0009  0.0315  0.0036
 9763W        W25380  14.206  11.633   1.549  0.1078  0.1806 -0.0646
 9764W        W25381   0.164   7.027  12.285  0.1652 -0.5577 -0.0529
 9765W        W25382   2.049  16.447  12.251  0.3045  0.1621  0.0461
 9766W        W25383   5.710   6.403   5.853 -0.1774  0.0045 -0.0455
 9767W        W25384   4.341   9.727   5.979 -0.1147 -0.3749  0.2062
 9768W        W25385   3.006  15.118  15.784  0.0264  0.1331  0.0410
 9769W        W25386  12.644   9.636   3.831  0.0831  0.0577 -0.0726
 9770W        W25387   6.042  12.730  12.044 -0.6015  0.2963  0.0039
 9771W        W25388  11.071   7.017  14.832  0.0084  0.2023 -0.1274
 9772W        W25389   0.853  15.156  13.568  0.5478 -0.2065 -0.0470
 9773W        W25390   8.069  18.032  11.249 -0.0307  0.0713  0.0163
 9774W        W25391  13.217   7.007   3.396  0.0569 -0.0042  0.1230
 9775W        W25392  14.978   7.991  15.714  0.0963 -0.1197 -0.1819
 9776W        W25393  15.840   4.458  11.489 -0.0234  0.1027 -0.0180
 9777W        W25394   8.457   5.538   0.982 -0.0445  0.0442  0.0714
 9778W        W25395   5.359   8.241  11.306  0.3128  0.0607  0.1929
 9779W        W25396   1.640  17.370  13.090 -0.1986 -0.0814 -0.0953
 9780W        W25397   1.092   6.888   5.619  0.1684 -0.0224 -0.2560
 9781W        W25398  10.562   7.841   5.336  0.3876  0.1142 -0.0030
 9782W        W25399   7.803  14.864   4.632  0.0658 -0.2243  0.2841
 9783W        W25400   1.430   0.167   3.387 -0.4102  0.1157 -0.2021
 9784W        W25401  14.604   4.514   0.196 -0.0087 -0.0035 -0.2612
 9785W        W25402  10.711  15.523  11.955 -0.2007 -0.0344 -0.4618
 9786W        W25403  14.922  14.521  11.780  0.1097 -0.1802 -0.0277
 9787W        W25404   7.726  14.194  13.449 -0.1744  0.0377  0.1162
 9788W        W25405   8.303   2.301  13.024 -0.1820 -0.1912 -0.0908
 9789W        W25406  10.598   8.475  14.419 -0.2991 -0.3907 -0.1511
 9790W        W25407   2.499  13.442   2.215  0.1122  0.2079 -0.0934
 9791W        W25408  16.314   2.958  16.157 -0.2189  0.0747 -0.3286
 9792W        W25409   8.911  10.268   0.799  0.2280 -0.1549  0.1048
 9793W        W25410   5.545   7.406   1.158 -0.0291 -0.1919  0.1128
 9794W        W25411   7.820   2.588  14.834 -0.1652 -0.0668 -0.1008
 9795W        W25412   0.896   8.045   4.297 -0.3061 -0.1838 -0.1930
 9796W        W25413   5.974  15.029  13.832 -0.0321 -0.1497 -0.0238
 9797W        W25414   8.084   5.756  13.669  0.0169 -0.1733  0.1774
 9798W        W25415   9.934  12.840   4.143  0.2087 -0.1607 -0.0064
 9799W        W25416   9.376   4.139  14.979 -0.1353 -0.3026  0.2737
 9800W        W25417  12.317   1.571  11.978 -0.2646 -0.1555  0.4695
 9801W        W25418  13.895  12.022  12.267  0.1842  0.1610 -0.1624
 9802W        W25419  14.110  17.930  14.037 -0.4662  0.1347  0.0804
 9803W        W25420   5.171   1.067   5.306 -0.1066  0.4356  0.0997
 9804W        W25421  12.169   9.442   0.671 -0.3813  0.2034 -0.0681
 9805W        W25422  11.722   5.158  16.669 -0.0647  0.3023  0.3948
 9806W        W25423   1.143  10.435   3.556  0.0258 -0.0355 -0.1560
 9807W        W25424   5.405  13.800   0.140 -0.0186  0.0476  0.2224
 9808W        W25425   7.145  15.297   4.203  0.2585  0.3318  0.0086
 9809W        W25426  11.496  15.330   4.312 -0.2299  0.2065  0.0369
 9810W        W25427   6.030   9.968   0.489  0.1471 -0.2253  0.3036
 9811W        W25428   3.737  13.592  12.901  0.2697  0.0736 -0.1499
 9812W        W25429   2.498   0.137   0.551  0.2989  0.1135 -0.1654
 9813W        W25430  11.432   2.201  15.733  0.0988 -0.0493  0.3192
 9814W        W25431   5.968  14.811   1.480 -0.0266 -0.2172  0.1121
 9815W        W25432   9.114  11.111  16.705 -0.2057 -0.1530 -0.2113
 9816W        W25433   1.055  10.138   4.956 -0.1274  0.2555  0.1318
 9817W        W25434  15.037   3.984   4.142  0.0646 -0.4854 -0.2045
 9818W        W25435   9.015  15.342   5.078 -0.0665  0.2149 -0.2198
 9819W        W25436  10.965   7.899  13.706 -0.2076  0.0155 -0.1585
 9820W        W25437  12.034   8.619  15.298  0.1437  0.1235 -0.2316
 9821W        W25438  16.374  17.997   5.581  0.1437 -0.2311 -0.0740
 9822W        W25439   4.048   4.274  11.680 -0.0514  0.0393 -0.1319
 9823W        W25440  11.371  15.267  11.378  0.0615 -0.0585 -0.1202
 9824W        W25441  17.942   2.094  16.010 -0.4687  0.1168  0.0184
 9825W        W25442   4.439  12.515  14.992 -0.4249  0.1121  0.0421
 9826W        W25443   1.174  12.475   0.889 -0.3375 -0.0813 -0.1731
 9827W        W25444   1.653   9.671  14.884 -0.0159  0.0519 -0.0354
 9828W        W25445   7.151   5.539   0.792 -0.1894  0.0097  0.0865
 9829W        W25446  11.655   2.480  14.689  0.0210  0.0299  0.1835
 9830W        W25447  16.520  17.697  13.354 -0.0976  0.0867 -0.0932
 9831W        W25448   5.453   0.249   2.552  0.1016 -0.0494 -0.1772
 9832W        W25449  15.648  16.126   2.959 -0.4190 -0.0378 -0.1337
 9833W        W25450   3.351   6.974  11.700  0.2007  0.0292  0.1976
 9834W        W25451   1.628  11.586  12.758  0.2817 -0.2063 -0.1165
 9835W        W25452   8.212   6.249   2.154 -0.1699  0.0830 -0.0673
 9836W        W25453   1.502   0.622   5.351 -0.2788  0.0345  0.2994
 9837W        W25454   2.941   7.676   3.650 -0.4702 -0.1421 -0.2660
 9838W        W25455  10.519  14.593  10.618 -0.0616  0.0302 -0.0915
 9839W        W25456   1.033  16.405   5.512  0.1348 -0.1591  0.0519
 9840W        W25457  15.997  14.480   1.989 -0.0767  0.0835 -0.0700
 9841W        W25458   6.007   2.094   1.234  0.0370 -0.2138 -0.2311
 9842W        W25459  12.425   9.379   2.129  0.0858 -0.2164 -0.0331
 9843W        W25460   4.262  16.426   2.726 -0.0617 -0.1929  0.0250
 9844W        W25461  11.953   7.812   2.387 -0.2877  0.0082  0.0330
 9845W        W25462  10.544   4.778  12.045  0.4861  0.1022  0.2752
 9846W        W25463   8.851   3.690  11.799  0.0644  0.1434 -0.2361
 9847W        W25464   9.978   0.684   1.065  0.1296 -0.0103  0.0706
 9848W        W25465  16.823  17.652   4.677  0.3725 -0.2814  0.2612
 9849W        W25466   9.083   7.982   3.944 -0.2709 -0.3230 -0.0318
 9850W        W25467   5.988  16.409   1.512  0.0919 -0.1321 -0.0789
 9851W        W25468   7.708   3.324   1.147  0.0407  0.2212  0.1198
 9852W        W25469  16.762  10.030   1.586  0.0782  0.2942 -0.1378
 9853W        W25470   7.436  11.586  15.272 -0.2021 -0.0266 -0.2331
 9854W        W25471  14.319   1.875   2.280  0.0784  0.2647  0.0485
 9855W        W25472   0.374  16.089  13.614 -0.1359  0.0293 -0.0845
 9856W        W25473   7.566   9.404   1.730 -0.2741  0.0194  0.1826
 9857W        W25474   8.684   3.803  12.996 -0.2346  0.0790 -0.0617
 9858W        W25475   4.511   5.743  12.121  0.0183 -0.0055  0.1345
 9859W        W25476   1.387   0.944   0.470  0.0730 -0.0699 -0.2917
 9860W        W25477   7.270   4.469  15.120 -0.3524  0.1288 -0.2125
 9861W        W25478   3.028  13.604  15.459 -0.0502  0.1670 -0.0050
 9862W        W25479   0.792  12.622   4.087 -0.4142  0.1775  0.4756
 9863W        W25480   7.313  13.046   2.407 -0.1648  0.1824 -0.0135
 9864W        W25481   0.657   1.407   5.794  0.0646  0.4295 -0.0605
 9865W        W25482   1.424   9.263   5.769 -0.1454 -0.2241  0.2501
 9866W        W25483  11.801   4.553  15.963  0.3389 -0.2337  0.0839
 9867W        W25484   0.600   4.084   2.339 -0.2212  0.0309  0.2216
 9868W        W25485   7.319   8.497  16.507 -0.0132 -0.2056 -0.1694
 9869W        W25486   1.226   3.394   0.118 -0.1742  0.1029 -0.0150
 9870W        W25487  12.993   7.938  13.326  0.1883  0.1817 -0.1450
 9871W        W25488   9.610  16.032   3.144  0.4398 -0.2738  0.1078
 9872W        W25489  12.955   9.392  14.589  0.0673  0.0187  0.3274
 9873W        W25490  14.683  14.868  15.341  0.2840 -0.0862 -0.1110
 9874W        W25491   2.305   2.708   5.447  0.1308 -0.0145  0.2491
 9875W        W25492  14.988  10.774   0.162  0.3919 -0.0783 -0.0350
 9876W        W25493   3.418   0.559   3.122 -0.0354 -0.1020  0.0760
 9877W        W25494   4.245   7.239  16.679 -0.2265 -0.0816  0.2139
 9878W        W25495   8.696   5.815   0.104 -0.2318 -0.1966  0.1105
 9879W        W25496  10.661  17.526   1.127  0.2627  0.4023 -0.1345
 9880W        W25497   2.276   7.940   2.517 -0.2442 -0.0216  0.0694
 9881W        W25498   2.747  11.582   0.960  0.1964  0.0748  0.0321
 9882W        W25499  15.369  10.309  16.262 -0.2358  0.4322 -0.2462
 9883W        W25500   7.324   1.741  16.512 -0.1117 -0.0351  0.0815
 9884W        W25501   4.262   8.150   2.360 -0.1024  0.0629  0.2478
 9885W        W25502   5.040   1.956   3.451  0.0304 -0.2969 -0.1477
 9886W        W25503  16.044   6.521  14.588 -0.2383 -0.0106 -0.3227
 9887W        W25504  12.752   4.503  13.565  0.0471 -0.0587 -0.1234
 9888W        W25505   1.101  14.836   6.261  0.0550 -0.2260 -0.0318
 9889W        W25506   1.012  13.814   0.563  0.1654 -0.0135 -0.0522
 9890W        W25507   6.889  10.388   4.035 -0.3639  0.0606  0.2966
 9891W        W25508   4.267   4.037  15.741  0.1089  0.2842  0.2602
 9892W        W25509   3.762   5.410   4.769 -0.0079  0.0968  0.3387
 9893W        W25510   2.328  16.360   4.865  0.1125 -0.0770  0.0714
 9894W        W25511   9.403  12.733  14.564  0.2228 -0.4240 -0.2047
 9895W        W25512  13.805   7.109   1.728 -0.0572 -0.2136  0.0630
 9896W        W25513   1.430  17.861  13.181  0.0274 -0.0108  0.0442
 9897W        W25514  11.679   5.147  12.489 -0.3670  0.1071  0.0293
 9898W        W25515  15.899   2.953   4.188  0.0061  0.1001 -0.0798
 9899W        W25516   4.913   5.410  16.137 -0.2076  0.0157  0.1211
 9900W        W25517   7.591   9.629   2.560  0.1621 -0.1746 -0.2117
 9901W        W25518   4.355   7.937   0.433  0.0914 -0.0508  0.0592
 9902W        W25519   1.936  12.139   0.102  0.0694  0.0485  0.3607
 9903W        W25520   0.074  15.206  15.547  0.4008  0.0099  0.3033
 9904W        W25521  13.687  11.996   4.175  0.3122  0.4369  0.0754
 9905W        W25522  17.511   0.255  15.959 -0.1408  0.1676 -0.1542
 9906W        W25523   2.217   7.877   4.217  0.1460  0.1401 -0.1110
 9907W        W25524  15.209   6.189   1.690 -0.4410 -0.1629  0.1264
 9908W        W25525   8.354   3.703   0.682 -0.0132  0.0895 -0.1048
 9909W        W25526  16.047   0.213  12.248 -0.0463 -0.0178 -0.0774
 9910W        W25527  10.201  16.790  13.581 -0.2777 -0.1386 -0.2207
 9911W        W25528  13.182   1.243  13.172 -0.0758  0.4095  0.1642
 9912W        W25529   1.396  15.045   1.195  0.1942  0.1595  0.2574
 9913W        W25530   9.952  17.856   5.213  0.3520 -0.1531 -0.0727
 9914W        W25531  11.388   7.621  12.141 -0.0804  0.2404  0.0117
 9915W        W25532   7.432  17.923   0.685 -0.3429  0.2713 -0.1433
 9916W        W25533   5.969  12.221  14.250 -0.0842  0.2787 -0.2952
 9917W        W25534  12.187   3.400   5.368  0.2050  0.0446  0.1921
 9918W        W25535  11.687  11.531   3.918 -0.1301 -0.1427  0.2340
 9919W        W25536  11.021   7.320   3.682 -0.2259 -0.0172 -0.3764
 9920W        W25537   0.290   4.140   3.360 -0.0960 -0.3749  0.5294
 9921W        W25538   6.526  10.019  13.204  0.0744 -0.2464 -0.2412
 9922W        W25539  11.143   8.563   0.575  0.0881  0.0368 -0.0715
 9923W        W25540   8.571   9.344  15.023 -0.2901  0.4430 -0.1273
 9924W        W25541   5.722  15.287   1.682 -0.2028  0.0120 -0.1802
 9925W        W25542  10.252   5.290   4.350 -0.1154  0.0766  0.3659
 9926W        W25543   8.557  10.163   3.234 -0.2755  0.1236 -0.0374
 9927W        W25544   8.577  16.577  11.352 -0.3838 -0.0717 -0.3018
 9928W        W25545  17.485   2.446   4.943 -0.0632  0.1414 -0.1226
 9929W        W25546   7.686  11.853   3.599 -0.0796 -0.0330 -0.1858
 9930W        W25547  11.907   1.421  15.760 -0.3775 -0.1409 -0.0214
 9931W        W25548   7.926   4.446   0.156  0.0743 -0.4613  0.1020
 9932W        W25549   0.357  10.062  11.626 -0.4721 -0.1809  0.0393
 9933W        W25550   6.733  15.456   2.632 -0.3450  0.1236 -0.1394
 9934W        W25551  12.335  13.585  16.683  0.1402  0.0152 -0.0127
 9935W        W25552  17.717   7.896   3.958  0.1290 -0.2106  0.1344
 9936W        W25553  10.917  10.591   1.234  0.1119 -0.0363  0.2617
 9937W        W25554   9.968   1.198  13.093 -0.0923  0.1211  0.0726
 9938W        W25555  17.052   1.370  13.386 -0.0328  0.0886 -0.2208
 9939W        W25556  10.264   6.265   4.396  0.1038  0.1414  0.0766
 9940W        W25557   8.654   1.031  12.861 -0.0282 -0.2110  0.1598
 9941W        W25558   0.990   7.367  12.846 -0.1358  0.1994  0.1985
 9942W        W25559   5.733  10.030   3.077  0.0512 -0.0079 -0.1519
 9943W        W25560   7.160   0.170   1.371 -0.1324  0.0031 -0.0151
 9944W        W25561   7.448  17.440   2.380 -0.0637 -0.1871 -0.0187
 9945W        W25562  15.314   5.471   3.761 -0.1914  0.2567 -0.0994
 9946W        W25563   7.231  14.553   5.318  0.1623 -0.0473 -0.1176
 9947W        W25564   4.542   6.082  15.504 -0.2275  0.0840  0.1372
 9948W        W25565  12.029  17.481  15.533 -0.1328 -0.2605 -0.0925
 9949W        W25566   5.268   0.645  11.656  0.1175 -0.1467  0.2021
 9950W        W25567   1.258   0.635   4.874 -0.0963 -0.0358  0.1174
 9951W        W25568  17.180  10.032  14.493 -0.2094 -0.2948 -0.0302
 9952W        W25569  15.636   4.256  14.325 -0.0245  0.4143 -0.0411
 9953W        W25570   1.667   4.162   5.273 -0.1481  0.1433 -0.1706
 9954W        W25571   0.584   5.698  13.155 -0.2444  0.2096 -0.1528
 9955W        W25572   6.292   2.678  14.658  0.1811 -0.0355 -0.2533
 9956W        W25573  15.179   3.296   6.094  0.0876 -0.1238 -0.0675
 9957W        W25574  13.758  16.146  12.171  0.1346 -0.0515 -0.1662
 9958W        W25575  15.502  14.414   5.816 -0.0591 -0.0849  0.2866
 9959W        W25576  12.692  10.663   2.900 -0.2166  0.4118 -0.1846
 9960W        W25577   3.630  16.300  16.064 -0.0666  0.3593 -0.3005
 9961W        W25578  16.134   5.248   4.129  0.0685 -0.0952 -0.1681
 9962W        W25579  10.341  17.264   0.113 -0.4017  0.0214 -0.0865
 9963W        W25580  17.432   2.752  15.599  0.0939 -0.0063 -0.0118
 9964W        W25581   3.867   6.597  13.190  0.2737 -0.0923 -0.0659
 9965W        W25582   5.952   6.537   0.919  0.0920  0.1577  0.3979
 9966W        W25583   7.801  11.578  13.004 -0.4787 -0.1567  0.2607
 9967W        W25584   6.046  16.016  11.811 -0.2342  0.0532  0.2871
 9968W        W25585   6.354   2.859   4.157 -0.2733 -0.0725  0.0067
 9969W        W25586  16.447  10.555   6.421  0.0588  0.1774  0.3808
 9970W        W25587   9.507   0.824   3.333  0.1135 -0.1794 -0.1209
 9971W        W25588  16.009  10.743  15.177  0.0870  0.1245  0.0384
 9972W        W25589   7.344   8.984  14.179 -0.1489  0.4376  0.1323
 9973W        W25590  11.210  16.792   2.743 -0.1844 -0.0545 -0.0690
 9974W        W25591   6.108   2.806  15.947  0.0917 -0.0427  0.0189
 9975W        W25592  16.789   6.164   3.147  0.1051 -0.2571  0.2727
 9976W        W25593   0.549  13.271  13.031 -0.2271 -0.1236  0.3075
 9977W        W25594   3.428   9.203   1.670 -0.4438 -0.0851 -0.1682
 9978W        W25595   0.796   7.234  12.397  0.1954  0.3405  0.0767
 9979W        W25596  17.246   5.707  12.828 -0.0952  0.1418 -0.0161
 9980W        W25597   1.188   3.023   1.038 -0.1094 -0.0370  0.1890
 9981W        W25598  17.030  12.201   2.560 -0.0045  0.0740 -0.0641
 9982W        W25599  14.279   7.975  15.407  0.0761 -0.1469  0.2324
 9983W        W25600   1.397   3.835   0.774 -0.3959 -0.1223 -0.3611
 9984W        W25601   4.112  17.752   2.556  0.1638 -0.1828 -0.0819
 9985W        W25602   1.289  17.356  12.086 -0.3157  0.1215  0.0057
 9986W        W25603  13.688   9.495  14.064  0.3308  0.0848 -0.0398
 9987W        W25604   4.166   1.365  15.307  0.1998  0.0020 -0.1378
 9988W        W25605  10.408  10.525  16.538 -0.1614 -0.1888 -0.1252
 9989W        W25606  10.696  12.137   0.176  0.0681 -0.1702  0.1838
 9990W        W25607  12.427   8.549  14.991 -0.0412 -0.1455 -0.0218
 9991W        W25608  16.190  10.043  16.792 -0.0200 -0.1286 -0.2093
 9992W        W25609  17.333   6.274  14.142 -0.0910  0.0075 -0.3663
 9993W        W25610  13.813   6.932  16.421  0.0541  0.3443  0.1768
 9994W        W25611  16.056  15.343   3.084  0.1294 -0.0517  0.0828
 9995W        W25612   0.403   7.882   4.253 -0.2926 -0.0020 -0.2939
 9996W        W25613   3.342   3.676  16.078 -0.0465 -0.0733 -0.2452
 9997W        W25614  11.030  10.432   1.689 -0.1386 -0.0560 -0.1720
 9998W        W25615  10.148  11.855  15.627 -0.3517  0.2485  0.1924
 9999W        W25616   5.182  11.689   2.837  0.1688 -0.0301 -0.1092
10000W        W25617   2.698   8.620  11.691 -0.0049 -0.0277 -0.0826
10001W        W25618   8.868   8.709   2.090  0.3275 -0.0727 -0.1531
10002W        W25619   3.249  11.807  13.954  0.1015 -0.1488 -0.0616
10003W        W25620   0.061  15.825  13.001  0.2959  0.3534  0.1060
10004W        W25621   7.227  15.374  13.470 -0.0474 -0.1242  0.0259
10005W        W25622  16.777   5.497   5.872  0.1346 -0.0697 -0.3556
10006W        W25623   2.458  11.560   4.234 -0.2935 -0.1320 -0.2074
10007W        W25624   8.293  15.732   4.100 -0.0688 -0.1116 -0.0985
10008W        W25625   5.613  15.288  12.806  0.1417  0.1194 -0.0932
10009W        W25626   8.792  13.748   1.390 -0.0516  0.3277  0.0682
10010W        W25627   2.634  16.878   2.012 -0.1801 -0.0195  0.0405
10011W        W25628   6.158   5.003  15.746  0.1988  0.3291 -0.0010
10012W        W25629   5.640  13.808  11.456 -0.0098 -0.0477  0.1396
10013W        W25630   5.243   8.579  14.153 -0.0204 -0.1776  0.0479
10014W        W25631  12.555  11.162   2.116  0.3143 -0.0422 -0.3375
10015W        W25632   1.303   3.856  12.138  0.0924  0.1612  0.1059
10016W        W25633  14.270   2.183   5.035  0.2294  0.0250  0.2219
10017W        W25634   9.179  12.210   5.038 -0.4233  0.2410  0.2637
10018W        W25635   7.709   4.251   0.620  0.4044  0.1159  0.2986
10019W        W25636  17.664   5.784  14.220 -0.1159  0.5698  0.1895
10020W        W25637   8.356   0.691   3.092 -0.3395 -0.3381  0.2388
10021W        W25638  12.044  13.980   4.952 -0.1075 -0.0006  0.2784
10022W        W25639   1.867   5.745   2.923 -0.2018 -0.1335  0.2067
10023W        W25640   3.771  14.126  14.160 -0.2968  0.2640  0.0604
10024W        W25641   3.073   3.758  14.054  0.2678 -0.0066 -0.3645
10025W        W25642  17.806  13.821   2.544  0.0798 -0.4188 -0.0175
10026W        W25643   9.909   9.079   2.017 -0.3815 -0.0546 -0.0761
10027W        W25644   6.857   1.014  13.074 -0.3227  0.2666  0.2222
10028W        W25645  13.462  13.783  13.541 -0.1767 -0.0411 -0.3380
10029W        W25646  10.544   1.534   6.634 -0.2181 -0.2614 -0.1586
10030W        W25647   9.394   1.583   5.344  0.0714 -0.0010 -0.1704
10031W        W25648   4.171   3.255   0.835 -0.0155 -0.1993 -0.1150
10032W        W25649   9.455  13.879  11.324  0.3207 -0.0660 -0.2410
10033W        W25650  13.604   5.724   0.920 -0.1818 -0.3062 -0.0057
10034W        W25651  17.557  12.128   1.686 -0.0794 -0.0845  0.4477
10035W        W25652  15.386  11.920  13.307 -0.0467 -0.3035 -0.1663
10036W        W25653   1.425   5.734  15.598 -0.1758 -0.1273  0.2366
10037W        W25654   0.786   3.448   5.880 -0.0475 -0.1336  0.1313
10038W        W25655   9.867   1.907   5.283  0.4063  0.0173 -0.1271
10039W        W25656   0.604   6.854   1.543  0.0124  0.1422  0.2363
10040W        W25657  16.158  17.148  14.203 -0.0410  0.2595  0.3818
10041W        W25658  16.534  16.106   1.900  0.1195 -0.0432  0.1324
10042W        W25659  14.238   9.556   1.724  0.2115  0.2214  0.1290
10043W        W25660  12.700  13.173  14.572 -0.0213  0.1205 -0.0324
10044W        W25661   6.297   5.947  16.247 -0.0249 -0.0131  0.0618
10045W        W25662  13.410  14.795   0.747  0.1856  0.0903  0.0461
10046W        W25663   0.178   8.127   1.985  0.1154 -0.2963  0.0732
10047W        W25664   8.841   2.284   1.327  0.0676  0.1746 -0.1370
10048W        W25665  15.043   2.094   0.344 -0.1166 -0.0392 -0.0803
10049W        W25666   4.597  10.902  11.842 -0.2445  0.1681 -0.1461
10050W        W25667  15.681   1.821  16.318 -0.1420 -0.0040  0.0353
10051W        W25668   7.198   6.843   1.456 -0.4547 -0.0087 -0.0019
10052W        W25669   3.600  16.384  14.966 -0.1855 -0.1146 -0.1507
10053W        W25670   0.796   2.187   0.704  0.0034  0.0252  0.3822
10054W        W25671  10.533   9.460  16.183 -0.0202  0.2439 -0.1581
10055W        W25672   9.914  13.262  11.739  0.4550 -0.0460 -0.0958
10056W        W25673  15.170   3.314  13.246 -0.2164  0.0335 -0.0699
10057W        W25674  15.568  15.929  14.190 -0.2462 -0.0824 -0.0878
10058W        W25675   3.991   3.877   4.478  0.2436 -0.2676 -0.0885
10059W        W25676  14.834   5.355   3.644 -0.0401 -0.2767  0.1296
10060W        W25677   8.232  13.039   2.123 -0.1489  0.0679  0.1362
10061W        W25678   0.442   0.002  12.172  0.1181 -0.1534 -0.2526
10062W        W25679   1.103   1.861   1.906 -0.0896  0.0054  0.1175
10063W        W25680  14.881   8.203   5.513  0.4185 -0.1526 -0.2615
10064W        W25681   9.537   9.267  14.248 -0.1154  0.0356 -0.0445
10065W        W25682  13.828   2.345  16.617 -0.0976  0.0108  0.0818
10066W        W25683   4.048  15.467  15.850  0.0522  0.1163  0.0170
10067W        W25684  17.135   0.113   5.560 -0.1300 -0.0834 -0.1178
10068W        W25685  13.244  16.585  12.761 -0.0602 -0.0908  0.1051
10069W        W25686   9.052  12.788  14.175  0.0409 -0.0727 -0.0808
10070W        W25687   4.041  10.927  15.365  0.0547 -0.0908 -0.1266
10071W        W25688  16.205   0.986   2.542 -0.0650 -0.1767 -0.2994
10072W        W25689   7.074   3.279   3.132 -0.4804  0.0124 -0.0091
10073W        W25690  16.212   1.144   5.578  0.2306  0.2171  0.2815
10074W        W25691  10.451   1.365   0.736 -0.0281 -0.0421 -0.0453
10075W        W25692  14.283  13.305  11.967 -0.1307 -0.3284 -0.4310
10076W        W25693   1.862   3.424   5.772  0.0752  0.0175 -0.0858
10077W        W25694  10.903   1.924  15.006 -0.1028 -0.3645 -0.0326
10078W        W25695   4.514   2.011  13.680  0.1116 -0.2836  0.3022
10079W        W25696  10.364   3.107   4.760  0.0278  0.0665  0.0198
10080W        W25697   8.542  13.361   0.298 -0.1693 -0.2145  0.0421
10081W        W25698  16.873   0.794  15.357 -0.0311  0.2851  0.1793
10082W        W25699  13.258   9.494  16.744 -0.0172  0.0378  0.1455
10083W        W25700   1.929   1.387  12.857 -0.1017 -0.1194 -0.3164
10084W        W25701  17.650  10.345   2.300  0.4923  0.0701 -0.2666
10085W        W25702  14.940  15.956  16.174 -0.0652  0.2135  0.0017
10086W        W25703   7.662  16.185   1.373  0.0999  0.2801 -0.1459
10087W        W25704  10.994  16.854   4.430 -0.0639 -0.1112  0.1257
10088W        W25705  15.664  16.101  15.306 -0.0037  0.2974 -0.0451
10089W        W25706  12.139  13.716   3.410 -0.1173  0.0774 -0.1712
10090W        W25707   8.591  10.946  16.233  0.1120  0.0827  0.0854
10091W        W25708   6.568   8.809   2.822 -0.2302 -0.6063  0.2427
10092W        W25709   0.467  17.730  15.201  0.0165  0.1795 -0.3112
10093W        W25710   6.206   9.366  12.825 -0.3175 -0.1444 -0.1578
10094W        W25711  10.889   5.287  15.236  0.1794 -0.0215 -0.2517
10095W        W25712   9.984  10.514  15.597  0.1024  0.0110  0.3197
10096W        W25713  10.487   2.057  15.745  0.2671  0.0044 -0.0882
10097W        W25714   5.565  17.803  15.284 -0.1813 -0.1948  0.1124
10098W        W25715   4.802   1.541   0.975 -0.0312  0.1166 -0.2328
10099W        W25716  16.856   5.371   3.307  0.0246 -0.0560  0.1363
10100W        W25717   0.335  10.502  16.499 -0.0477 -0.1670 -0.1831
10101W        W25718  11.623  16.486  13.136  0.1306 -0.2759 -0.1114
10102W        W25719  15.841  12.816   3.836  0.0096  0.1409 -0.3599
10103W        W25720  10.185  10.164   1.031 -0.2367  0.0806  0.0164
10104W        W25721  15.108  15.047   5.168 -0.4426  0.0142 -0.2818
10105W        W25722   1.919  13.869  16.361  0.3426  0.1936  0.1410
10106W        W25723   2.974   7.469  12.426  0.1185  0.0122  0.0161
10107W        W25724  10.799  13.319  12.119 -0.1486 -0.1253 -0.1293
10108W        W25725  15.866   6.544  15.543  0.1043 -0.4309 -0.0999
10109W        W25726   8.252   9.189  13.713 -0.1571 -0.3923 -0.0287
10110W        W25727   9.443   4.606   1.176  0.3066  0.0803 -0.0607
10111W        W25728  13.478   9.024   2.978  0.1482  0.1492 -0.2815
10112W        W25729  11.126  15.256   5.739 -0.1037  0.1506 -0.0382
10113W        W25730   7.583   9.317  16.139 -0.0113 -0.0295  0.1293
10114W        W25731  10.441   2.209   3.132  0.0851 -0.0287  0.2241
10115W        W25732   2.461   5.752   0.138  0.0223 -0.1905 -0.0742
10116W        W25733  12.779   9.510   0.095 -0.1780 -0.3527  0.1276
10117W        W25734   3.010   5.352  14.599 -0.2443  0.0265  0.3417
10118W        W25735   9.215  14.545  15.112 -0.2120 -0.0554 -0.0803
10119W        W25736   8.046   9.190  15.908  0.1950  0.3875  0.3054
10120W        W25737   2.397   0.694  12.464  0.1042 -0.1102 -0.1591
10121W        W25738   3.777  11.302   1.604  0.1007  0.1049 -0.0747
10122W        W25739  12.430  11.727   4.440 -0.1236 -0.1061 -0.0902
10123W        W25740   7.032   0.968   2.769  0.0931  0.1115 -0.2289
10124W        W25741   3.514   7.458  11.565 -0.1201 -0.0130 -0.3965
10125W        W25742   5.771   6.820  16.370  0.0867  0.1270  0.0105
10126W        W25743   1.635   7.651   1.311  0.3247 -0.2814  0.2540
10127W        W25744   5.154  17.295  13.461 -0.1304  0.1572  0.0720
10128W        W25745  12.196   0.928   6.489 -0.1548  0.2591 -0.1335
10129W        W25746  16.620  13.654   1.919  0.3237 -0.1036  0.0409
10130W        W25747   6.171   9.243   2.869  0.0222 -0.1521 -0.0311
10131W        W25748  15.664  17.352  13.248  0.2252  0.0047 -0.2527
10132W        W25749   4.342   3.605   3.568  0.1119  0.2126 -0.2429
10133W        W25750   3.573  15.331  10.350  0.0223  0.0928 -0.1044
10134W        W25751   1.214  17.356  15.704  0.0525 -0.2133 -0.1524
10135W        W25752   2.994   4.237   3.259 -0.0054 -0.0118  0.0466
10136W        W25753   4.181  13.263  15.595  0.2282  0.2214 -0.1590
10137W        W25754  10.829   1.467   1.051 -0.0706  0.0305 -0.0139
10138W        W25755  11.859   7.673   5.803  0.1068 -0.0499 -0.0240
10139W        W25756   1.365  13.603  12.145 -0.0090 -0.3528 -0.1137
10140W        W25757  11.002   8.361   6.363  0.2028 -0.1585  0.0789
10141W        W25758   5.062  14.587  12.839  0.1024 -0.2640  0.3370
10142W        W25759  13.848   2.334   2.301  0.1627 -0.0546  0.0047
10143W        W25760  16.290   2.627  12.652  0.1984 -0.0657 -0.3140
10144W        W25761   7.124  13.139  14.048 -0.1334  0.2111  0.1098
10145W        W25762   8.157   2.185  11.555 -0.1742  0.0069 -0.3480
10146W        W25763  16.142   0.692   0.304  0.0174  0.4203 -0.0795
10147W        W25764   8.575   2.382   5.541 -0.0016 -0.2149 -0.2812
10148W        W25765  15.079   7.453   2.355 -0.0309  0.2063 -0.1456
10149W        W25766   9.893   7.722  11.057  0.1377 -0.1366  0.0846
10150W        W25767  13.615  10.129  16.011  0.2571 -0.1042 -0.2350
10151W        W25768   6.273  16.339   2.385  0.3623 -0.3478  0.0942
10152W        W25769  14.510   7.695   0.416 -0.2356 -0.1891 -0.0267
10153W        W25770   4.822   3.497   0.181  0.0539  0.0983 -0.2185
10154W        W25771   9.749  10.975   3.779 -0.2030  0.2706 -0.0806
10155W        W25772   8.803   5.003  16.090  0.1261 -0.0865  0.0029
10156W        W25773   8.928  16.779   4.585 -0.0956 -0.0335 -0.2649
10157W        W25774  16.090   3.744   2.886 -0.2912 -0.1720 -0.0884
10158W        W25775  14.665   7.258  12.971  0.0158 -0.2817  0.1422
10159W        W25776  10.606  14.885  13.506 -0.0768 -0.1096 -0.2734
10160W        W25777  10.088  13.413  15.463  0.0984  0.3365  0.0877
10161W        W25778   3.338  15.805   1.953  0.1914  0.0639 -0.2977
10162W        W25779   5.258   1.410  12.243  0.3530  0.0089 -0.0582
10163W        W25780  15.659   7.446  12.982  0.0404  0.1888  0.1008
10164W        W25781  16.695   0.079  13.548  0.3750  0.1519 -0.1946
10165W        W25782  16.284   3.097  15.569  0.1877 -0.0278 -0.0907
10166W        W25783  13.183  15.785  16.237 -0.2513 -0.1571 -0.1595
10167W        W25784  12.064  14.579   1.250 -0.1131 -0.0631  0.1061
10168W        W25785  14.225  14.597  15.373 -0.1962 -0.2975 -0.0660
10169W        W25786  13.746  17.853  14.848 -0.0508  0.1759  0.5132
10170W        W25787  11.014  15.785   1.304 -0.0484  0.0802  0.0297
10171W        W25788   8.971  11.177   5.015 -0.0593 -0.0692 -0.1865
10172W        W25789   0.525  14.014   0.435 -0.1372  0.1642 -0.1932
10173W        W25790   3.133  11.356   1.959  0.0030 -0.1048  0.2258
10174W        W25791   4.177   1.959   4.079  0.1952  0.0736  0.1100
10175W        W25792  16.951   5.226   0.690 -0.2845 -0.0155  0.0352
10176W        W25793   8.690  15.844  14.550  0.0438 -0.1537  0.1442
10177W        W25794   5.704  17.316  11.665 -0.1995  0.0701  0.0187
10178W        W25795   7.045   1.484   5.960 -0.4449  0.0395 -0.0620
10179W        W25796  13.554   5.043   1.142  0.1719 -0.1108  0.1132
10180W        W25797   1.779  14.373  13.599 -0.0437  0.2082  0.1575
10181W        W25798  14.220   0.907  14.008  0.1041  0.3836  0.1150
10182W        W25799  15.771  11.223  15.261  0.0921 -0.3060  0.3624
10183W        W25800   9.351  10.691   3.859  0.2452  0.2009  0.0460
10184W        W25801   8.629  11.609   5.178 -0.1078  0.0952 -0.0212
10185W        W25802   8.610  15.890  15.437  0.0508 -0.0100  0.0148
10186W        W25803  12.782   6.737   5.634 -0.2250 -0.1597  0.1138
10187W        W25804  13.692  15.510  16.202 -0.1567  0.0635 -0.0103
10188W        W25805  11.774   5.038   2.820  0.3335 -0.1788  0.1630
10189W        W25806  17.394  11.652   0.109  0.1732 -0.1639 -0.0915
10190W        W25807   2.590   8.229  13.738 -0.0778 -0.1038  0.2119
10191W        W25808   7.149   5.890  15.214 -0.0255 -0.1995 -0.1539
10192W        W25809  16.394   6.148  14.530 -0.4161  0.2057  0.0142
10193W        W25810   7.992   8.595  12.470  0.1780  0.1040 -0.2251
10194W        W25811  14.372   4.036   0.143  0.1568  0.0067 -0.0539
10195W        W25812  13.106   5.541   3.168 -0.2259  0.0820  0.0047
10196W        W25813  14.044   3.708  13.834  0.2792  0.0976  0.1780
10197W        W25814   2.583   4.574   4.763 -0.0296  0.0205  0.0626
10198W        W25815   6.593  17.639  15.347  0.0851  0.0653 -0.2764
10199W        W25816  16.516  11.011   0.023  0.3009  0.1267  0.1864
10200W        W25817  14.133   6.050   3.297 -0.0915  0.0773  0.1820
10201W        W25818   3.462  12.796   3.671 -0.1857  0.3071  0.0087
10202W        W25819   0.720   7.777  15.778  0.0582  0.0110 -0.3059
10203W        W25820   0.655   9.470   5.581 -0.0305 -0.3069 -0.1475
10204W        W25821   4.010  11.178  16.411  0.0916  0.1808  0.2338
10205W        W25822   4.844  13.217  11.516 -0.2418 -0.0117  0.0227
10206W        W25823   1.595  15.252  11.379  0.0020 -0.2674 -0.1994
10207W        W25824   1.341  15.260   3.981  0.0749 -0.2589 -0.2375
10208W        W25825  14.835   8.982  14.295 -0.0270  0.0174  0.0915
10209W        W25826   1.314  16.887  16.557  0.0171 -0.0718  0.0744
10210W        W25827  16.897   2.748  13.462 -0.0886  0.0126 -0.0605
10211W        W25828  13.439  10.878   4.283 -0.3247 -0.1065  0.0099
10212W        W25829   7.806   7.136  16.198  0.1525 -0.0319  0.2493
10213W        W25830   0.953   0.921   4.591 -0.0810  0.0181  0.0542
10214W        W25831  12.298   0.737  14.056  0.1213 -0.0620  0.0486
10215W        W25832  16.753   3.700  13.513  0.0903 -0.3043 -0.0406
10216W        W25833  10.004  15.672   1.423 -0.0044  0.2880 -0.1197
10217W        W25834   8.478  16.021  13.131 -0.1819 -0.0691  0.2437
10218W        W25835  14.263   1.591  15.921  0.0231 -0.1638 -0.2705
10219W        W25836  14.032  14.123   1.964  0.1786  0.1491  0.1542
10220W        W25837   2.632  16.446   2.285 -0.0992 -0.1040  0.0584
10221W        W25838   3.172  17.816  14.578 -0.2350 -0.0675  0.0451
10222W        W25839   9.405  14.645  10.994 -0.7621  0.0943 -0.0328
10223W        W25840   7.248   3.718  13.126 -0.1063 -0.1273 -0.0944
10224W        W25841   9.851  14.104  14.310  0.0377 -0.4885  0.0214
10225W        W25842  17.670  12.754   2.227 -0.0893 -0.0076  0.2176
10226W        W25843   6.677   4.057  12.418 -0.0693 -0.2998  0.1371
10227W        W25844   3.355  15.849  15.395  0.1427  0.1043 -0.3377
10228W        W25845   6.397   1.147   4.396  0.2132  0.1972 -0.0351
10229W        W25846  11.763  14.234   5.381  0.0865 -0.3103  0.0976
10230W        W25847   9.656   7.120   4.488 -0.1815  0.0333 -0.0920
10231W        W25848  13.064   3.171   3.621 -0.0199  0.0570  0.1217
10232W        W25849  11.283   6.571   0.173  0.0342  0.1187  0.3953
10233W        W25850   0.150   3.339   6.248 -0.2634  0.1950 -0.1931
10234W        W25851  11.975  12.507   4.869 -0.1326 -0.0516  0.2649
10235W        W25852   1.124  13.598  14.937  0.4240  0.0072 -0.0229
10236W        W25853   1.842  10.052   3.093 -0.1204 -0.2078 -0.0844
10237W        W25854  14.588   5.387   6.485 -0.5159 -0.0924  0.1301
10238W        W25855  17.177   5.860   5.867 -0.1446 -0.1249 -0.1949
10239W        W25856   9.304   9.834  12.865  0.1137 -0.0486  0.0698
10240W        W25857  15.385   4.186  13.474  0.2799  0.1695  0.1982
10241W        W25858   4.826   3.198  16.099  0.1893 -0.1585  0.1102
10242W        W25859   8.109   4.117   0.894  0.0061 -0.0566  0.1129
10243W        W25860  15.935  15.593   4.559  0.1429 -0.0048  0.1233
10244W        W25861   4.984  16.864  13.825  0.1011  0.0534  0.1722
10245W        W25862   9.740   9.809  14.445  0.0419 -0.5000  0.1459
10246W        W25863   4.014   8.224  12.002 -0.0753 -0.3163 -0.0557
10247W        W25864   6.110  13.838  10.820  0.0524  0.3630 -0.0084
10248W        W25865   3.239   2.364  14.339  0.0203 -0.1573 -0.1304
10249W        W25866   8.287   1.218   3.815 -0.1371 -0.0206 -0.2409
10250W        W25867   8.604   6.893   2.210  0.0927 -0.0055 -0.2030
10251W        W25868   8.193  13.971   3.994 -0.0679 -0.1758 -0.0363
10252W        W25869  12.825   6.481  13.847 -0.1094 -0.1611  0.0205
10253W        W25870   1.396   0.088   1.410  0.2736  0.0387  0.1436
10254W        W25871   0.645   2.111   6.063 -0.3600 -0.0158 -0.0937
10255W        W25872  16.446   8.432  14.010 -0.4513 -0.1601 -0.0893
10256W        W25873   8.831  14.391   6.091 -0.0486  0.0528 -0.0288
10257W        W25874   2.192  10.854   1.935 -0.2842 -0.2390 -0.0791
10258W        W25875   3.461  13.938   0.939  0.0050  0.0408 -0.0150
10259W        W25876   8.503  11.146  14.118 -0.0296  0.0089  0.0294
10260W        W25877  12.512   2.536  13.996 -0.0506 -0.1189  0.1453
10261W        W25878   2.055   8.101   0.718 -0.2263 -0.1885  0.1332
10262W        W25879  12.322  16.741  14.406 -0.0406 -0.1131  0.0452
10263W        W25880   4.765   5.862  12.568 -0.1183  0.1996 -0.1738
10264W        W25881  16.168  16.484  15.997 -0.0681 -0.1385  0.2882
10265W        W25882   0.306  16.057  12.543  0.1122  0.0191  0.2307
10266W        W25883  14.800   5.572   1.647 -0.0481  0.1978 -0.1559
10267W        W25884  14.334   2.627   4.143 -0.1137  0.0126  0.0818
10268W        W25885   1.568   3.331   0.907  0.3123  0.1505  0.3310
10269W        W25886  11.070   2.946   2.995 -0.1587 -0.1665  0.3928
10270W        W25887  12.481   9.037  15.269  0.0860  0.0121 -0.0395
10271W        W25888   5.834   0.546   3.870 -0.0130  0.0816  0.0013
10272W        W25889   4.154  17.251   2.361  0.1935 -0.3459 -0.0226
10273W        W25890   3.745  11.969   4.116  0.0182  0.0319 -0.4425
10274W        W25891   6.177   8.908   1.423 -0.0416  0.1865 -0.1152
10275W        W25892   7.534  15.273   3.805 -0.0623  0.0192  0.0935
10276W        W25893  14.890   3.692   0.890  0.3206  0.0367 -0.0837
10277W        W25894   5.108  11.010  12.851  0.0223  0.0429  0.1412
10278W        W25895   8.959  16.972   0.666  0.3058 -0.1646 -0.3219
10279W        W25896  17.241   7.986  13.935  0.3000  0.0104  0.0166
10280W        W25897  14.294  14.753   0.559 -0.1074 -0.0194 -0.2925
10281W        W25898  11.817  10.631  14.397  0.1603  0.0036 -0.0622
10282W        W25899  10.251   1.406   1.427 -0.1796  0.4096  0.0468
10283W        W25900   8.663   4.565  16.381  0.2120  0.0937  0.2082
10284W        W25901   3.549  16.425   4.019  0.0007  0.1481 -0.1217
10285W        W25902   4.218   5.103  12.499 -0.0502  0.1387  0.0246
10286W        W25903  12.865  16.239   6.482 -0.2287  0.1563  0.0057
10287W        W25904   0.539  15.682   5.233  0.3245  0.2388  0.1293
10288W        W25905   2.988   8.013   1.521 -0.0011  0.3775 -0.2195
10289W        W25906  16.109   2.616   2.554  0.3924 -0.2543 -0.1587
10290W        W25907  10.734  15.428  12.926 -0.2080 -0.0189 -0.3244
10291W        W25908   3.334  15.283   2.110  0.1528  0.0451 -0.0005
10292W        W25909   3.775   5.110  12.812  0.0709  0.2326  0.1754
10293W        W25910   1.636   6.395   4.444  0.1085 -0.1561  0.3426
10294W        W25911   3.682   5.672   6.012 -0.3139  0.1049  0.0552
10295W        W25912   2.444   5.018   5.723  0.0889 -0.0514  0.1309
10296W        W25913   5.599  11.795  12.360 -0.0631 -0.0595  0.1022
10297W        W25914  16.746  16.829  12.128 -0.3592  0.0695  0.2550
10298W        W25915   8.674  14.181  13.196 -0.1641  0.1198 -0.0930
10299W        W25916   0.517  17.880  13.671 -0.0219  0.0426 -0.2572
10300W        W25917   1.941  13.798   1.079 -0.1206 -0.2524 -0.0063
10301W        W25918  13.570   4.592   4.395  0.1949  0.0879  0.1870
10302W        W25919  13.337   8.165   0.803 -0.1181  0.0708  0.0878
10303W        W25920   6.336  12.712   0.372  0.4486 -0.2732 -0.0306
10304W        W25921  17.659  17.250   1.667  0.1336  0.2531  0.1516
10305W        W25922  12.510   7.430  13.429 -0.2248  0.1167 -0.1951
10306W        W25923   2.250   0.719   1.590 -0.0961  0.0850 -0.1593
10307W        W25924   0.787   2.884   1.699 -0.2033 -0.0017 -0.1399
10308W        W25925   0.227  12.617  15.961  0.1560 -0.0752  0.1733
10309W        W25926  12.902  10.922  11.858  0.1888 -0.0445  0.0225
10310W        W25927   1.188  17.404   5.829  0.0439 -0.0446  0.0441
10311W        W25928   5.593  10.911  11.915  0.1723 -0.1122  0.2234
10312W        W25929   8.911  15.487   2.389  0.1399 -0.0114 -0.1371
10313W        W25930  17.906  16.972  16.595  0.2975  0.1671 -0.0665
10314W        W25931   5.464  11.370  13.513  0.2436  0.0047  0.1482
10315W        W25932  14.321  12.430   2.206  0.0516  0.1716 -0.0353
10316W        W25933  11.226  16.180   5.391 -0.4744 -0.0538  0.3642
10317W        W25934   7.572   9.345  15.625  0.2637 -0.2444  0.1709
10318W        W25935  11.180  16.069  16.078  0.0153 -0.1677  0.2470
10319W        W25936  11.683   5.377   3.962  0.0562 -0.2808  0.0133
10320W        W25937   4.127  10.813   3.528  0.2256 -0.1795  0.0096
10321W        W25938  17.521  14.645  15.436 -0.2590 -0.3532  0.0868
10322W        W25939   6.727   4.303   3.068  0.2022  0.3244 -0.4342
10323W        W25940   2.396   0.877  14.918  0.3591 -0.0535 -0.2439
10324W        W25941   4.687   2.548   4.590 -0.0174  0.0456 -0.2950
10325W        W25942  14.944   0.485  14.475  0.0348 -0.2143  0.3596
10326W        W25943   3.044   1.479   4.764  0.0964  0.1023 -0.2438
10327W        W25944   5.713   3.282  11.994  0.4102  0.0116 -0.1385
10328W        W25945  16.335  12.747   3.537 -0.2258 -0.0952  0.0318
10329W        W25946  16.467   6.347   1.961  0.4020  0.1699  0.0509
10330W        W25947   3.045  14.593  16.014 -0.0493  0.2329  0.1465
10331W        W25948  12.117  13.315  14.441 -0.1054 -0.0017 -0.1914
10332W        W25949   1.042   9.556  14.252  0.1328 -0.0935  0.1607
10333W        W25950   4.172  11.034  13.171 -0.3349  0.3113  0.2822
10334W        W25951   6.376  17.027   3.704 -0.1906  0.1845 -0.1361
10335W        W25952   8.501   3.506   1.964 -0.0650  0.0906 -0.1172
10336W        W25953   3.691  11.863  12.298 -0.2045 -0.0286 -0.0200
10337W        W25954   1.036  11.956  15.809 -0.0052  0.1818  0.1742
10338W        W25955   7.703   6.864   1.594 -0.0364 -0.0620 -0.0195
10339W        W25956   8.144   7.280   2.378 -0.0655  0.0745 -0.0948
10340W        W25957  13.254  14.729   4.858 -0.0235  0.1989  0.0311
10341W        W25958  14.488  12.612  14.217 -0.2198 -0.2860 -0.1350
10342W        W25959   4.348   1.181   2.429 -0.0130 -0.1435  0.0477
10343W        W25960   7.633  11.909  15.724 -0.0706 -0.0786 -0.1979
10344W        W25961  12.094   7.806   0.376 -0.4949 -0.0481 -0.2552
10345W        W25962   0.309   2.139   0.967 -0.0520  0.0274  0.2998
10346W        W25963   7.179  13.896   2.367  0.0668  0.1796  0.0069
10347W        W25964  15.029  11.081  16.098  0.0589  0.1361 -0.2812
10348W        W25965   8.861   9.526  13.154 -0.0541  0.2742 -0.1703
10349W        W25966   6.702   8.521   3.201  0.2934  0.0058 -0.0788
10350W        W25967   5.198  14.745   3.918  0.1352  0.2247  0.0970
10351W        W25968   1.288  15.367   0.332  0.1973 -0.0823 -0.5198
10352W        W25969  17.128   3.854   0.782  0.0774  0.0641  0.1922
10353W        W25970   0.314   9.119   1.917  0.0382 -0.2545  0.1365
10354W        W25971   2.397  17.896  13.737 -0.0123  0.0770  0.0804
10355W        W25972  14.464  12.792   4.445  0.2444 -0.4629 -0.2870
10356W        W25973   3.013  12.909   0.638  0.1365 -0.1270 -0.1656
10357W        W25974   3.932   2.589   0.401  0.1827 -0.2348 -0.1275
10358W        W25975   7.751   1.134   2.413 -0.2758 -0.1036  0.0740
10359W        W25976   5.090   3.440   3.341  0.0972  0.0088 -0.4701
10360W        W25977   1.702  12.146  11.474  0.3074 -0.1103 -0.1724
10361W        W25978   7.193   6.225   1.294  0.0863  0.3439  0.0788
10362W        W25979   8.279  14.980   4.685 -0.1862  0.1661  0.2378
10363W        W25980  11.939   8.046  14.865 -0.0295  0.1708  0.0098
10364W        W25981  12.498   1.737   5.588  0.2164 -0.0674  0.1912
10365W        W25982  14.811   1.579  16.044 -0.1423  0.1073 -0.2377
10366W        W25983   4.156  12.083  14.835  0.1142  0.1021 -0.1421
10367W        W25984  11.648   6.581   2.774  0.4469  0.0547  0.1058
10368W        W25985   5.273  15.667   0.585  0.2831  0.1316  0.3388
10369W        W25986   9.317   0.397  13.822  0.0391  0.2064  0.3864
10370W        W25987  17.578  17.657   3.787 -0.3006  0.2390  0.3291
10371W        W25988   4.982   0.394  11.348  0.0231  0.0568 -0.0884
10372W        W25989   3.242  13.490   1.509 -0.0838 -0.1081 -0.1244
10373W        W25990   7.938   0.544  14.187  0.1740 -0.0773  0.5098
10374W        W25991   2.447   7.531   4.523  0.0888  0.1505 -0.2392
10375W        W25992  12.455  16.688   3.729  0.1238  0.3745 -0.5071
10376W        W25993  11.177  16.339   3.516  0.0776  0.1994  0.4173
10377W        W25994  14.021  10.586   4.643  0.0188 -0.2166 -0.0658
10378W        W25995   8.211   6.621   1.319  0.1340 -0.1708 -0.2085
10379W        W25996   3.993   9.585  15.585 -0.0416 -0.1760 -0.0606
10380W        W25997   3.427   8.533  14.733 -0.0301 -0.1876  0.1158
10381W        W25998   3.329   0.532  13.001  0.0389 -0.1724 -0.0086
10382W        W25999   4.096   4.860   2.270 -0.0450 -0.2559  0.1287
10383W        W26000  10.138   2.180   4.509  0.0370 -0.1692 -0.1418
10384W        W26001   6.593  12.459  15.278  0.3782  0.0415  0.1340
10385W        W26002  14.594   4.493  12.375  0.0122  0.3063 -0.2991
10386W        W26003  15.571   9.453   0.293  0.0631  0.0430  0.1515
10387W        W26004   9.287   9.517   1.752  0.1335  0.2821 -0.4451
10388W        W26005  11.090  13.208   4.084 -0.1901 -0.0135  0.2012
10389W        W26006   6.055  14.520   2.005 -0.5207  0.0636  0.1769
10390W        W26007   3.047  11.556   2.806  0.2352 -0.1987  0.0691
10391W        W26008   4.852  12.727   4.212  0.4753  0.2258 -0.0417
10392W        W26009   4.812  15.201   2.877  0.2255  0.1040  0.1164
10393W        W26010  10.713   6.754  16.360  0.0368 -0.3595  0.1952
10394W        W26011  17.207  12.591  13.511 -0.1662 -0.2595 -0.2902
10395W        W26012   5.100  10.586  14.124  0.0841 -0.1871  0.1750
10396W        W26013   3.042   1.200   2.626  0.0440  0.2149 -0.0710
10397W        W26014   1.681   8.538  16.376 -0.0334 -0.4556  0.0537
10398W        W26015   1.784   9.841   5.337 -0.2222 -0.0397 -0.1269
10399W        W26016   6.151   9.677   1.579  0.0485  0.1794  0.1411
10400W        W26017  13.462  17.857   1.080 -0.3579  0.0032 -0.1572
10401W        W26018   0.710   6.967  12.915 -0.0402 -0.0207 -0.1198
10402W        W26019  17.759  10.649  16.150 -0.0011  0.0843 -0.1897
10403W        W26020  15.932  13.110   4.791  0.1795 -0.0160  0.1642
10404W        W26021   5.631   7.839   4.976  0.0499  0.1407 -0.2273
10405W        W26022  10.489  13.677  13.917 -0.0429  0.2560 -0.4480
10406W        W26023   7.108  11.699  11.078 -0.2047  0.0211 -0.1386
10407W        W26024  12.823   1.731   4.043  0.2905  0.1062 -0.2910
10408W        W26025   6.957   3.559   5.731 -0.1188  0.1348 -0.2508
10409W        W26026   1.968  16.452   1.077 -0.0060 -0.2517  0.0630
10410W        W26027   5.944  17.545  13.215  0.1846 -0.1072 -0.0221
10411W        W26028   8.629  13.016   5.628  0.1188 -0.2822 -0.1967
10412W        W26029  11.086   3.091  13.105  0.0431  0.2633 -0.0705
10413W        W26030  13.952   9.095  13.165  0.1445  0.0392 -0.1241
10414W        W26031  17.287   4.761   0.501  0.2787  0.1097  0.0768
10415W        W26032   2.865  10.466   4.828  0.0176 -0.2015 -0.1527
10416W        W26033   3.422  17.883   3.149 -0.2622  0.1010 -0.0597
10417W        W26034   0.524  10.334   3.232  0.0299  0.0809  0.2821
10418W        W26035   0.373   6.261  15.327  0.0646  0.0739 -0.1347
10419W        W26036  16.528  10.281   4.002 -0.1374  0.3583  0.1420
10420W        W26037   6.494   1.628  12.314 -0.2891  0.3826 -0.5382
10421W        W26038   1.635  14.454  14.470  0.2403  0.2513 -0.0152
10422W        W26039  13.891   1.860   4.707  0.0281 -0.3789  0.0366
10423W        W26040  10.483  13.436  11.080 -0.1678  0.3427  0.2166
10424W        W26041   8.088  16.220   5.923 -0.1803  0.0268  0.1208
10425W        W26042  13.805  17.988  16.583  0.0735  0.1564 -0.1229
10426W        W26043  14.458   8.356  11.789  0.0887 -0.1452  0.1113
10427W        W26044   4.271   3.017  14.654 -0.1115  0.2806 -0.2577
10428W        W26045   2.601  16.994   4.197 -0.0985 -0.2749 -0.2017
10429W        W26046   2.053  11.043  15.741 -0.4013  0.0137 -0.4268
10430W        W26047  12.096  13.122  11.791 -0.0335 -0.2148 -0.1781
10431W        W26048   0.870  15.345  16.803 -0.3103  0.1442  0.0356
10432W        W26049  13.529   6.912  14.643 -0.0511 -0.1700 -0.0144
10433W        W26050   1.575   0.879  13.313  0.1199 -0.2060  0.2347
10434W        W26051  13.440   5.558   2.749 -0.0817  0.0100 -0.0355
10435W        W26052   5.236  17.234   0.640 -0.4593  0.0717  0.0196
10436W        W26053  17.220  15.997  16.454  0.1545  0.5237 -0.1045
10437W        W26054   8.133   5.022  14.047  0.2057 -0.2229 -0.1186
10438W        W26055  16.336   4.738   1.831  0.1440  0.3761  0.3992
10439W        W26056  12.211   2.510   5.783 -0.0204  0.1410  0.0333
10440W        W26057  14.404  11.049  13.645 -0.0211 -0.1342 -0.0447
10441W        W26058   6.774  14.707   4.558  0.1993  0.0241  0.4099
10442W        W26059  16.843   7.379  16.090 -0.0745 -0.0056  0.1330
10443W        W26060  12.053  12.950  13.318  0.0722  0.0875  0.0371
10444W        W26061  16.461  14.798  13.905  0.1168 -0.1832  0.2214
10445W        W26062   7.825  10.801  12.762  0.0236 -0.1446 -0.1431
10446W        W26063   5.920   5.083   4.246 -0.1092  0.2069  0.1476
10447W        W26064  17.275  16.725   5.042  0.1066  0.1125 -0.0951
10448W        W26065  12.715   2.160  13.704  0.0213  0.0202 -0.0539
10449W        W26066   4.451   7.970  12.875 -0.0959  0.2345  0.4526
10450W        W26067  15.399   9.271   0.921  0.0070 -0.1720 -0.0430
10451W        W26068  10.764  14.545   1.883 -0.0897  0.1187 -0.0914
10452W        W26069  11.546   6.107  14.959 -0.0670 -0.0926  0.0583
10453W        W26070   8.330   9.904   4.775 -0.1494 -0.1908 -0.0347
10454W        W26071  15.016  15.747   6.575  0.1596 -0.2964  0.0434
10455W        W26072   4.167   5.110   1.466 -0.1823 -0.2409 -0.0092
10456W        W26073  11.820   1.714  13.067 -0.1549 -0.0755 -0.0935
10457W        W26074  15.733   7.529  14.251 -0.2805  0.2300  0.0540
10458W        W26075  17.088   8.478  13.219 -0.0014  0.3465  0.0508
10459W        W26076  11.311  15.231   3.817 -0.2759 -0.1156  0.1715
10460W        W26077   1.748   1.937   4.686  0.0378 -0.3562 -0.0153
10461W        W26078  12.657   5.195   2.369 -0.1724  0.1084  0.3586
10462W        W26079  17.309   8.785   0.147 -0.3153  0.0662  0.1667
10463W        W26080   9.138   6.190   0.316 -0.0483 -0.0873  0.0446
10464W        W26081   0.252   4.079  15.260 -0.0326  0.1962  0.0897
10465W        W26082  10.369   0.919   4.473 -0.3147  0.1661  0.0947
10466W        W26083   4.169   5.260  16.000  0.3405  0.1142 -0.2033
10467W        W26084  13.944   6.059  16.376  0.4504  0.0814 -0.2029
10468W        W26085   7.856  15.197  15.243  0.0312 -0.0979 -0.0718
10469W        W26086   5.523  15.259   4.919 -0.1001  0.2848  0.0931
10470W        W26087  11.901   2.447   2.709  0.1444  0.2048 -0.1512
10471W        W26088   3.638  16.958   5.826 -0.0548  0.0411  0.1576
10472W        W26089   6.853   2.555  15.918 -0.1116  0.2745 -0.0035
10473W        W26090  16.293  11.711   2.329  0.1166  0.0669  0.3254
10474W        W26091   3.105   0.413   5.717  0.0359  0.0953  0.0459
10475W        W26092   7.550   5.213   0.532  0.1834  0.0504 -0.0467
10476W        W26093  11.980  13.582  12.056  0.1171 -0.0516 -0.0402
10477W        W26094  10.140  16.158   3.834 -0.1509  0.1226 -0.0635
10478W        W26095   5.505   0.392   4.246  0.0131  0.2192  0.1123
10479W        W26096  16.459   5.344   0.981 -0.0650 -0.1388  0.0520
10480W        W26097  17.072   9.946   6.012  0.3256  0.0286  0.0016
10481W        W26098   6.301  14.181   2.292  0.2438  0.0715  0.0354
10482W        W26099  14.293  12.163  15.605  0.1417 -0.2234  0.0848
10483W        W26100   9.483   8.293   2.828  0.0956  0.0212  0.1332
10484W        W26101   3.403   0.942  16.800 -0.0047 -0.1439  0.1615
10485W        W26102   0.268  11.284  13.904  0.1637  0.2088  0.0769
10486W        W26103   3.789  14.389  13.107  0.2155 -0.2257  0.2519
10487W        W26104   5.021   1.767  13.936 -0.1936 -0.0594  0.0765
10488W        W26105  17.642  16.122  13.765 -0.0558  0.1831  0.4244
10489W        W26106   3.486   7.208  16.134 -0.1159  0.0699 -0.0558
10490W        W26107  12.507  10.109   1.241  0.0261  0.0680  0.0438
10491W        W26108   9.448   3.079   4.747 -0.1266 -0.2264 -0.0848
10492W        W26109   3.293   7.874   0.691  0.0290  0.1227  0.0680
10493W        W26110   7.574   7.180   3.825 -0.0069  0.1554  0.1904
10494W        W26111   4.484   1.220  13.386  0.1936 -0.0707 -0.1001
10495W        W26112   6.676  14.551  16.150  0.2470  0.1124  0.3120
10496W        W26113  10.710   6.065  15.719  0.0456  0.0066 -0.1105
10497W        W26114   0.079   6.223  11.836  0.0789 -0.1684  0.0114
10498W        W26115  10.993   0.967   5.079  0.0077 -0.2555  0.4929
10499W        W26116   6.009  14.183   0.860 -0.2152 -0.0611 -0.2920
10500W        W26117  17.461  17.066   3.365  0.4949 -0.0519  0.1038
10501W        W26118   8.365  11.397  12.228  0.0256  0.1621 -0.4076
10502W        W26119  15.607  10.891   3.811  0.0347  0.0344 -0.1149
10503W        W26120  13.460   0.821   1.394 -0.1731 -0.4685  0.2213
10504W        W26121   5.961   6.271  16.053  0.0453 -0.1420  0.0569
10505W        W26122  13.374   8.634   3.901 -0.1761  0.1865  0.3348
10506W        W26123   5.974   9.738   2.064 -0.1194  0.0248 -0.1424
10507W        W26124   1.685   9.291   4.611 -0.3348 -0.0826  0.4814
10508W        W26125   6.086   1.357  13.694 -0.0547 -0.0404  0.1422
10509W        W26126  14.081  11.231   1.228 -0.0033 -0.1602 -0.0314
10510W        W26127  12.525   1.488   2.173 -0.0083  0.2975 -0.0755
10511W        W26128   3.984  17.731   3.034  0.1201  0.0004 -0.3037
10512W        W26129  16.437  15.578   1.791  0.0508 -0.1498 -0.0093
10513W        W26130   2.865  16.148  16.563 -0.1864  0.2550 -0.1611
10514W        W26131  15.982  11.536  15.715  0.0551 -0.1092 -0.5446
10515W        W26132  12.522  15.296  12.714  0.0858 -0.0476  0.1614
10516W        W26133   3.131   5.156  11.075 -0.2448 -0.1863  0.0738
10517W        W26134   3.916   7.459  11.895  0.1469 -0.0025  0.1847
10518W        W26135  14.002   2.747   2.030 -0.1579  0.2012  0.1148
10519W        W26136   1.618   4.576  14.636  0.0501  0.0931 -0.3578
10520W        W26137  12.939   3.921   2.885 -0.0275 -0.2638 -0.2906
10521W        W26138   9.919   1.264   2.493  0.0033  0.1412  0.0318
10522W        W26139   3.007   2.580   0.183  0.3191 -0.2655 -0.0102
10523W        W26140   7.097   7.516  14.741  0.1066 -0.3925  0.0137
10524W        W26141   2.689  10.822  12.497 -0.0150  0.0782  0.1845
10525W        W26142  14.366   0.010   2.680  0.2765 -0.0665 -0.0901
10526W        W26143   9.434   0.690   0.346 -0.0965 -0.2318  0.0437
10527W        W26144   4.415   7.196  14.020  0.0498  0.0638 -0.2497
10528W        W26145  17.880  11.728   2.230 -0.2491 -0.0871  0.0610
10529W        W26146  12.561   5.953  15.975  0.0212  0.3596  0.1935
10530W        W26147   5.390   7.887   5.421  0.0579  0.0944 -0.2106
10531W        W26148   4.202  17.450   3.481 -0.0050 -0.0169  0.3025
10532W        W26149   9.322  11.482   0.432  0.0428 -0.0556  0.0735
10533W        W26150  10.623  14.162  11.509 -0.0278 -0.0754  0.2393
10534W        W26151  13.499   6.544   5.324  0.1099 -0.1525  0.1771
10535W        W26152   9.043   9.500   1.343  0.1960 -0.2154 -0.1661
10536W        W26153  17.139  11.541  13.464  0.0537  0.3305 -0.0098
10537W        W26154   8.199  10.241   2.941  0.1264  0.2146 -0.2786
10538W        W26155  15.190   4.461   0.137 -0.2365  0.2986  0.4590
10539W        W26156  11.689  14.620  14.293  0.2563 -0.2029  0.2544
10540W        W26157   8.526   6.235   1.707 -0.2001  0.0617 -0.0238
10541W        W26158  12.724   6.363   2.802 -0.4549  0.1707 -0.2713
10542W        W26159  11.242  12.616   5.204  0.1789 -0.2731 -0.0790
10543W        W26160   6.332  12.346   1.764 -0.1390  0.1121 -0.0162
10544W        W26161   1.871   3.507   4.678 -0.2733 -0.0015 -0.1111
10545W        W26162   9.787   5.434   4.113  0.0620 -0.0699 -0.0584
10546W        W26163   2.480  12.164   4.360 -0.2432  0.0309  0.2012
10547W        W26164  16.630   0.874  15.790 -0.0726 -0.0514  0.1230
10548W        W26165  14.000   5.702  12.234  0.3918  0.1730  0.2287
10549W        W26166   6.928  13.109  13.543 -0.1026 -0.1936  0.0873
10550W        W26167   6.360   7.762   1.737 -0.1789  0.3429 -0.0498
10551W        W26168   8.581   4.326  12.870 -0.1254  0.4007 -0.0441
10552W        W26169  13.777  17.036  14.464  0.1659  0.2949 -0.1254
10553W        W26170  16.079  11.200  13.007  0.1630  0.0525 -0.2958
10554W        W26171   9.531  17.847  15.990 -0.3920  0.1351  0.1506
10555W        W26172   5.883  14.965   5.561  0.1061  0.2733 -0.0257
10556W        W26173  16.003  14.352   5.842 -0.0356 -0.1018 -0.2516
10557W        W26174   9.973   8.735  12.188  0.0483 -0.1488 -0.0659
10558W        W26175   8.372   1.847  15.923  0.1242  0.1007  0.1172
10559W        W26176  17.975  16.886  14.624 -0.0286  0.4629 -0.1120
10560W        W26177  17.803   7.161   5.028 -0.1444  0.1429  0.2814
10561W        W26178   4.893   1.568   3.674 -0.2965  0.5715  0.2807
10562W        W26179   0.123  12.803  14.223 -0.1320  0.1719  0.1212
10563W        W26180  10.428   7.494   2.401 -0.0952 -0.5454  0.1558
10564W        W26181   1.192   3.971   1.790  0.2124 -0.0628 -0.0729
10565W        W26182   6.082   8.577   5.430 -0.2233 -0.0873  0.1376
10566W        W26183  11.379  12.913  11.202  0.0316 -0.0209  0.1930
10567W        W26184   7.517  10.219  15.180  0.1054 -0.4626  0.0050
10568W        W26185   2.182   1.503   2.686 -0.0890 -0.0828  0.0697
10569W        W26186   7.789   8.548  12.891 -0.1380 -0.1690 -0.0650
10570W        W26187  11.196   1.541  16.773  0.3483  0.0839  0.0775
10571W        W26188   9.913  11.435  15.423 -0.0582  0.0324  0.1155
10572W        W26189  11.937  16.584   4.397 -0.0933  0.0822 -0.2319
10573W        W26190  16.058   1.748  14.132 -0.1848  0.2751 -0.2445
10574W        W26191   7.893   0.891   3.710  0.0699  0.3753 -0.1805
10575W        W26192   5.871   0.658  14.333  0.1588  0.2047 -0.2896
10576W        W26193  13.813   5.687  13.585  0.2164  0.0226  0.2595
10577W        W26194   0.551  13.059   4.599  0.2134 -0.0123 -0.1210
10578W        W26195   4.988  14.070  11.481 -0.0131  0.1253  0.1930
10579W        W26196  14.601   1.676  12.456  0.1992 -0.1298 -0.2636
10580W        W26197   5.239   1.352  11.687  0.0893 -0.3322 -0.1476
10581W        W26198   4.559   8.010  13.903 -0.0155  0.0393 -0.2698
10582W        W26199   4.655  13.171   3.827  0.1057 -0.2282  0.1707
10583W        W26200  15.842  17.430  13.779  0.1768 -0.0858  0.4725
10584W        W26201  10.320  12.282  12.803  0.0138  0.0838 -0.1851
10585W        W26202   0.549  11.418   1.665  0.1527 -0.0321  0.0989
10586W        W26203  10.374   1.507   3.487 -0.0300 -0.3701  0.1757
10587W        W26204  17.285   4.657  16.197  0.0927  0.0511  0.0459
10588W        W26205  16.560  12.678  16.749 -0.0299  0.2090 -0.1721
10589W        W26206   3.858   2.507  15.033 -0.3069 -0.1261 -0.2455
10590W        W26207   9.076  12.504   4.405 -0.0889  0.1474 -0.1032
10591W        W26208  16.714   4.499   1.527  0.3102  0.0506 -0.1718
10592W        W26209  15.771  11.249   2.283 -0.0448  0.0068  0.0230
10593W        W26210  16.342   7.031   2.614  0.3102  0.0089  0.0712
10594W        W26211  11.166   1.182   5.525  0.4176  0.1947 -0.1458
10595W        W26212   7.959  14.671   2.216 -0.2361  0.0941  0.2049
10596W        W26213  16.137  14.121   1.173 -0.1265  0.0782  0.3548
10597W        W26214  16.342  12.675  13.889 -0.0437  0.1356 -0.2288
10598W        W26215   8.630  17.289  15.007  0.0061  0.0933  0.0326
10599W        W26216   4.622  17.484  13.458 -0.0062  0.1878  0.3382
10600W        W26217  17.641  13.599  13.095  0.0641 -0.1999  0.1523
10601W        W26218  15.328   8.802   3.405 -0.0031 -0.1150  0.0794
10602W        W26219   8.658   8.415  11.511  0.4230  0.3868  0.1037
10603W        W26220  16.539  13.779   0.945  0.0621  0.1302 -0.0311
10604W        W26221   0.170  11.651   0.959 -0.1124 -0.0978 -0.0499
10605W        W26222   9.849  11.284   5.210  0.2089 -0.1688  0.0842
10606W        W26223   7.376  11.169   4.859 -0.1247  0.1793 -0.3718
10607W        W26224  11.520   0.252  15.493  0.2109  0.2441 -0.1401
10608W        W26225  16.740   5.352  12.974  0.3767 -0.1023 -0.1134
10609W        W26226  11.433  17.554   4.143 -0.0179 -0.3195  0.3309
10610W        W26227  10.871   4.347   3.415  0.1144  0.2169  0.2104
10611W        W26228  17.918  11.766   3.630 -0.1498  0.2051 -0.2309
10612W        W26229   4.901   8.941   1.585 -0.0651  0.0134 -0.0819
10613W        W26230  12.227   8.921  15.703 -0.0326 -0.0030 -0.3458
10614W        W26231   8.765  12.071   4.574  0.1907 -0.2244  0.2912
10615W        W26232  15.611   6.850   2.676 -0.1798  0.0582 -0.2413
10616W        W26233   3.106   4.216   0.323  0.0046  0.2059 -0.2295
10617W        W26234   5.840   3.360   0.347 -0.0098  0.0671 -0.4548
10618W        W26235   4.530  13.046   1.773  0.2046  0.2383  0.0081
10619W        W26236   9.358  13.928  15.741  0.0668  0.0287 -0.0521
10620W        W26237  16.566  10.841   3.685 -0.0801  0.3391 -0.3164
10621W        W26238  14.326  11.207   2.479  0.1619 -0.1534  0.3445
10622W        W26239  14.247   6.472  14.504 -0.1981 -0.1385 -0.1121
10623W        W26240  15.613   9.872   4.658 -0.1546  0.3223 -0.3038
10624W        W26241  11.274   2.261  14.918 -0.2321  0.1003 -0.1252
10625W        W26242   4.574   7.613   2.833  0.1942 -0.0681 -0.1696
10626W        W26243  14.607  15.846  14.286 -0.1278 -0.0936 -0.0639
10627W        W26244   4.513  16.187  16.179 -0.1345  0.0614  0.0007
10628W        W26245  17.950   0.758   3.118 -0.0267 -0.1342  0.1240
10629W        W26246  12.339   6.735  11.801 -0.1675  0.0947 -0.1752
10630W        W26247  16.054  12.948  13.214  0.1855  0.1802 -0.0758
10631W        W26248   5.210   1.879  15.880  0.0034  0.1548  0.1960
10632W        W26249   8.538   3.069   0.773 -0.0680 -0.0743 -0.2080
10633W        W26250   4.084   2.167   4.499 -0.2378  0.0183 -0.3261
10634W        W26251   7.455   0.129   2.395  0.1401  0.1909 -0.1945
10635W        W26252   3.848   4.742   3.435 -0.2018  0.0310 -0.1406
10636W        W26253  10.350   8.350   1.979 -0.0589  0.3027 -0.1835
10637W        W26254   2.009  12.432  16.513  0.1414 -0.0794 -0.0797
10638W        W26255   3.209   6.258  16.165 -0.1480  0.1804  0.0343
10639W        W26256  15.798   5.546   4.487  0.0497  0.0890 -0.1975
10640W        W26257  15.121  10.276  11.034  0.1683 -0.1147  0.3030
10641W        W26258  14.026  12.844   2.158 -0.1759 -0.1744  0.1769
10642W        W26259  14.967  12.477   5.103  0.2780  0.1033  0.0078
10643W        W26260   1.998   2.333   1.980  0.0182  0.3850  0.1403
10644W        W26261  16.063   3.203   2.871 -0.1381 -0.0646 -0.0912
10645W        W26262   3.006  10.180  12.997 -0.0313  0.0485 -0.2298
10646W        W26263   1.039   3.429   5.455 -0.2471  0.2814  0.1257
10647W        W26264  17.192   2.694   4.607  0.0335 -0.0719 -0.1410
10648W        W26265  17.120  17.775   2.038 -0.1444 -0.0750  0.2943
10649W        W26266   0.062  14.474  15.949 -0.1782 -0.1621  0.0512
10650W        W26267  17.423   3.459  12.263 -0.2380  0.0504  0.2217
10651W        W26268   2.434   2.350  14.638 -0.2895 -0.0026  0.0547
10652W        W26269  17.901  11.585  15.673 -0.0778  0.0938 -0.1018
10653W        W26270  13.670   7.564  10.724 -0.4545 -0.0020 -0.1031
10654W        W26271  15.903   0.377  15.338 -0.0595 -0.2219  0.0171
10655W        W26272  10.865   5.060  15.725 -0.0901  0.0720 -0.0613
10656W        W26273   0.989   5.099  12.121 -0.0305 -0.0667  0.2328
10657W        W26274  15.564  14.178  12.149 -0.0286  0.0996  0.3442
10658W        W26275  12.563  12.839   3.021  0.0858  0.0280  0.1553
10659W        W26276  17.685   2.319  12.423 -0.1192  0.1043 -0.1222
10660W        W26277  14.554   0.586   4.549 -0.1879  0.0598 -0.2300
10661W        W26278  12.715   2.053  15.014 -0.0637 -0.2404  0.1046
10662W        W26279  15.403   2.377  15.733 -0.1278  0.0630 -0.0817
10663W        W26280  11.549  14.703   0.238  0.0598 -0.0443  0.3307
10664W        W26281   6.016   3.107   4.472  0.0547  0.3213 -0.1166
10665W        W26282  10.488  16.242  12.815 -0.0994 -0.0232 -0.1464
10666W        W26283   4.995  18.004  15.191  0.0991 -0.0883 -0.3326
10667W        W26284   2.205  12.380  15.918 -0.2393 -0.0743  0.2208
10668W        W26285   9.765   4.333  13.791 -0.1394 -0.2861  0.1995
10669W        W26286   1.396  17.418   4.599  0.2423 -0.0720 -0.1406
10670W        W26287  10.760   2.287  15.359 -0.3731  0.1505 -0.2372
10671W        W26288  10.861  12.886   2.478  0.0180  0.1270  0.0559
10672W        W26289   5.313   9.200  12.585  0.1290 -0.0262 -0.0848
10673W        W26290  16.986   9.598   1.474 -0.1684 -0.3634 -0.0974
10674W        W26291   6.040  11.369  14.573  0.0320  0.0311 -0.0957
10675W        W26292  14.631  11.268  15.066  0.2562  0.2586 -0.2154
10676W        W26293   2.030   0.710   1.118  0.0070 -0.0207  0.0573
10677W        W26294  10.418   7.792   1.630  0.1197 -0.0543 -0.0343
10678W        W26295  16.468  11.413   5.943 -0.4604  0.2576  0.2919
10679W        W26296  11.436   5.335   1.768 -0.1961 -0.2402 -0.0432
10680W        W26297  15.429  16.840   2.381  0.0532 -0.3817  0.2214
10681W        W26298   8.177   4.106  15.273 -0.0874 -0.0642  0.0368
10682W        W26299   5.516  10.117   0.305 -0.1037  0.0612  0.0514
10683W        W26300  10.013   1.295  12.064 -0.1814  0.0798 -0.0135
10684W        W26301  13.878  13.563   0.601  0.2303  0.1454  0.2048
10685W        W26302   7.352   3.925  12.632 -0.0957  0.1338  0.0613
10686W        W26303   5.697  17.418  14.373 -0.1239 -0.0580  0.0480
10687W        W26304  12.958  14.731  16.397  0.3461 -0.0595 -0.1476
10688W        W26305  15.812   5.677   1.974 -0.1561  0.0447 -0.1081
10689W        W26306   9.186  13.817   1.744  0.1972 -0.5584  0.0053
10690W        W26307   0.603  10.353   2.705  0.2506 -0.0824 -0.1503
10691W        W26308   2.990  10.900  12.844 -0.2399  0.4826 -0.4045
10692W        W26309  10.294  15.746  12.977  0.4951  0.0223  0.2706
10693W        W26310   5.708   9.595   0.641 -0.1385  0.1966  0.1591
10694W        W26311   4.363  15.342  13.319 -0.2174  0.0817 -0.1198
10695W        W26312   7.971   2.073   3.403 -0.1956  0.1600  0.3119
10696W        W26313  15.287  13.644   5.078  0.2856  0.2050  0.0810
10697W        W26314  17.907   4.612   5.968 -0.1325  0.0680 -0.2331
10698W        W26315  17.993  11.291   5.216  0.3450 -0.0247  0.1102
10699W        W26316  16.953  13.049   6.014  0.0007 -0.4495  0.2131
10700W        W26317   1.027   2.879   5.373  0.1180  0.2020 -0.1605
10701W        W26318   4.694   9.499   4.765  0.0052 -0.2736 -0.2920
10702W        W26319  17.559   2.910   3.578  0.1633  0.3922  0.2388
10703W        W26320   9.628   6.828   4.054 -0.1673  0.1674  0.1035
10704W        W26321   2.198   6.975   2.059  0.1680  0.3982  0.2886
10705W        W26322   8.366  16.625   3.259  0.1903  0.0276  0.3116
10706W        W26323   6.074   1.963  13.744  0.1038  0.0480  0.0401
10707W        W26324  14.480   9.410   1.236 -0.0575  0.1368  0.0092
10708W        W26325   9.510   2.418  10.892  0.3433 -0.0242  0.0545
10709W        W26326  10.434  17.297  14.148  0.5221  0.1181 -0.1756
10710W        W26327  12.691   8.386   3.319  0.0008 -0.2005  0.0148
10711W        W26328  14.458   9.163  12.906  0.1183 -0.1422  0.0612
10712W        W26329   2.975   6.852   5.606  0.0832 -0.2828 -0.1604
10713W        W26330   9.050   3.707  13.820 -0.1865  0.3130  0.1744
10714W        W26331   8.931  13.329  11.629  0.4711  0.2485 -0.1286
10715W        W26332  17.413   0.968  14.516 -0.0314  0.1724 -0.0510
10716W        W26333   2.208  15.603  12.605 -0.1015  0.2290 -0.0470
10717W        W26334   5.855   7.915   1.946  0.0049 -0.2598 -0.2689
10718W        W26335   8.250   3.153   2.204  0.2915 -0.3118  0.0499
10719W        W26336  11.209   0.633   3.633  0.0755 -0.1147 -0.0295
10720W        W26337  12.355   4.373  16.229 -0.3294 -0.0387  0.1706
10721W        W26338  16.309   5.054  12.988 -0.1958 -0.1901  0.3144
10722W        W26339  16.358   7.126   3.743 -0.2423  0.1885  0.1138
10723W        W26340  15.595  16.226   6.630 -0.0773 -0.0109  0.1823
10724W        W26341  14.221  15.050  15.643  0.3806 -0.0499 -0.2957
10725W        W26342  13.927  14.850   2.581 -0.1917  0.0200 -0.0419
10726W        W26343  14.809  10.795   2.337 -0.2138 -0.2119  0.0674
10727W        W26344  11.826  14.189  13.631  0.2220 -0.0051  0.1024
10728W        W26345  16.527   6.619  14.830  0.0991 -0.1558 -0.1597
10729W        W26346   0.386  12.655   4.858  0.1023 -0.3336  0.0919
10730W        W26347  16.142   6.331  16.522 -0.1570  0.1799  0.2711
10731W        W26348   5.720   8.193   0.885 -0.0350 -0.0874  0.3173
10732W        W26349  11.374  14.610   3.355  0.2066 -0.6776 -0.1573
10733W        W26350   3.640   2.056  16.012  0.0831 -0.1900  0.1165
10734W        W26351   9.708   9.422  11.675 -0.3240 -0.1994 -0.0432
10735W        W26352   1.900   6.690  14.931  0.1918 -0.0965  0.4365
10736W        W26353   7.961   1.584  14.937  0.3184  0.1090  0.1541
10737W        W26354  13.111   3.426  14.794  0.1788  0.0189  0.1157
10738W        W26355  17.154   4.065  14.349  0.0166  0.1619  0.2596
10739W        W26356   0.446   3.714   2.647 -0.2153 -0.1285 -0.1682
10740W        W26357  17.839   9.463   0.292 -0.0186  0.0373 -0.3676
10741W        W26358  14.961   3.035  10.732  0.3350 -0.1979  0.2822
10742W        W26359  11.333  17.215   4.479 -0.0447 -0.0036  0.0592
10743W        W26360   8.910   8.749  12.535 -0.2199  0.0944 -0.0476
10744W        W26361   6.901   0.476  12.182 -0.2960 -0.0444  0.0525
10745W        W26362   7.492   6.281  16.116 -0.0198  0.0213 -0.2761
10746W        W26363   8.238   6.404  16.653 -0.0329  0.0624 -0.1945
10747W        W26364  13.826  14.367  14.570  0.1016  0.0762  0.1594
10748W        W26365   7.390   3.194   5.829 -0.2708 -0.1866  0.1281
10749W        W26366   7.587  14.492  14.576  0.0728 -0.1617  0.0617
10750W        W26367   0.168  13.379   4.256 -0.0670 -0.2148  0.2668
10751W        W26368   9.016   6.301   0.963 -0.3773 -0.3116  0.3621
10752W        W26369   6.912  10.506  15.767 -0.0950  0.1092  0.3878
10753W        W26370  14.239   5.224  15.070 -0.0842  0.1191 -0.2836
10754W        W26371   4.903   2.784  12.475  0.1676  0.0055  0.0083
10755W        W26372   3.048   0.972   4.557 -0.0994 -0.0552  0.0191
10756W        W26373   4.440  14.219   3.940 -0.0057 -0.2627 -0.3779
10757W        W26374   7.697  15.920  11.269  0.0544 -0.0761 -0.3774
10758W        W26375   2.839  10.099  10.643  0.1980  0.1426  0.1980
10759W        W26376   7.139  16.570   0.488  0.1179 -0.0751 -0.2057
10760W        W26377   8.609   6.617   0.808  0.2789 -0.0999 -0.0020
10761W        W26378   1.809  13.548  16.790 -0.0846  0.0720 -0.1473
10762W        W26379   6.293  15.770   6.004  0.2267 -0.0721  0.5427
10763W        W26380   6.460   7.479  12.375 -0.2346  0.4362  0.2342
10764W        W26381   6.722  12.927   3.690  0.2007 -0.0220 -0.1087
10765W        W26382  13.093   2.853  16.483  0.1960  0.0014  0.2203
10766W        W26383  16.911   3.578  16.020 -0.2004  0.1999 -0.1641
10767W        W26384  11.581  12.852   2.339 -0.0797 -0.1414 -0.1191
10768W        W26385  13.966   7.458   3.432  0.2574 -0.1719 -0.0908
10769W        W26386  17.985   7.822   3.025  0.3938  0.1585  0.2353
10770W        W26387   1.450  15.807  11.739  0.0998  0.0227 -0.0685
10771W        W26388   0.376   3.743   4.541  0.0080  0.1344  0.2161
10772W        W26389   4.468  15.644  16.232 -0.1202  0.1101  0.0447
10773W        W26390  11.528  17.955   3.138 -0.0108  0.2441  0.1191
10774W        W26391  15.855   9.574  12.171  0.1258  0.1434  0.0463
10775W        W26392  17.779   8.006   1.560  0.2812 -0.2903  0.0474
10776W        W26393  12.707  16.431  14.159  0.1924 -0.0729 -0.1860
10777W        W26394  16.977   6.630   5.341  0.1419  0.2607 -0.1016
10778W        W26395   1.335   0.911  15.272 -0.0901  0.1715 -0.0262
10779W        W26396  15.422   6.953   0.603  0.0735  0.0497 -0.1061
10780W        W26397   1.246   5.536   0.611 -0.0252  0.0171  0.0620
10781W        W26398   2.479  14.082   0.252 -0.2792 -0.0185  0.0231
10782W        W26399  15.131   7.633  15.344 -0.2574  0.2511 -0.1732
10783W        W26400   7.205  17.307   1.188  0.0230 -0.2996  0.0738
10784W        W26401   4.355   0.936  15.553 -0.4093  0.1037 -0.0420
10785W        W26402  13.220   9.173  12.630  0.0631 -0.1176  0.3242
10786W        W26403  15.240   7.263   3.343 -0.1440 -0.0166 -0.4887
10787W        W26404   6.076  13.931   5.724  0.3273  0.0895  0.0463
10788W        W26405  16.884   2.052   6.119 -0.0664  0.0734  0.3194
10789W        W26406   3.981   0.546  12.729 -0.1356  0.3026  0.1271
10790W        W26407  14.527  17.978  12.748 -0.0660 -0.0403 -0.0991
10791W        W26408   8.564   9.767  15.449  0.2151 -0.0790  0.0240
10792W        W26409   9.291  15.951  11.775 -0.2195  0.0961 -0.0858
10793W        W26410  14.081   4.730  12.429  0.1835  0.1486  0.1934
10794W        W26411  12.032   8.792   2.711 -0.1368  0.0113 -0.0617
10795W        W26412   5.903   6.044  13.359  0.0928  0.1663  0.1626
10796W        W26413   0.945  17.037   0.838 -0.2045  0.1950 -0.1747
10797W        W26414   5.467  10.943   3.410  0.0858  0.1284  0.2534
10798W        W26415   3.457  14.777   3.334  0.2178  0.0874  0.1656
10799W        W26416   1.835  11.141  13.945 -0.0524  0.0090  0.0782
10800W        W26417  16.371   9.370  15.374 -0.0015  0.0514  0.0077
10801W        W26418   0.231  17.351   5.353 -0.0734 -0.1377  0.2617
10802W        W26419   8.533   5.327  15.003 -0.3177 -0.2281  0.2553
10803W        W26420   3.694   1.796   4.729  0.0380 -0.0096  0.0477
10804W        W26421   4.465   0.458  16.409 -0.0589 -0.2268  0.1988
10805W        W26422   3.279   5.330   6.177  0.1454  0.3010  0.2330
10806W        W26423  16.006   4.556  14.177  0.0907 -0.1516 -0.3685
10807W        W26424  10.626   4.419   5.478  0.0057  0.2704  0.0224
10808W        W26425  12.672   1.813   1.214 -0.2325 -0.0489 -0.1964
10809W        W26426   9.839   5.732  12.522 -0.1619  0.1137 -0.1154
10810W        W26427   5.157   0.596   5.224  0.1106  0.0268  0.0362
10811W        W26428   9.537   2.724   2.593  0.0898 -0.0137  0.2055
10812W        W26429   7.841  10.082  10.712 -0.2570 -0.2581  0.1492
10813W        W26430  11.349  10.949  14.142  0.0815 -0.0053  0.3648
10814W        W26431  12.161   0.636   2.685  0.1344  0.0646 -0.0205
10815W        W26432   8.292  13.943  11.328  0.2593  0.0041 -0.0512
10816W        W26433   0.145   2.982  12.697 -0.0384 -0.1986 -0.0522
10817W        W26434   4.611   0.032   1.295  0.2722  0.1627  0.1056
10818W        W26435   6.799   3.061   2.729  0.0316  0.1828  0.2215
10819W        W26436  13.336  16.351  16.445  0.1446  0.0530  0.1717
10820W        W26437   0.238   1.997  11.775 -0.1793 -0.1050  0.0290
10821W        W26438   5.624   2.463   0.884 -0.2347 -0.0056 -0.4540
10822W        W26439   0.590  16.628   3.252  0.0297 -0.3614  0.1295
10823W        W26440   5.247   5.919   0.831 -0.2294 -0.3209 -0.1192
10824W        W26441  12.987   3.786  11.876 -0.0798  0.1810 -0.2251
10825W        W26442   0.134  15.580   1.424  0.2478 -0.1562  0.0996
10826W        W26443  17.754  13.062   1.827 -0.2120 -0.0297  0.0203
10827W        W26444  14.506  16.391   5.887 -0.0084 -0.0915  0.0667
10828W        W26445   6.332   8.134  11.714 -0.5004  0.0597  0.2140
10829W        W26446   9.899  16.369  10.815  0.0182 -0.0153  0.1769
10830W        W26447   8.148   3.180  15.746 -0.1502  0.0739 -0.2496
10831W        W26448   2.164  15.814  14.537  0.3499 -0.0175 -0.2573
10832W        W26449   1.338   1.446   3.478  0.1433 -0.0316  0.0697
10833W        W26450   0.835   1.895   1.110  0.0093 -0.1983  0.0626
10834W        W26451   7.257  15.392  16.060  0.0294  0.0548 -0.1458
10835W        W26452  13.304  12.593  14.816  0.1107  0.1797  0.0595
10836W        W26453   9.097  15.877   4.393  0.0453 -0.1747 -0.1275
10837W        W26454   2.979   3.355  12.678 -0.3113  0.3080 -0.4227
10838W        W26455   9.240   1.334   3.995  0.0995 -0.0634 -0.0973
10839W        W26456   3.010   1.415  11.194  0.0282  0.2746 -0.0042
10840W        W26457   3.037   1.171   3.702 -0.2644 -0.3086 -0.1194
10841W        W26458   9.742  10.910   4.269  0.1286  0.1813  0.1243
10842W        W26459   4.889   6.403  11.204 -0.0452 -0.1100  0.0551
10843W        W26460   9.413  11.734   1.818  0.0995 -0.2142  0.0259
10844W        W26461   4.741   9.064  15.242  0.1778 -0.0268 -0.5712
10845W        W26462   9.680  13.357   5.467 -0.0097  0.0820 -0.1699
10846W        W26463  16.350  10.672  10.542  0.1060  0.1587  0.0740
10847W        W26464   2.209   7.272  15.149 -0.0433 -0.0015 -0.1251
10848W        W26465  11.584  10.134  15.232 -0.1374 -0.2516 -0.0078
10849W        W26466  14.944   2.975  15.920  0.0872  0.0630 -0.0472
10850W        W26467   2.124   7.843  12.186  0.0557  0.0068  0.0970
10851W        W26468  11.169  10.150  16.364 -0.0009 -0.3311  0.0447
10852W        W26469   6.829  10.338   1.726  0.0680  0.2326 -0.0683
10853W        W26470  14.832  17.296  13.983 -0.0457  0.1870 -0.1559
10854W        W26471   0.263  12.892  12.771  0.3411 -0.1461  0.0611
10855W        W26472   3.885   6.284  12.222  0.0513  0.0877 -0.0380
10856W        W26473   5.552   6.593   4.788 -0.0918  0.1933  0.1513
10857W        W26474  15.830   9.809  13.712  0.0724  0.0909 -0.2206
10858W        W26475  15.159  14.729  12.707 -0.2917  0.2088 -0.0638
10859W        W26476  11.180  14.596  15.957  0.1661 -0.0789 -0.0559
10860W        W26477  16.072   3.699  12.450 -0.0293 -0.2512 -0.0875
10861W        W26478   2.726   5.129   4.966 -0.4538 -0.1590 -0.1863
10862W        W26479  12.037   6.429  12.630  0.0868  0.4312  0.0637
10863W        W26480   5.064   7.245  13.920  0.1307  0.2545  0.0286
10864W        W26481  11.185  12.595  11.583  0.1530  0.2987 -0.1173
10865W        W26482   8.193   2.294  15.637  0.1757  0.1379  0.0581
10866W        W26483   1.099   6.407   2.588 -0.0076 -0.0322  0.2045
10867W        W26484   1.440   6.177  14.645  0.0478 -0.0563 -0.4955
10868W        W26485   0.821   6.247  16.540  0.0136 -0.0975  0.0808
10869W        W26486  16.375   4.755   0.152  0.1063 -0.2704  0.1098
10870W        W26487   9.493  10.633   0.062 -0.2162 -0.2235  0.0848
10871W        W26488   8.120   8.821   1.336  0.1151 -0.2282 -0.0175
10872W        W26489  13.149  11.840  13.996 -0.2594  0.0964 -0.0628
10873W        W26490   3.743   6.889  12.185 -0.0511 -0.4963  0.1715
10874W        W26491   5.382   8.258   1.954  0.1350  0.0628 -0.0473
10875W        W26492  11.140   9.455   5.500 -0.0164 -0.1883  0.2150
10876W        W26493  12.987  17.662   4.468  0.0389  0.2726  0.0014
10877W        W26494   9.707  12.496  13.683  0.1118  0.2046 -0.2115
10878W        W26495  16.687   4.423   3.597  0.3251 -0.1287 -0.0330
10879W        W26496  11.270  17.046  13.724  0.0051  0.0347 -0.0176
10880W        W26497  11.523   3.144  12.203  0.2179  0.3018  0.0818
10881W        W26498   0.412   1.513  11.437  0.1720 -0.0055 -0.2117
10882W        W26499  11.348   6.595   5.383 -0.0205 -0.3414  0.0019
10883W        W26500  12.579   9.427   4.905 -0.1796  0.0195  0.1399
10884W        W26501  16.370  15.400   0.138 -0.2709  0.1751 -0.2777
10885W        W26502  11.264   8.519   5.387 -0.0282  0.0086 -0.0781
10886W        W26503   6.132   6.780  12.880  0.1682  0.0142  0.6352
10887W        W26504  12.519  17.533  15.709 -0.2634 -0.2142  0.1890
10888W        W26505  14.247   0.083   5.310 -0.2261  0.0363  0.0044
10889W        W26506   9.047  12.214  14.178  0.1401  0.2884 -0.0336
10890W        W26507   6.351   7.959   3.870 -0.2086 -0.2698 -0.1471
10891W        W26508   4.563   5.629  15.291 -0.0676 -0.0844 -0.0935
10892W        W26509  16.961   5.436  13.845 -0.0526  0.1654  0.1193
10893W        W26510   3.944   8.685  11.820 -0.1951 -0.0408 -0.0236
10894W        W26511   1.789   2.964   1.696  0.0001  0.0434  0.2294
10895W        W26512  12.822   3.333  14.429  0.1032  0.0278 -0.0702
10896W        W26513  16.364   8.087  16.043  0.1557 -0.0544 -0.1934
10897W        W26514  11.059   1.114   2.279 -0.2525  0.0835 -0.0907
10898W        W26515   7.073  15.572   5.040 -0.0826  0.2801  0.2298
10899W        W26516   8.747   9.226  13.705 -0.2024  0.0275  0.0074
10900W        W26517   4.213  11.106  11.523  0.0871 -0.2250  0.4918
10901W        W26518  15.978  15.318   4.960  0.0750  0.2513  0.0617
10902W        W26519   4.095  13.678   2.971  0.3146 -0.0516 -0.3784
10903W        W26520   2.221   4.795   2.448 -0.1654 -0.0188  0.1781
10904W        W26521  10.925  16.061   0.533  0.1610  0.0386  0.2096
10905W        W26522   3.391  12.483  16.572  0.1979  0.3762  0.1597
10906W        W26523  12.475   1.973   2.494  0.0338  0.2206 -0.2131
10907W        W26524  12.372   6.439  12.318  0.0328 -0.3469  0.2152
10908W        W26525   3.732   3.972   1.085  0.0212 -0.0689 -0.1521
10909W        W26526   0.057  15.591   6.958  0.1187 -0.2456  0.0799
10910W        W26527   0.184   1.787   3.242 -0.2985 -0.0680 -0.1424
10911W        W26528  15.934  15.788  16.222  0.1558 -0.1072 -0.0772
10912W        W26529  11.077  14.687  13.480  0.0863 -0.1129 -0.1008
10913W        W26530   2.015  14.508   3.559 -0.0994  0.2590  0.0616
10914W        W26531   0.094  17.925   5.125  0.0737  0.0606  0.0356
10915W        W26532   1.974   6.073  13.172 -0.2600 -0.2443  0.1133
10916W        W26533   7.288  15.784  12.196 -0.0821 -0.0224 -0.0003
10917W        W26534  15.062  17.545   1.087 -0.1520  0.0763 -0.0405
10918W        W26535   8.690   9.081  12.877  0.0599  0.2174 -0.1138
10919W        W26536  11.681   0.800   1.192  0.2622 -0.0174  0.2000
10920W        W26537  14.569  17.591   4.826 -0.0307 -0.0335 -0.0203
10921W        W26538   4.745   9.411   1.586 -0.0204  0.0841  0.1225
10922W        W26539  10.178  10.848  11.858 -0.3503  0.0382  0.0016
10923W        W26540  13.948   1.525  12.371  0.0322  0.0492 -0.1791
10924W        W26541  18.044  11.146  14.370  0.1116  0.1126 -0.3650
10925W        W26542  17.016   1.069  16.325 -0.1479  0.0144 -0.2301
10926W        W26543   7.592   5.214   3.031  0.3459 -0.1390 -0.0043
10927W        W26544   8.819   0.866   6.096  0.0212  0.1572  0.0188
10928W        W26545  17.062  17.181  16.272 -0.0122 -0.0365  0.1282
10929W        W26546   1.329   2.648   6.713 -0.3160  0.1733  0.3820
10930W        W26547  12.840  11.255   2.559 -0.0559  0.1598 -0.2438
10931W        W26548   9.268  14.976  15.429 -0.3102 -0.3405  0.1171
10932W        W26549   1.888   5.968   0.768  0.3323 -0.1269 -0.0104
10933W        W26550  11.636  14.346   3.793 -0.2412 -0.0809 -0.0970
10934W        W26551   8.690   7.309  16.491  0.1901 -0.3657  0.2579
10935W        W26552   0.648  17.366   0.149 -0.1281  0.2569 -0.2614
10936W        W26553   9.762   8.373  13.051 -0.1396  0.1617  0.0409
10937W        W26554   8.830  12.942  14.820 -0.0468  0.1234 -0.1054
10938W        W26555  12.584  14.329  13.772 -0.2523  0.0796 -0.5078
10939W        W26556   5.861  13.768  15.172  0.1814 -0.2302 -0.1384
10940W        W26557   0.034  13.864  12.891  0.0998 -0.0754  0.0101
10941W        W26558   5.248   0.355   5.640 -0.1572  0.2254  0.1432
10942W        W26559  15.452   6.877   4.331 -0.2800 -0.1044  0.2311
10943W        W26560  13.707  16.773   3.880  0.0042 -0.0262  0.0189
10944W        W26561   6.842   2.575   4.238  0.3373 -0.0745 -0.0983
10945W        W26562  17.577   2.181   0.591  0.4201 -0.0149 -0.2506
10946W        W26563   9.460   7.549   1.643 -0.2501 -0.0405 -0.0756
10947W        W26564  15.213  11.115   4.969  0.1414 -0.0892 -0.2640
10948W        W26565  16.669   5.905  12.879  0.3400  0.0663  0.0450
10949W        W26566  14.294   9.393  11.756  0.2260 -0.0162 -0.3668
10950W        W26567   8.888   7.716   2.666  0.5402 -0.0021 -0.0125
10951W        W26568   7.183  10.128  11.370 -0.1387  0.0055  0.0717
10952W        W26569   8.175  14.986  11.115 -0.1227 -0.0349 -0.3214
10953W        W26570  15.992  11.786  12.633  0.0515 -0.0030 -0.1049
10954W        W26571   4.739  10.768  14.467  0.1139 -0.0926  0.1467
10955W        W26572   3.945   7.813  12.254 -0.1459 -0.1212  0.1535
10956W        W26573   3.708  16.454   0.405 -0.0541  0.1565 -0.2901
10957W        W26574   9.415   8.077   1.894  0.0739 -0.0999 -0.0783
10958W        W26575  12.813  13.592  14.788 -0.3001  0.2555  0.1559
10959W        W26576  10.917  10.512   3.059 -0.1554 -0.2946  0.1370
10960W        W26577  17.559   6.377  16.098  0.0664 -0.1586  0.2031
10961W        W26578  15.564  15.762  16.610  0.0486  0.0982 -0.5108
10962W        W26579   5.241   4.975  16.139 -0.0597  0.2153 -0.1886
10963W        W26580  11.481  17.681  16.002 -0.1184 -0.0268  0.0901
10964W        W26581   4.248  14.037   0.621  0.1019 -0.0144 -0.3231
10965W        W26582   5.227   9.823   0.037 -0.0729  0.1348 -0.1562
10966W        W26583   4.345   5.899  12.942  0.2051 -0.1444 -0.3905
10967W        W26584   8.617  10.408  14.518 -0.0777  0.0586  0.3832
10968W        W26585  10.654  11.449   2.898  0.0155 -0.3563 -0.0223
10969W        W26586   7.582  11.156  11.835 -0.2280 -0.3502  0.1220
10970W        W26587  15.553   0.728  13.655  0.1262 -0.1665  0.1794
10971W        W26588   7.973   3.104  14.024  0.2038 -0.1790 -0.0580
10972W        W26589   2.751   0.336  15.754  0.0869  0.0332 -0.1283
10973W        W26590  10.687   0.608  15.030  0.1164 -0.1327 -0.0874
10974W        W26591  13.571   2.885   4.013  0.1486  0.0502  0.1753
10975W        W26592  16.881   2.355  16.140 -0.2032  0.1564  0.1028
10976W        W26593   6.470  15.720  16.518  0.0727  0.0086 -0.0950
10977W        W26594   3.182  13.343   5.468  0.0136  0.0477 -0.1323
10978W        W26595  17.567  18.037   0.336 -0.0197 -0.0116  0.0944
10979W        W26596  13.008  14.419   4.103  0.0845 -0.1857  0.0339
10980W        W26597  12.919   2.200  14.307  0.1848 -0.0080  0.0737
10981W        W26598   0.010   8.470   0.476 -0.2756  0.1412 -0.0965
10982W        W26599   5.017   5.181  11.419  0.3555 -0.2501  0.1065
10983W        W26600  12.422   7.252   4.910  0.1608 -0.1449  0.0244
10984W        W26601   5.122   4.491  12.934  0.1800 -0.0203 -0.2482
10985W        W26602  11.671   7.572  12.631 -0.0784  0.3741  0.1994
10986W        W26603  17.260  14.665   2.403  0.2091  0.0357 -0.3085
10987W        W26604   7.261  16.213  15.643 -0.0633 -0.0435 -0.1507
10988W        W26605  14.176   0.849  12.171  0.3725 -0.1023 -0.1217
10989W        W26606  12.853  11.665   1.749  0.1361 -0.1141  0.0974
10990W        W26607  11.274   9.616   4.057 -0.1066  0.1166  0.1409
10991W        W26608   8.056  17.363  13.868  0.2698 -0.3144  0.0838
10992W        W26609   2.240   6.894  12.673  0.1336 -0.2363 -0.0096
10993W        W26610   3.251  14.211  15.853 -0.2698  0.0506 -0.1268
10994W        W26611  14.291  17.965   1.352 -0.0936  0.0651 -0.0287
10995W        W26612  12.286  17.641  13.319  0.0241  0.2745 -0.0547
10996W        W26613   3.585   9.427  13.432 -0.2276  0.1435  0.1440
10997W        W26614  16.297   9.403   4.752  0.2445 -0.2150 -0.0988
10998W        W26615   9.950  12.049  14.811 -0.1366  0.4140 -0.1680
10999W        W26616  16.042   5.414   6.761 -0.1468 -0.1418  0.0702
11000W        W26617   7.493   1.223   4.945  0.1242 -0.2480 -0.3215
11001W        W26618   0.802  14.781  16.094 -0.1955 -0.0407  0.2604
11002W        W26619  11.413   1.682  15.909  0.0693 -0.0990  0.1287
11003W        W26620  14.035   2.236   1.347  0.3689 -0.4311  0.0514
11004W        W26621  12.909  14.029  12.255  0.0032 -0.0417 -0.1630
11005W        W26622   9.814   2.830  16.156 -0.3548 -0.0474  0.3338
11006W        W26623  15.482  16.693   6.371 -0.0504 -0.2184  0.4192
11007W        W26624  16.384   2.532  15.842  0.0998  0.1729 -0.1897
11008W        W26625   1.237  15.988  13.477 -0.0027 -0.0501  0.0021
11009W        W26626  12.087   7.498  14.890 -0.0449 -0.0433 -0.2201
11010W        W26627  13.025   2.271   3.832 -0.0358  0.1276 -0.0595
11011W        W26628   0.350   9.912   4.237  0.1349  0.0023  0.1735
11012W        W26629   0.632  13.636   2.347  0.2607 -0.2366 -0.3876
11013W        W26630   0.151  15.777  15.510  0.1550  0.0332 -0.0367
11014W        W26631   0.093   8.430  15.985  0.1442  0.2569 -0.2362
11015W        W26632  12.154   7.541  11.612 -0.2044  0.2742  0.0425
11016W        W26633   7.645   6.662  12.055  0.3122 -0.0201 -0.2005
11017W        W26634   0.818  17.210  11.846 -0.2328 -0.5155  0.0772
11018W        W26635   7.436   3.805   4.828 -0.3274  0.1539 -0.0173
11019W        W26636   6.425  15.782   0.476  0.1229  0.0482  0.3205
11020W        W26637   3.042  14.232   5.353  0.2277  0.0288 -0.1110
11021W        W26638  17.621  16.100  14.247 -0.3765  0.1317  0.1899
11022W        W26639   4.548  13.140  16.003  0.2532  0.1864 -0.2642
11023W        W26640   9.996   6.648  11.916  0.0543 -0.3145  0.3281
11024W        W26641  10.797  15.836  15.849  0.0472 -0.1790 -0.0312
11025W        W26642   9.129  10.110  15.240 -0.0734  0.2465  0.0379
11026W        W26643   9.945  17.113   4.677 -0.2559  0.3697  0.3646
11027W        W26644  13.512  11.105   2.825 -0.0508  0.2754 -0.0668
11028W        W26645   2.421   8.300   5.303  0.0668  0.2812  0.2601
11029W        W26646   4.412   7.789  15.159  0.1855  0.1456  0.0004
11030W        W26647  15.654   3.590   2.999  0.0384  0.2600  0.0912
11031W        W26648  13.781  14.565  13.339 -0.0111 -0.1162  0.0226
11032W        W26649   2.715  14.858  16.202  0.1588  0.0318  0.0371
11033W        W26650  13.984   3.120   5.339 -0.1208  0.3038 -0.2557
11034W        W26651  17.739  17.813  12.369  0.0746  0.2414 -0.0346
11035W        W26652   9.682   5.831   0.382 -0.0994  0.2675 -0.0785
11036W        W26653  11.898  16.887   5.455 -0.0078  0.0830  0.3415
11037W        W26654   1.613   1.338   2.942  0.0231 -0.1578  0.0576
11038W        W26655  13.321   5.430   3.973 -0.0688  0.0854  0.0380
11039W        W26656  14.559  16.622  12.064  0.1378 -0.1130  0.3024
11040W        W26657   1.183   1.788   0.709  0.0637  0.1749  0.1919
11041W        W26658   5.808   8.072  13.095 -0.2164 -0.1490 -0.0250
11042W        W26659   7.701  12.821   5.942 -0.1287 -0.2532 -0.2566
11043W        W26660  10.384   4.834   4.566 -0.1068  0.3650 -0.1982
11044W        W26661  17.857  14.268   3.834  0.1174 -0.0777  0.0375
11045W        W26662   9.806  15.319  15.858 -0.0074 -0.1907 -0.0562
11046W        W26663  14.481  11.469  12.238  0.2038 -0.1259 -0.3242
11047W        W26664  17.784   6.439   1.332 -0.0661 -0.0751 -0.0537
11048W        W26665   5.978  14.974   2.810 -0.0077  0.1803  0.2664
11049W        W26666   4.906   4.476  16.179 -0.0704  0.2319 -0.2708
11050W        W26667  14.983  14.483  15.481 -0.0521 -0.5414  0.0212
11051W        W26668  11.361   1.419  13.124 -0.2453 -0.1307  0.4382
11052W        W26669  10.591  12.663  14.821  0.0088 -0.0676  0.1108
11053W        W26670   2.857  15.718  13.912 -0.1771  0.1671 -0.1466
11054W        W26671  14.164  16.894   5.091 -0.0254 -0.0383  0.2332
11055W        W26672  14.520   0.849   4.097  0.0747 -0.1267 -0.0889
11056W        W26673   9.057   9.093  13.282 -0.1892 -0.0795  0.1878
11057W        W26674   6.332  15.726   3.981  0.2518 -0.0748 -0.1271
11058W        W26675  13.743   5.971  15.682 -0.0789  0.2332 -0.0049
11059W        W26676  10.726   2.217   1.828 -0.0513 -0.1899 -0.4879
11060W        W26677   2.937   8.102   5.329  0.4699 -0.0983 -0.1842
11061W        W26678   8.785  12.737  15.266 -0.2220 -0.1723  0.1257
11062W        W26679   2.161   8.857  16.561  0.1718 -0.0416  0.1017
11063W        W26680  10.115  17.710   3.920 -0.3407  0.4963 -0.0939
11064W        W26681  15.561   0.617   3.809 -0.0424  0.0006 -0.1824
11065W        W26682   3.605  15.671  14.980 -0.1262 -0.3734  0.0409
11066W        W26683   5.474  16.405   3.551  0.1872  0.0723 -0.3419
11067W        W26684  10.179   8.891  13.661  0.2671 -0.2398 -0.1775
11068W        W26685   8.237   7.333   5.823  0.2291  0.0093  0.0328
11069W        W26686   8.766  11.009   2.467 -0.1887  0.0945  0.0673
11070W        W26687  12.095  15.022  12.494 -0.0183 -0.0498 -0.0180
11071W        W26688  11.302   2.215   0.508 -0.3095 -0.5846 -0.0074
11072W        W26689   5.433   6.802  13.104  0.0540  0.0344 -0.0847
11073W        W26690   8.994   1.825  12.793  0.2189  0.0519  0.0666
11074W        W26691   8.372   9.110   5.502 -0.1049  0.2128 -0.0871
11075W        W26692   2.284   6.285  15.314 -0.1519 -0.2203 -0.1186
11076W        W26693  16.015   5.795  16.148 -0.4905  0.2773 -0.0568
11077W        W26694  11.770  16.441   4.928  0.0068 -0.0870 -0.1573
11078W        W26695  16.818   3.929   3.852 -0.0821 -0.1313  0.1828
11079W        W26696   8.080  14.945   4.152 -0.1089 -0.0686  0.5587
11080W        W26697   2.519  12.602  15.406 -0.1270 -0.2982  0.2642
11081W        W26698  17.481  12.288   2.245 -0.1452 -0.2335 -0.1879
11082W        W26699   8.112  12.580   1.976 -0.1152 -0.0959 -0.1235
11083W        W26700  12.085   9.399  15.632  0.1720 -0.0459  0.1408
11084W        W26701  13.090   0.805   2.933  0.0110 -0.2679  0.2057
11085W        W26702   1.965  18.036  14.982 -0.1160  0.0626 -0.0415
11086W        W26703   2.773  14.990   3.804  0.0745  0.4789 -0.1162
11087W        W26704   3.469  15.504   0.357 -0.1122  0.4440 -0.1394
11088W        W26705  16.223  14.915  14.428 -0.0694 -0.0018  0.3234
11089W        W26706   6.648   8.679   0.680  0.2579 -0.3455  0.0696
11090W        W26707   2.030  11.705  15.856 -0.4255 -0.1122 -0.0714
11091W        W26708  13.136  13.725   1.644  0.3085 -0.3139  0.1634
11092W        W26709  14.813  16.608   1.339 -0.0388  0.2837 -0.0032
11093W        W26710  14.314  15.785   1.026  0.1612  0.1539 -0.0416
11094W        W26711  14.394  14.097  13.770  0.1211 -0.0438  0.2242
11095W        W26712   9.110  14.325   3.055  0.0940  0.0931 -0.0978
11096W        W26713   6.151  16.376  14.448 -0.0652  0.1835 -0.0960
11097W        W26714   2.005   0.379  13.059  0.0138  0.1152 -0.1855
11098W        W26715  14.443  15.746   6.232  0.3323 -0.2443 -0.1150
11099W        W26716   6.319   3.437   3.650  0.0110 -0.0525  0.1332
11100W        W26717   8.788  11.349  13.527  0.1600 -0.2742  0.0583
11101W        W26718  17.190   1.561  12.732  0.2087 -0.0219  0.2743
11102W        W26719  10.348   5.484  14.684 -0.0490 -0.1288  0.2679
11103W        W26720  17.690  10.919  11.919 -0.2418  0.0581  0.0691
11104W        W26721  13.060  12.269   6.185 -0.1511 -0.0074 -0.1323
11105W        W26722  11.104  17.268   5.366  0.0528  0.0469 -0.0641
11106W        W26723   5.762   9.357  13.994  0.0276  0.0284  0.0382
11107W        W26724  13.016  11.718  12.572 -0.0066  0.0405  0.1623
11108W        W26725   0.107   5.407  13.762  0.0195 -0.0089 -0.2394
11109W        W26726   5.197  12.193   3.388  0.0786 -0.2196 -0.1807
11110W        W26727   8.074   8.236   4.991  0.1077 -0.0185  0.1492
11111W        W26728   0.557   2.846  13.784 -0.0624 -0.2826 -0.1939
11112W        W26729  17.434   5.776   3.962 -0.1402 -0.0935 -0.3169
11113W        W26730  14.950  15.125  12.452 -0.0911 -0.3017 -0.0180
11114W        W26731  10.249   7.332  13.808 -0.0197 -0.4204  0.0673
11115W        W26732  17.035   1.025  14.894 -0.0507 -0.0784  0.0838
11116W        W26733   5.698   2.434  13.806 -0.2501  0.1090 -0.1591
11117W        W26734   3.441   5.955   4.205 -0.2172  0.1405 -0.0799
11118W        W26735   3.373   1.971  15.596  0.0361  0.0194  0.0111
11119W        W26736  16.113   2.082  16.014 -0.0694 -0.2021  0.1466
11120W        W26737   5.502   6.917   2.734 -0.2029 -0.1023 -0.0012
11121W        W26738   0.447   1.082   1.872 -0.2143  0.2408 -0.2976
11122W        W26739  12.208   6.722   5.873 -0.2312 -0.1178 -0.2720
11123W        W26740  17.027  17.146   4.036  0.1051  0.0442  0.1085
11124W        W26741   1.523   3.597   1.850 -0.0002 -0.1702 -0.3468
11125W        W26742   0.612   0.638  11.423  0.0152  0.0611 -0.3445
11126W        W26743   6.726  17.516  13.587 -0.5147  0.0105  0.3498
11127W        W26744   7.330  14.788  13.235  0.1127  0.1514 -0.0249
11128W        W26745  16.871   9.852  14.098  0.1955 -0.0205 -0.1293
11129W        W26746  14.190   2.951   1.200  0.0095  0.0038  0.0324
11130W        W26747  13.243   7.987  15.337 -0.2634 -0.1449  0.2115
11131W        W26748   2.776   0.128  16.729  0.0884  0.0586 -0.0820
11132W        W26749  11.713   7.546   0.636  0.0010  0.2542  0.0887
11133W        W26750  12.489  13.163  13.162 -0.0019 -0.1022 -0.0348
11134W        W26751  13.285  13.925   5.432  0.3736  0.0462  0.1466
11135W        W26752  14.117   5.639  14.816  0.0687 -0.1382 -0.0059
11136W        W26753  10.467   8.124  11.907  0.3821 -0.0909  0.1531
11137W        W26754   2.244   2.764   1.939 -0.0432 -0.2431  0.0052
11138W        W26755   3.986   0.962  13.525 -0.1040  0.0897  0.1003
11139W        W26756   9.319  12.249   0.608 -0.0223 -0.2165  0.0386
11140W        W26757  17.266  16.835  11.955  0.0692 -0.2282  0.0982
11141W        W26758   5.941   3.786  11.409 -0.1879 -0.2761 -0.2633
11142W        W26759   0.308   1.779  15.860 -0.2396  0.5210 -0.0672
11143W        W26760   2.243   4.166   0.757 -0.0893 -0.0751  0.1695
11144W        W26761  10.733   6.515  14.186  0.1232  0.1150  0.0623
11145W        W26762  13.046   8.886   1.728  0.0433  0.1662 -0.1798
11146W        W26763   8.639   5.235  11.862 -0.0741  0.3352 -0.0987
11147W        W26764   0.507  14.469   0.723 -0.0628 -0.2200  0.0541
11148W        W26765  12.004  11.967   5.288  0.2051  0.3333  0.2834
11149W        W26766  16.430  11.463  15.971 -0.0833 -0.0196 -0.1872
11150W        W26767  15.889  13.320  11.771 -0.1451  0.1455 -0.1580
11151W        W26768  14.767   3.659  16.451 -0.1104  0.3544  0.1182
11152W        W26769   6.336   7.990  14.888 -0.2292  0.0242 -0.0143
11153W        W26770  17.153   5.646   2.352 -0.1245  0.1564  0.0784
11154W        W26771   0.676   6.202  14.119 -0.0762  0.2775  0.1242
11155W        W26772  17.812   4.577  13.204  0.5438  0.2927  0.2947
11156W        W26773  15.098  17.059   5.279  0.1649 -0.0578 -0.0786
11157W        W26774   3.135  13.303  14.002 -0.0088  0.0410  0.0247
11158W        W26775   0.063   3.867   6.388  0.2775  0.1865 -0.0469
11159W        W26776   2.455  10.283   0.554  0.0439 -0.1142  0.1306
11160W        W26777   3.114  10.832   4.524  0.1833  0.0932 -0.1991
11161W        W26778   6.360   3.579  12.298 -0.2145  0.1616 -0.2366
11162W        W26779   8.062   2.985   0.523  0.2448  0.0772  0.1968
11163W        W26780   9.024   4.463  10.962  0.1185  0.2308 -0.0899
11164W        W26781   5.733   2.813   1.498  0.0544 -0.0245 -0.1144
11165W        W26782   0.847   0.756  12.298 -0.1304  0.0256  0.1282
11166W        W26783   1.899  15.418   3.852  0.3630  0.0080  0.1781
11167W        W26784   2.513   5.273   2.356 -0.2054  0.3406 -0.1561
11168W        W26785   0.995   3.843   6.212  0.1953 -0.3763  0.1371
11169W        W26786  14.070  14.817   5.407  0.0935  0.0298 -0.3539
11170W        W26787   1.010  11.027   2.232  0.1445 -0.4596  0.2301
11171W        W26788   7.801   7.939  11.777  0.1133  0.1370  0.3518
11172W        W26789   7.647   3.923   0.175 -0.0143  0.4065 -0.1836
11173W        W26790  16.331   2.738   4.978  0.0934  0.1455  0.3562
11174W        W26791   7.663  10.712   4.733  0.3520 -0.0616  0.4091
11175W        W26792   9.094  11.682   3.167 -0.2041 -0.5164  0.1657
11176W        W26793   0.615   4.111  16.453 -0.1016  0.2861  0.0005
11177W        W26794  14.460  15.915  13.024 -0.0790 -0.1163 -0.0929
11178W        W26795   3.773   1.339  13.883 -0.4379 -0.2372 -0.0062
11179W        W26796  10.126  10.166  12.275  0.1883  0.0308  0.3563
11180W        W26797  17.452  12.299   5.262  0.0667  0.0228  0.1302
11181W        W26798   2.022  16.241  10.569 -0.0421  0.2305 -0.1085
11182W        W26799  12.500   4.176  15.647  0.5081  0.2956  0.1089
11183W        W26800   0.882   0.974  11.843 -0.0213  0.1893 -0.4250
11184W        W26801   2.529  15.327  16.608 -0.1925 -0.0232 -0.6234
11185W        W26802  12.703   3.410   5.489  0.0325  0.0121  0.0097
11186W        W26803   7.063   1.184  14.163  0.1674  0.1074  0.0226
11187W        W26804   0.480  17.718  12.532 -0.0399  0.2116 -0.1067
11188W        W26805  12.319  11.955  16.453 -0.0267  0.2133 -0.1068
11189W        W26806  17.927   2.263   6.136  0.0181 -0.0406 -0.2975
11190W        W26807   9.187   7.169   0.485 -0.1205  0.1630  0.4053
11191W        W26808   7.427   2.140  16.740 -0.1445  0.1849  0.1288
11192W        W26809  16.634  14.633  14.341 -0.0001  0.2265 -0.2879
11193W        W26810   6.411   2.391  11.920  0.1844 -0.0154  0.0713
11194W        W26811   9.796   0.943  16.326  0.0823 -0.3103  0.2543
11195W        W26812   3.374   6.450  14.783  0.2239 -0.1402  0.0364
11196W        W26813  10.772  11.902   3.327  0.1543 -0.0500  0.2686
11197W        W26814   6.437   3.834   5.619 -0.1847  0.1504 -0.1203
11198W        W26815  16.047  17.047   3.649  0.1350  0.2140  0.1535
11199W        W26816  16.518   3.816  14.892  0.0327  0.0278 -0.0724
11200W        W26817   1.596   7.290   2.635 -0.3831 -0.1136  0.0293
11201W        W26818   2.294  15.457  12.120  0.0933  0.1113  0.0822
11202W        W26819   9.813  14.328  16.469  0.1026  0.0741 -0.0996
11203W        W26820  15.453  15.373   5.991 -0.2318  0.1380  0.0264
11204W        W26821  17.718   2.855   5.285  0.0115 -0.0941 -0.5154
11205W        W26822  17.036  13.448   1.587  0.0101  0.0299  0.3363
11206W        W26823   6.668   9.561   0.276  0.0076  0.1106 -0.3925
11207W        W26824  15.149   7.423   1.343  0.2090  0.0359 -0.1688
11208W        W26825   7.997   0.427  16.361  0.2210 -0.1498  0.1248
11209W        W26826  11.960  12.127  15.037 -0.2117 -0.1341  0.0458
11210W        W26827  10.738   3.747  11.515  0.0287  0.3229  0.2608
11211W        W26828   7.417  11.340   1.045  0.2528  0.2819  0.3597
11212W        W26829  13.964   1.377   2.559 -0.1357 -0.2700  0.1694
11213W        W26830  11.039  13.617  13.838 -0.0224  0.6183  0.1274
11214W        W26831   2.450   5.844  15.444  0.0197 -0.1297 -0.0934
11215W        W26832  17.708  14.333  15.048  0.0477 -0.1801  0.1907
11216W        W26833  13.809   1.841   2.172 -0.0336  0.1807  0.2509
11217W        W26834  15.614   0.906   2.291  0.0275 -0.1191 -0.1005
11218W        W26835   3.860  10.493   2.184 -0.0619 -0.3999  0.1189
11219W        W26836   0.460   7.500   0.008 -0.4113  0.0351  0.1268
11220W        W26837  14.710  11.136   4.681  0.0702  0.0939  0.1151
11221W        W26838  11.899   7.965   3.404  0.1886  0.1075  0.2157
11222W        W26839  10.364   2.891  16.214  0.0521  0.0783  0.4872
11223W        W26840   8.714  11.787  15.691  0.4147  0.0023  0.1283
11224W        W26841   8.926  13.676  14.057  0.1568 -0.4050 -0.1429
11225W        W26842   4.239   5.172  15.413 -0.0516 -0.1700 -0.0335
11226W        W26843  16.039  17.642  11.563  0.2272 -0.2586  0.1712
11227W        W26844  17.839  11.272  12.363  0.2072  0.1970  0.2620
11228W        W26845   3.075   9.799   4.192  0.2157  0.2357 -0.0463
11229W        W26846   5.058  10.561   3.377  0.2299  0.1749  0.0526
11230W        W26847   7.124  14.982   5.046  0.0961 -0.0858 -0.1706
11231W        W26848  16.394  11.588   5.238  0.3233  0.0270 -0.3673
11232W        W26849   9.868  11.767   0.545  0.0720  0.0377 -0.1210
11233W        W26850   4.140  13.789  10.559  0.0526  0.0335 -0.1091
11234W        W26851   0.234  11.418  14.969  0.2402  0.0338 -0.0260
11235W        W26852  14.600   5.986  12.120 -0.1896 -0.2591 -0.2142
11236W        W26853   2.148  17.495  13.946  0.2666  0.0697 -0.0721
11237W        W26854   3.796  13.729  13.819  0.1325  0.1342 -0.2002
11238W        W26855  13.026  12.968   3.824 -0.0162  0.0023 -0.2304
11239W        W26856   0.844   8.046  15.292  0.2153 -0.0343 -0.2755
11240W        W26857  17.580   9.966  14.854 -0.0192  0.1842 -0.0665
11241W        W26858   6.431  18.016  15.002 -0.1327  0.0097  0.0360
11242W        W26859  15.025  10.852  14.968  0.1387 -0.1938  0.0811
11243W        W26860   2.161   6.703  14.266  0.0128  0.1859 -0.0799
11244W        W26861  15.521  10.853  16.245 -0.1149  0.0458 -0.0500
11245W        W26862   4.483   0.576  10.672 -0.2473  0.0297 -0.2588
11246W        W26863   7.187   9.687   4.065 -0.1086 -0.2256 -0.1046
11247W        W26864  17.695   0.274   4.412  0.1664 -0.2609 -0.0655
11248W        W26865   2.682  16.835  11.845 -0.0448 -0.2087  0.1027
11249W        W26866  17.314   6.555  11.890  0.0768 -0.0808  0.2799
11250W        W26867  11.884   1.027   4.491 -0.0631  0.3186 -0.3632
11251W        W26868  15.711   0.619  12.372 -0.2615  0.1229  0.2490
11252W        W26869  17.338   0.585   2.541 -0.3546  0.2102 -0.2200
11253W        W26870   7.978   2.147  15.169  0.1468 -0.2633  0.2892
11254W        W26871   9.458   1.156  13.191 -0.1740  0.0959 -0.1609
11255W        W26872  15.764  11.765   1.218 -0.2095  0.2282  0.1911
11256W        W26873   4.378  14.385   3.442 -0.0771  0.1215  0.1224
11257W        W26874   2.573  12.679  13.167 -0.1820 -0.0588 -0.1957
11258W        W26875   8.922   5.863  10.611 -0.0942 -0.2286  0.1460
11259W        W26876   2.390  14.034  16.613 -0.0332  0.2875  0.0830
11260W        W26877   8.765  17.007   4.154 -0.0595  0.0218  0.1268
11261W        W26878  16.814  13.964  15.012 -0.1990 -0.0732 -0.1732
11262W        W26879   5.134  15.453   1.796  0.1060 -0.2592  0.2984
11263W        W26880   9.161  13.060  15.629  0.4817  0.0789  0.1702
11264W        W26881   1.185   5.048  14.153 -0.0035  0.1499  0.0514
11265W        W26882   2.911   5.715  13.746 -0.1916 -0.2230  0.0364
11266W        W26883  10.238   8.413   0.107 -0.1701  0.0375 -0.0660
11267W        W26884  10.031   4.463   4.592 -0.3728  0.1378 -0.0138
11268W        W26885   4.355   7.355  14.982 -0.2555  0.0134  0.3891
11269W        W26886  11.835   7.423   2.683 -0.2372  0.3073 -0.0165
11270W        W26887   3.404  15.367  12.987 -0.2259 -0.3932  0.0372
11271W        W26888   7.095   5.714   2.211 -0.1654  0.0356 -0.3470
11272W        W26889  15.117   1.877  14.025 -0.1660  0.1077 -0.1992
11273W        W26890   5.888  11.121   3.187  0.0710  0.1096  0.1425
11274W        W26891   8.786   8.982  14.465  0.0481  0.1998 -0.0869
11275W        W26892   8.348   8.468   2.640 -0.0560  0.0567 -0.0770
11276W        W26893   7.451  15.994   3.386 -0.0862 -0.0268  0.0748
11277W        W26894   0.061  13.347   5.363  0.1081 -0.1054 -0.0406
11278W        W26895  13.043   3.650  14.106  0.3875 -0.2938  0.1137
11279W        W26896   1.902   2.522  11.893  0.3430 -0.0952 -0.2797
11280W        W26897  12.335  17.675   5.391  0.1709  0.0314  0.0384
11281W        W26898   9.393   6.616   4.555  0.0225 -0.1398  0.0433
11282W        W26899  17.949   0.962   5.356 -0.2295 -0.2582  0.2017
11283W        W26900  16.556  12.111   4.386  0.1455 -0.1445  0.0309
11284W        W26901   5.627   4.124   0.884 -0.2062 -0.1167 -0.3364
11285W        W26902   9.405  13.133  13.438 -0.0541 -0.3168  0.1880
11286W        W26903  12.722  18.050  13.358  0.1740 -0.1854  0.0335
11287W        W26904  14.805  17.725  15.254 -0.3103 -0.0622  0.2025
11288W        W26905   8.360  16.414   1.151  0.2971  0.1092  0.1607
11289W        W26906   6.191  10.880  12.738  0.4418 -0.0311 -0.0578
11290W        W26907   1.059  15.852  13.003 -0.1483  0.0147 -0.0666
11291W        W26908  15.440   9.491   1.608 -0.0673 -0.0490 -0.0296
11292W        W26909   0.628  14.853   5.863 -0.0108  0.1121 -0.1017
11293W        W26910   2.103   8.995   4.263 -0.0513  0.2743  0.1677
11294W        W26911   0.868   7.008  11.809 -0.0719 -0.0155 -0.1933
11295W        W26912  12.649   7.937   0.320  0.1444 -0.1376  0.1126
11296W        W26913  10.591   1.973   3.575  0.5179 -0.2447  0.1986
11297W        W26914  12.960   8.993   3.985 -0.0835  0.0875  0.0417
11298W        W26915   3.293   0.764  14.445 -0.2956 -0.0587 -0.1614
11299W        W26916  10.683   5.669   4.291 -0.1167  0.0621 -0.0019
11300W        W26917  10.408   5.844  14.331  0.3316  0.0443 -0.0011
11301W        W26918  13.975  17.733   1.005  0.2668 -0.2515  0.1584
11302W        W26919   2.910   6.235  12.834 -0.0845 -0.1280 -0.1471
11303W        W26920   5.691   6.621  14.607 -0.3095  0.0686 -0.0052
11304W        W26921   7.617   1.954   4.596  0.1661  0.0029 -0.0148
11305W        W26922   8.596  16.561  14.403 -0.0790 -0.0011 -0.2297
11306W        W26923  15.735  17.156  12.340  0.1811  0.1775 -0.0681
11307W        W26924  14.486   5.743   2.464 -0.2548  0.2741 -0.0109
11308W        W26925   9.624  16.575   3.856  0.1888  0.0575  0.2777
11309W        W26926   0.025  17.125  13.490 -0.2405  0.1577  0.0215
11310W        W26927  11.205   0.170  16.761  0.1575  0.0556  0.1756
11311W        W26928   2.887  14.113  15.510 -0.2162  0.0264  0.0716
11312W        W26929   4.024  14.050  15.925 -0.0004 -0.0307 -0.2592
11313W        W26930  16.721   4.240   6.006 -0.1419  0.2544 -0.1091
11314W        W26931   4.978  11.225   3.430 -0.2555 -0.0841  0.0615
11315W        W26932   2.024   1.339   5.414  0.1559 -0.1859 -0.0373
11316W        W26933  15.412  12.537  15.794 -0.0793 -0.1313 -0.0320
11317W        W26934  16.502   4.466  14.176 -0.2289  0.2015 -0.1430
11318W        W26935  16.320   1.223   1.246  0.1640  0.2126  0.1988
11319W        W26936  17.435   2.772   1.701 -0.2574 -0.2087 -0.0549
11320W        W26937  14.575   7.167   4.029 -0.2447 -0.2361 -0.2832
11321W        W26938  10.343   7.748   0.852  0.1325  0.1290  0.3083
11322W        W26939   5.257   4.264  12.398 -0.0273  0.2716 -0.0893
11323W        W26940   8.387   6.171  14.612 -0.0485 -0.1242  0.0836
11324W        W26941  11.253  13.912   3.385  0.0794 -0.0849 -0.2123
11325W        W26942   8.046   0.378   5.049 -0.2072 -0.1316  0.0563
11326W        W26943   7.585  10.713  13.764 -0.0030  0.1011 -0.0636
11327W        W26944  10.105   4.630  16.109 -0.0794 -0.3542  0.0456
11328W        W26945   2.547  12.549   1.825 -0.3152 -0.0282  0.1715
11329W        W26946   7.305   0.425  11.332  0.1759  0.0297  0.0368
11330W        W26947   2.339  16.364   0.607  0.1161  0.0096  0.4220
11331W        W26948   2.678  16.582   3.971 -0.0536  0.4064 -0.0044
11332W        W26949   6.100   9.233   4.705 -0.0058  0.2917  0.1433
11333W        W26950   1.306   9.437   6.510 -0.1901  0.0680  0.0562
11334W        W26951   8.994   9.970  10.989  0.1641  0.3645  0.0451
11335W        W26952   7.016  15.895  13.393 -0.0960 -0.1838 -0.6258
11336W        W26953  16.641  10.767  13.695  0.0826 -0.2564 -0.1557
11337W        W26954  12.809  15.282  13.528  0.1282 -0.0090  0.2875
11338W        W26955   3.010  12.703  12.984 -0.1947  0.1067  0.3530
11339W        W26956  12.516   4.307   1.982  0.3258 -0.0269  0.2259
11340W        W26957   7.090   8.359   4.173  0.1313 -0.1234  0.1402
11341W        W26958   8.327  11.213   1.943 -0.1595 -0.0846 -0.3028
11342W        W26959   8.910  12.825   6.100  0.0021 -0.1425 -0.0267
11343W        W26960   3.459  18.020  15.489 -0.1313 -0.3015  0.1954
11344W        W26961  10.759   3.594   2.376 -0.1626 -0.2970  0.2539
11345W        W26962   3.337  14.235   5.935  0.3140  0.3057 -0.0469
11346W        W26963   2.335  13.420   2.818 -0.1272 -0.0498 -0.1154
11347W        W26964   4.758   3.158   1.447  0.2066 -0.2573 -0.1412
11348W        W26965  12.976  16.049  12.497 -0.1028 -0.0501  0.1492
11349W        W26966   5.691   1.889  15.666  0.0184  0.1486 -0.0503
11350W        W26967   9.129  13.210   2.585 -0.4553 -0.1004  0.0520
11351W        W26968  17.952   0.087  16.800 -0.0684  0.0806 -0.2444
11352W        W26969   7.787  11.810  16.372  0.0037 -0.1646  0.4138
11353W        W26970   5.902   6.576   2.198 -0.0520  0.1512 -0.3095
11354W        W26971   8.226   4.379   2.113 -0.1260  0.2241 -0.3746
11355W        W26972  16.449   5.857   4.136 -0.1354  0.0303 -0.2557
11356W        W26973  11.963   2.847  12.164  0.3807 -0.1698 -0.0210
11357W        W26974  15.161  10.086   0.378 -0.0958  0.1348 -0.0738
11358W        W26975  12.461  14.340  12.368 -0.0610 -0.5098  0.2119
11359W        W26976  16.146   0.768  14.838 -0.0015 -0.0650  0.0588
11360W        W26977  17.271   3.397  16.611 -0.3352 -0.4068 -0.1432
11361W        W26978  15.542   7.286  16.637  0.1036  0.1400 -0.0630
11362W        W26979   6.868   3.161   0.584 -0.1531 -0.1373 -0.0810
11363W        W26980   6.946  17.650   4.224 -0.2489 -0.0921  0.0897
11364W        W26981   6.050   4.119   2.509  0.1122 -0.0689  0.1725
11365W        W26982  10.424  11.365  15.577  0.0869  0.2679 -0.2733
11366W        W26983  16.473   4.630  12.681 -0.0259 -0.0253 -0.0302
11367W        W26984  13.177  11.655  16.648 -0.4376 -0.0667  0.2644
11368W        W26985  14.752  10.559  12.902  0.1602 -0.2893  0.3206
11369W        W26986  11.241   3.491  12.009 -0.3420  0.3143 -0.3567
11370W        W26987   4.245  10.048  16.392  0.1244  0.1513 -0.2042
11371W        W26988  16.571  13.112   6.398  0.0048  0.3487  0.1778
11372W        W26989   2.657   5.829  12.642 -0.2133  0.0574  0.1263
11373W        W26990   4.740   7.587   0.567  0.0255 -0.1662  0.2334
11374W        W26991   9.847   2.237   4.027 -0.1029  0.0674  0.0300
11375W        W26992   8.255   5.551  12.866  0.2122 -0.0525  0.1552
11376W        W26993  10.278   9.740  13.182 -0.0775 -0.1280 -0.1762
11377W        W26994   4.467   6.759  13.359  0.1597  0.0175  0.2376
11378W        W26995  13.586   0.619   3.101 -0.2577  0.0960 -0.6023
11379W        W26996  16.955   6.253   4.837 -0.1712  0.0213  0.0359
11380W        W26997  17.428  14.963   3.917 -0.1385  0.0681 -0.0865
11381W        W26998   8.996   2.531  12.304  0.0730  0.1487 -0.4294
11382W        W26999  12.483  11.173   1.479  0.0729  0.2145  0.0379
11383W        W27000  17.296  10.094   1.919  0.0926  0.2527 -0.3328
11384W        W27001  17.928  14.789  16.236  0.0990  0.3908  0.0463
11385W        W27002  13.823  12.783  13.634 -0.1031 -0.2270  0.0783
11386W        W27003  17.721  11.255  15.300  0.1463  0.1305 -0.1773
11387W        W27004  10.133   7.904   2.226  0.0171  0.0759  0.3625
11388W        W27005   7.204   5.978  13.332  0.2038 -0.3182  0.0261
11389W        W27006   3.845  10.655  14.776  0.0946 -0.1136  0.1275
11390W        W27007  15.705   8.242  14.144  0.2012  0.2599 -0.2858
11391W        W27008   6.909   5.794  12.826 -0.1169  0.0741  0.1467
11392W        W27009  14.859   0.667  10.914  0.2330  0.2457  0.4814
11393W        W27010   5.797   1.543  12.867  0.0320 -0.1362  0.2662
11394W        W27011  11.411   5.450  11.573  0.3394 -0.0070 -0.1335
11395W        W27012   1.642   3.558  14.300  0.1959  0.2250 -0.1528
11396W        W27013   9.959  16.122  14.593 -0.0780 -0.0547  0.1099
11397W        W27014  11.430   2.460  16.585  0.1088  0.3314  0.2914
11398W        W27015   1.567   5.161   2.566  0.1900 -0.5027  0.1404
11399W        W27016   3.408   4.899   5.258 -0.4150  0.2444 -0.2637
11400W        W27017  12.529   9.228  13.402 -0.2463  0.0122 -0.1740
11401W        W27018  14.038   3.762  13.384 -0.2311 -0.0974  0.1368
11402W        W27019   9.402  12.446   0.142  0.0515  0.0332  0.0492
11403W        W27020   6.110   4.602   2.615  0.0742  0.2838  0.2275
11404W        W27021   5.267   3.526   1.542 -0.1494 -0.0681 -0.1877
11405W        W27022   4.512  15.930   0.381  0.1208  0.0481  0.6292
11406W        W27023   9.279  10.103   5.507 -0.1082  0.2580  0.2590
11407W        W27024   5.269   8.813  11.202  0.2038 -0.0310  0.0724
11408W        W27025   9.491  15.919  16.403  0.2714  0.0810 -0.1379
11409W        W27026   8.120   2.647  14.132 -0.0922 -0.0457 -0.1690
11410W        W27027   0.042  15.972   6.576 -0.4497 -0.1432  0.0396
11411W        W27028   0.435   2.527  12.079 -0.1378 -0.0350 -0.3501
11412W        W27029   4.618   9.230   1.107  0.0594 -0.2738 -0.1006
11413W        W27030   1.262  14.718   1.701 -0.2047  0.0764 -0.0168
11414W        W27031   1.419   2.468  15.320  0.2909 -0.0872  0.0048
11415W        W27032   1.105   5.786  13.281  0.0458  0.2500 -0.2132
11416W        W27033   8.565  11.345  15.021  0.0120  0.1574 -0.1551
11417W        W27034   8.179  15.965  14.820 -0.2379 -0.0668 -0.0212
11418W        W27035   7.978  12.731  14.167 -0.3595 -0.1770  0.1231
11419W        W27036  15.076   0.478  13.437 -0.0522 -0.0217 -0.1410
11420W        W27037  17.133   4.931  13.532  0.2149 -0.0163 -0.1996
11421W        W27038   5.747   2.367  15.538 -0.0248  0.1907  0.0480
11422W        W27039   1.935  14.506  15.739  0.2654 -0.4081  0.0660
11423W        W27040  16.471   6.082  13.466  0.2703 -0.1689  0.1185
11424W        W27041   2.345  14.306   5.621  0.1564 -0.5143 -0.1579
11425W        W27042   2.651   6.380  14.353 -0.2950  0.0795  0.0682
11426W        W27043   0.287   2.755  16.713  0.5189 -0.0705  0.1768
11427W        W27044  10.536   4.885   2.604 -0.0451 -0.3531 -0.1147
11428W        W27045   0.853  14.933  15.051  0.0611  0.2230  0.2235
11429W        W27046   6.494  14.925  15.209  0.0536  0.4325  0.0760
11430W        W27047  16.199   5.940  15.578  0.0260 -0.3023  0.4563
11431W        W27048  14.784  16.747   2.959 -0.0355 -0.0828 -0.2158
11432W        W27049  16.431  12.526   0.495  0.2036  0.0372  0.2635
11433W        W27050  17.888  16.541   2.355 -0.0787 -0.2689 -0.2587
11434W        W27051  11.217   3.368   4.788 -0.1081 -0.0876 -0.0319
11435W        W27052   9.508   7.571  13.255 -0.0862  0.4423 -0.2715
11436W        W27053  13.513   8.211   0.244 -0.2056  0.0332 -0.0400
11437W        W27054  10.526  15.522   1.248 -0.2111  0.1479 -0.1291
11438W        W27055   4.251   4.778   0.954 -0.0262 -0.1092 -0.1342
11439W        W27056  15.633  14.571   2.864 -0.0235 -0.1547 -0.2946
11440W        W27057   6.966   4.662  15.450  0.1240 -0.0222 -0.1249
11441W        W27058   7.368   9.381  14.470 -0.0084 -0.1862  0.3247
11442W        W27059   6.004  12.967   4.959 -0.1305 -0.3147  0.0632
11443W        W27060   9.620   1.850  15.795 -0.2526 -0.2801  0.1073
11444W        W27061   0.234  14.651   1.502  0.0850 -0.3571 -0.1615
11445W        W27062   7.902  10.677  15.766  0.1478  0.1114  0.0218
11446W        W27063  15.621   4.242   0.125 -0.2987 -0.2816 -0.0258
11447W        W27064   9.039  16.072  12.741 -0.1682  0.2214  0.1754
11448W        W27065   0.119  10.102   2.006 -0.2352 -0.2982  0.0205
11449W        W27066  16.477  12.885   2.978 -0.2519 -0.1514 -0.2950
11450W        W27067  11.310   0.096  13.614 -0.1807  0.1877  0.0035
11451W        W27068   8.004  10.270   1.301 -0.1180  0.2117  0.0223
11452W        W27069   3.526   1.159   2.695 -0.1198 -0.2060 -0.2276
11453W        W27070   2.946   5.233  13.622 -0.0397 -0.1363  0.0252
11454W        W27071   8.815   4.945  15.116  0.3963  0.1808 -0.0806
11455W        W27072  12.730   7.906  16.600  0.2069 -0.1119  0.0709
11456W        W27073  10.736  16.194   5.116 -0.0812  0.0986  0.2680
11457W        W27074  17.390   8.898  11.594  0.0009 -0.1403  0.0281
11458W        W27075   1.152   9.660  15.109 -0.2489 -0.2979 -0.0498
11459W        W27076  17.084   0.590  13.671  0.1287 -0.0584 -0.1331
11460W        W27077  15.401  15.562   0.276  0.0178 -0.2226  0.0752
11461W        W27078  13.356   0.786  12.331  0.2590 -0.2600  0.0720
11462W        W27079   9.307   5.684   3.392  0.1331  0.1493 -0.3256
11463W        W27080   0.723  15.694   1.399  0.1592  0.0434  0.1213
11464W        W27081   3.591   0.580  15.757  0.2274  0.2440 -0.2601
11465W        W27082  12.784   0.456  11.291  0.2193  0.1427 -0.2529
11466W        W27083  13.350  13.271  11.661  0.0227  0.1343  0.2709
11467W        W27084  12.837   5.140   4.652  0.0431  0.0990  0.0212
11468W        W27085   5.848  13.666   4.367 -0.0850  0.1786  0.1685
11469W        W27086   8.091   0.708  16.769  0.1475  0.1135 -0.0109
11470W        W27087   0.041   9.119   0.667  0.1486 -0.3200  0.0872
11471W        W27088  15.118   9.080   4.329 -0.1356 -0.0695  0.1697
11472W        W27089  14.347  12.905  15.172 -0.2585  0.0116 -0.2622
11473W        W27090  14.072  16.512  12.912  0.1371 -0.1647 -0.0988
11474W        W27091   0.610   0.214  14.357 -0.2465  0.0636  0.1029
11475W        W27092  15.752  14.220   1.455 -0.1784  0.1032  0.0165
11476W        W27093  10.031  10.360  13.284 -0.1753  0.0836 -0.1264
11477W        W27094   7.991   9.910  11.678  0.1417 -0.0466 -0.0787
11478W        W27095  15.088  10.761   6.034  0.2010  0.2606 -0.1899
11479W        W27096  16.905  12.611   6.401 -0.0065 -0.2219 -0.0488
11480W        W27097   4.366   5.285  16.522 -0.0389  0.0050 -0.1583
11481W        W27098   6.143   3.656   0.600 -0.3123  0.5318 -0.1620
11482W        W27099   0.922  14.724  15.548  0.3277  0.0400  0.1694
11483W        W27100  10.370  10.136  15.908 -0.0462 -0.2135 -0.0951
11484W        W27101   7.811  13.631  14.335  0.1045 -0.1055  0.0925
11485W        W27102  15.247   5.751   6.049  0.0416 -0.2721  0.1362
11486W        W27103  11.982  12.878   1.623  0.1682  0.0452  0.1166
11487W        W27104   4.803  17.148   5.719 -0.0468  0.0392 -0.2582
11488W        W27105  11.634   7.947   4.582 -0.0161  0.0386  0.0656
11489W        W27106   3.915  16.249  15.378  0.1929 -0.1952 -0.2201
11490W        W27107   5.177   3.513  14.770 -0.0243 -0.0124  0.0149
11491W        W27108   7.267  13.143   5.105 -0.0668 -0.0008  0.0780
11492W        W27109   8.465  13.915  10.889  0.3478 -0.2270  0.0484
11493W        W27110  13.884   6.251   1.882 -0.1641  0.1057  0.0511
11494W        W27111  10.393   2.740  14.604  0.2907 -0.0902  0.0922
11495W        W27112  11.178   9.876  13.263  0.0231  0.0775 -0.3381
11496W        W27113   3.485   1.534   1.412 -0.2214  0.0698 -0.0410
11497W        W27114  14.979   9.898  14.847 -0.2487 -0.1831  0.2758
11498W        W27115   5.964   0.754  12.079 -0.0898  0.0552  0.3565
11499W        W27116   9.239   1.231   0.830 -0.0170  0.1201 -0.0241
11500W        W27117   6.890  10.125   1.260 -0.0767 -0.1422  0.1196
11501W        W27118   6.782   4.710   4.143 -0.1989 -0.0955  0.0921
11502W        W27119   0.114   0.584   0.090 -0.0484 -0.2678  0.4719
11503W        W27120  17.051  11.051   4.435  0.1618 -0.1050  0.1533
11504W        W27121   6.594   8.340  14.641  0.0113 -0.1576 -0.2919
11505W        W27122   2.262  16.591  16.552 -0.2057  0.2396 -0.0044
11506W        W27123   2.986   1.994  14.097 -0.0032 -0.1664 -0.1420
11507W        W27124  17.769  11.988  13.132  0.0648 -0.0281 -0.0521
11508W        W27125   6.798  14.521   1.046 -0.0949 -0.0036 -0.0307
11509W        W27126  17.156   9.904  16.411  0.0834 -0.3768  0.1072
11510W        W27127  16.700   0.984  13.416 -0.2045  0.6236 -0.0160
11511W        W27128  15.576   8.733   6.554  0.1916  0.1097 -0.1231
11512W        W27129   9.468   8.266   6.130 -0.1488 -0.0581 -0.0914
11513W        W27130  14.294   7.679  12.656 -0.0256 -0.0591  0.0249
11514W        W27131  14.725   1.316   5.138 -0.1432  0.4113  0.1593
11515W        W27132   0.557  17.835   1.449 -0.1003  0.0567 -0.1062
11516W        W27133   8.230  17.538  14.789 -0.3380 -0.0753 -0.0676
11517W        W27134  15.490  11.795   3.574  0.3632  0.4436 -0.2601
11518W        W27135   4.373   6.263   0.703  0.0483  0.1636 -0.1168
11519W        W27136  17.095  17.568  12.601  0.2448 -0.1381  0.0089
11520W        W27137  12.080   0.627  15.005 -0.2710  0.1580  0.0647
11521W        W27138  13.259   8.446  14.223 -0.1979 -0.5117 -0.1724
11522W        W27139   4.751   1.647  13.484  0.0696  0.0435  0.0490
11523W        W27140   5.587   4.253   3.329  0.1213 -0.0110 -0.2855
11524W        W27141   2.786   9.693  12.966 -0.2269 -0.1794  0.0094
11525W        W27142  12.285   9.662  11.926 -0.4954 -0.1361 -0.2632
11526W        W27143  14.312   8.172   0.319  0.0880  0.1705  0.0203
11527W        W27144  10.349  15.824  14.372 -0.1209  0.1246 -0.1443
11528W        W27145   8.634  10.961  12.781 -0.1610  0.1250  0.2204
11529W        W27146  17.761   1.374   1.463  0.0290  0.0967 -0.0863
11530W        W27147   2.159  16.397   2.559 -0.1514  0.0950  0.0568
11531W        W27148  13.779   8.782   0.231  0.0321 -0.2941  0.1593
11532W        W27149   9.640  10.046  12.499  0.0067  0.2904  0.1093
11533W        W27150   1.096  14.172   0.885 -0.1261  0.3315 -0.0232
11534W        W27151  11.836   4.169   4.885 -0.1587  0.1927 -0.1562
11535W        W27152   5.985   6.801  14.252  0.0607 -0.0541 -0.0430
11536W        W27153  13.957   2.533   5.132  0.0174 -0.1082  0.1327
11537W        W27154  12.380  11.696  11.926 -0.0436  0.0068 -0.1780
11538W        W27155  12.409   3.405  14.120  0.0394  0.1988 -0.2359
11539W        W27156  15.349  13.897   5.929  0.3566 -0.0120 -0.1683
11540W        W27157  10.489   6.847   0.557 -0.2270 -0.0373  0.1815
11541W        W27158   5.551   5.997   4.107  0.3095 -0.3072  0.2245
11542W        W27159  10.928   3.542  16.532  0.1303  0.3543 -0.1316
11543W        W27160  10.211  11.878   1.959 -0.1996  0.0258 -0.0385
11544W        W27161   1.734  15.318  14.629 -0.4107  0.0947 -0.5370
11545W        W27162  12.631  14.689   0.044 -0.0371 -0.0350 -0.1119
11546W        W27163   2.936  15.688   1.647 -0.0098  0.0784  0.4633
11547W        W27164   5.528   4.719  11.520  0.2068 -0.2762  0.0731
11548W        W27165  15.688  14.360   5.389 -0.2246 -0.2366  0.0816
11549W        W27166   5.107  12.058  16.291  0.1058 -0.1798  0.0956
11550W        W27167  12.470   1.240   4.562 -0.2492  0.1709 -0.2579
11551W        W27168   8.840   6.412   4.582 -0.2035  0.2556  0.3077
11552W        W27169  13.704   2.361  10.909  0.1070  0.1426  0.0915
11553W        W27170   5.604   2.918  14.094 -0.0594  0.0299 -0.0101
11554W        W27171   5.685   7.745  15.210 -0.0243  0.1406  0.2470
11555W        W27172  17.749   6.512   3.527 -0.2033  0.4553  0.3643
11556W        W27173  11.257   0.852   3.138  0.0200 -0.0305  0.4026
11557W        W27174  14.226   6.021   1.535 -0.1655  0.0922 -0.2628
11558W        W27175  10.897   3.397  14.317  0.0328 -0.0693  0.2789
11559W        W27176   9.768  12.197  10.018 -0.2886 -0.1061 -0.5263
11560W        W27177   3.310   6.405   0.615  0.0135 -0.1393  0.0571
11561W        W27178   4.144   8.046  15.945 -0.0734 -0.3205 -0.0541
11562W        W27179   9.070   0.512  16.570 -0.0612 -0.2309 -0.3429
11563W        W27180   8.786  13.485   2.845  0.2440 -0.1875 -0.1813
11564W        W27181   6.995   2.783  14.212  0.1018 -0.3097  0.1179
11565W        W27182   7.267   2.004   1.053 -0.1654 -0.1272  0.0518
11566W        W27183  12.997  10.684   0.827  0.1653 -0.0741  0.0839
11567W        W27184   2.270   5.244   6.247 -0.1059  0.1028  0.2093
11568W        W27185   2.406   7.855   3.124  0.0326 -0.2328  0.1520
11569W        W27186   4.168  12.101   1.322  0.1470 -0.1281 -0.0492
11570W        W27187  15.248   4.387  14.609 -0.1977  0.0954 -0.0346
11571W        W27188   4.619  13.325  13.010 -0.0027  0.1862 -0.3728
11572W        W27189  15.459   8.868   4.653 -0.0518 -0.0860 -0.0121
11573W        W27190   7.055  14.312   4.329 -0.0576  0.0654  0.0643
11574W        W27191   7.876   8.447   3.570 -0.3369 -0.0523 -0.0478
11575W        W27192   0.252   5.601   1.198  0.0364  0.1620  0.2387
11576W        W27193  13.453   3.421   4.662 -0.0203  0.0449 -0.0932
11577W        W27194  12.178   4.062   2.352 -0.0709  0.0852 -0.1385
11578W        W27195  15.833   8.325   4.367 -0.1467 -0.0569  0.0988
11579W        W27196  15.320  13.121  15.978  0.1149  0.3211 -0.0590
11580W        W27197   0.974   4.525   4.825  0.0390 -0.1416 -0.1096
11581W        W27198   0.507   2.143   3.370 -0.0487  0.1903  0.4220
11582W        W27199   6.364  12.997  13.817  0.1441 -0.1372 -0.2462
11583W        W27200  12.212  17.744  11.732  0.1178 -0.2930  0.3586
11584W        W27201   0.514   7.725  13.017  0.1316  0.3631 -0.0648
11585W        W27202  17.212  13.289  13.045  0.0753 -0.1267  0.0769
11586W        W27203   3.759   1.426   3.104  0.1965 -0.4133  0.0891
11587W        W27204   6.633   0.144   4.931 -0.1324  0.1821 -0.1692
11588W        W27205  14.549  10.827   1.168  0.0890 -0.2397  0.0113
11589W        W27206   5.617  18.017   5.554  0.1689 -0.1732  0.1749
11590W        W27207  14.882   6.509   2.512 -0.0725 -0.0693 -0.3448
11591W        W27208   0.417   5.675   3.378  0.2099  0.1554  0.2801
11592W        W27209  16.384   7.933   4.797 -0.0419 -0.0600  0.2259
11593W        W27210   5.978   7.235  16.521 -0.3373  0.0488 -0.1548
11594W        W27211  17.758   8.711  16.136  0.0110 -0.1981  0.1913
11595W        W27212   1.281   2.920   1.906 -0.0959 -0.3578  0.0001
11596W        W27213   9.001  10.536   1.584 -0.0167 -0.2436 -0.1361
11597W        W27214   3.598   2.514  15.697  0.1354 -0.0338 -0.1623
11598W        W27215  13.499   7.861  13.603 -0.1437 -0.1096  0.0606
11599W        W27216   5.323   9.215   3.011 -0.3052 -0.1089 -0.3574
11600W        W27217   0.042   2.491  15.209  0.1262 -0.0211  0.0133
11601W        W27218  18.018  12.472  13.405  0.1755  0.0312 -0.2959
11602W        W27219   2.188   9.162  12.896 -0.2413  0.0197  0.0439
11603W        W27220  14.747  10.248   5.007 -0.3219 -0.0334 -0.3170
11604W        W27221   3.214   1.884  14.737 -0.1221 -0.1043  0.3151
11605W        W27222   9.971   7.838  13.945  0.1758 -0.2332  0.1518
11606W        W27223  16.345  13.228   2.011  0.1500 -0.0518  0.0040
11607W        W27224   3.041  16.709   4.516 -0.0424 -0.0965 -0.1844
11608W        W27225  10.409  17.332   3.511  0.0359  0.2224 -0.0225
11609W        W27226   2.669  14.651   2.565 -0.0380 -0.0015 -0.0598
11610W        W27227  13.255   0.576  11.461  0.1419 -0.1364  0.1125
11611W        W27228  15.424  10.985  16.795 -0.1633  0.0199 -0.3962
11612W        W27229   8.633  11.493   1.215  0.3513  0.0369 -0.0764
11613W        W27230  14.074  15.396  15.266 -0.2077 -0.1142 -0.1449
11614W        W27231   7.431   0.931  14.421 -0.1756  0.1601 -0.3338
11615W        W27232  16.366  16.222  16.404 -0.4403 -0.1549  0.0064
11616W        W27233  15.174  16.252  15.235  0.3998  0.2753  0.2283
11617W        W27234   7.324  14.832   2.587  0.1866  0.1942  0.1552
11618W        W27235  10.433   6.524  12.691  0.0978 -0.0303 -0.0420
11619W        W27236   4.828   1.930  16.775  0.1896  0.2019  0.0920
11620W        W27237  16.140   8.296   5.184 -0.2042  0.3473  0.2788
11621W        W27238   3.460   0.563   0.401  0.0777  0.1099  0.1967
11622W        W27239  14.138   9.529  12.858 -0.1103 -0.1408 -0.2486
11623W        W27240   0.442  12.306  16.688  0.0391 -0.1402  0.0740
11624W        W27241  13.596  14.317   5.354  0.0539 -0.0256  0.0420
11625W        W27242   3.891   9.285  14.541 -0.1305  0.0335  0.1732
11626W        W27243  15.073   2.729  12.291  0.3173 -0.0718 -0.1191
11627W        W27244   5.065   5.348   1.368 -0.3538  0.1617 -0.0385
11628W        W27245   3.314   9.691  12.275  0.0074 -0.1530  0.2200
11629W        W27246  11.665  10.586   3.926 -0.0216  0.1605 -0.0194
11630W        W27247   1.717  10.201  16.256  0.1707 -0.2625  0.2687
11631W        W27248   5.901  16.123  12.732  0.1858  0.4308  0.0848
11632W        W27249   6.784  10.571   5.439 -0.1584  0.1215  0.2048
11633W        W27250   7.646   6.030   1.911 -0.1832 -0.0328  0.0406
11634W        W27251  13.155  11.052   1.069  0.1028 -0.2119  0.2594
11635W        W27252  16.670  10.677   5.108 -0.1802 -0.0746 -0.0300
11636W        W27253  12.018   5.663   4.816 -0.0335  0.0668 -0.0786
11637W        W27254  14.387  10.228  11.879  0.1514  0.1012  0.0729
11638W        W27255   7.028   5.104  11.538  0.0479  0.0645 -0.1725
11639W        W27256  12.488  16.775   0.863  0.1624  0.2238 -0.0730
11640W        W27257   0.859   5.140   3.782 -0.0603  0.1629 -0.0774
11641W        W27258   6.558  16.750  15.711  0.2773 -0.0312  0.0962
11642W        W27259  11.133  15.740  13.739 -0.0275 -0.0241  0.0349
11643W        W27260   9.457   3.552  14.206 -0.1114  0.1419  0.1326
11644W        W27261  16.686   2.004  12.588  0.0454  0.1469 -0.0618
11645W        W27262   3.521   4.956   4.570  0.0998  0.0475 -0.0677
11646W        W27263   9.691   6.889  11.089  0.0499  0.2075  0.1447
11647W        W27264   6.623   7.424  14.904 -0.2890  0.0244 -0.0517
11648W        W27265  15.616  16.567  15.444 -0.1308 -0.0413  0.1257
11649W        W27266  10.497  10.304  11.515 -0.0336  0.0603  0.0840
11650W        W27267   6.125   2.457   0.296 -0.1640  0.0381  0.0266
11651W        W27268   1.977   0.774  11.975 -0.2790 -0.0046  0.0578
11652W        W27269   3.760   6.830   4.656 -0.0422 -0.1405  0.2353
11653W        W27270   3.719  11.412   6.295 -0.1788 -0.2233 -0.0951
11654W        W27271  13.354   9.852  12.636  0.0018 -0.2732  0.0160
11655W        W27272   5.699   2.532   5.562  0.1871 -0.0715 -0.0404
11656W        W27273  12.137  10.765   2.225  0.0186  0.0436 -0.1739
11657W        W27274  11.023  11.151   0.855 -0.0240  0.3345 -0.0326
11658W        W27275   8.078  15.356  15.892  0.1636  0.2113 -0.1152
11659W        W27276  16.650   9.322  13.990  0.0455  0.0404 -0.1617
11660W        W27277  10.215  17.835  15.502 -0.0873  0.1172 -0.0156
11661W        W27278   1.055  14.579   3.641  0.1339 -0.0010 -0.0588
11662W        W27279   3.690   9.652  12.724  0.0049  0.2441 -0.1799
11663W        W27280   0.213   1.537   0.334  0.1027 -0.0570  0.0361
11664W        W27281  15.003  17.957  11.810 -0.0873 -0.2675  0.0629
11665W        W27282   4.907   2.463   6.094 -0.0177  0.3022  0.0079
11666W        W27283  16.492   3.989  16.025  0.0855  0.1180 -0.0351
11667W        W27284   7.251  13.669   4.969 -0.0558 -0.0640 -0.4178
11668W        W27285  13.902  13.586  13.401  0.0969  0.2953 -0.1928
11669W        W27286   5.316   9.136  14.180 -0.0405 -0.3109 -0.0244
11670W        W27287  11.423   4.171   2.790 -0.0092  0.0402 -0.2485
11671W        W27288  12.344   9.875  14.293 -0.2026  0.1244  0.1139
11672W        W27289  11.493   9.416  13.298  0.0941 -0.0745 -0.0253
11673W        W27290   2.230   0.658  13.983  0.2964  0.0690 -0.2541
11674W        W27291   6.055  17.079   5.381 -0.0276 -0.0297 -0.3347
11675W        W27292  11.815  13.278  11.414 -0.1141  0.4507  0.3753
11676W        W27293   7.912  14.879  15.703  0.1207  0.0624  0.1725
11677W        W27294  13.447   7.326  12.117 -0.1087 -0.2081  0.1347
11678W        W27295  15.083   1.159  14.823 -0.1500 -0.0105  0.0234
11679W        W27296   5.348   6.901   0.203  0.1425 -0.3044 -0.0949
11680W        W27297  15.680  15.362  16.292  0.2067  0.1073 -0.3994
11681W        W27298   2.956   9.244   2.418 -0.3110 -0.1714  0.1085
11682W        W27299  13.527   3.441   5.438 -0.2749 -0.1859  0.2319
11683W        W27300  15.535  13.272  10.724  0.1930  0.0881  0.1166
11684W        W27301  17.884   1.706  13.163  0.3303  0.0785  0.2248
11685W        W27302   0.405  14.076   2.567  0.0625  0.1296  0.0293
11686W        W27303  14.631   9.078   4.445  0.1122 -0.1342 -0.1754
11687W        W27304  10.612   4.439   2.286 -0.0738 -0.3113  0.0983
11688W        W27305  11.769   1.790   1.090 -0.1422  0.1138 -0.0769
11689W        W27306   5.973   8.023  10.460  0.0838  0.0071 -0.2135
11690W        W27307   8.778  16.269   2.947  0.2796  0.0401  0.1426
11691W        W27308  17.989  11.015  14.948  0.0017 -0.1679 -0.0485
11692W        W27309  11.015   2.047  12.260 -0.0647  0.3020  0.0073
11693W        W27310  16.217   6.653   0.079 -0.2492  0.3193  0.1679
11694W        W27311   8.965   4.138  11.998  0.1916  0.2570 -0.2930
11695W        W27312   3.076   9.768   0.119  0.1662 -0.0295 -0.1310
11696W        W27313  10.217  12.645  15.562 -0.0922  0.0455 -0.2160
11697W        W27314   8.830  11.617   0.365 -0.0371 -0.0107 -0.0697
11698W        W27315  14.414   6.182   5.693 -0.1583 -0.2286  0.0378
11699W        W27316  10.970   3.805   4.729 -0.0146  0.3355 -0.1307
11700W        W27317  13.609   4.055  16.443 -0.3799 -0.1677 -0.0606
11701W        W27318  16.190  13.417  16.059 -0.1123 -0.1013  0.3049
11702W        W27319  13.300   6.503  12.089 -0.1512 -0.2753 -0.0038
11703W        W27320   1.422   6.749  14.214 -0.1820 -0.2358  0.0450
11704W        W27321  15.356  16.584   1.264 -0.0307 -0.1711  0.3556
11705W        W27322   6.785   7.073   2.399  0.0708  0.2419  0.0847
11706W        W27323  13.686   1.942   4.234  0.0012 -0.0517 -0.2085
11707W        W27324  10.148  15.503  11.810 -0.0443  0.3341  0.1550
11708W        W27325   3.345  11.048  14.050  0.2325  0.3316 -0.2358
11709W        W27326  14.290   3.968   1.936  0.2258  0.0550  0.1093
11710W        W27327  13.636  17.508  15.306  0.0673 -0.2260  0.3259
11711W        W27328   4.731  17.421  11.577  0.2674 -0.1470  0.2061
11712W        W27329   4.078   6.162  15.757 -0.1961  0.1385 -0.2192
11713W        W27330   1.795   7.087  12.799  0.1478  0.0897  0.0426
11714W        W27331  13.952  10.321   0.954  0.2249  0.0559  0.0809
11715W        W27332   7.976  14.963   0.525  0.1864 -0.1292 -0.3955
11716W        W27333  14.534   3.696   5.455  0.1960  0.0503 -0.0867
11717W        W27334   6.979  10.455   2.484  0.3534  0.1220 -0.3744
11718W        W27335   1.244   3.931   5.446 -0.1104 -0.0601  0.2217
11719W        W27336  12.698  11.446   3.940  0.0188  0.0176 -0.4021
11720W        W27337  10.432   2.665   3.278  0.3164  0.2394 -0.1083
11721W        W27338   8.006  12.843  16.728  0.1289  0.1034  0.1483
11722W        W27339   5.502   8.796  14.520 -0.1578 -0.1280 -0.0717
11723W        W27340  11.064   6.775  11.521 -0.0059  0.3122  0.2591
11724W        W27341  11.016   7.235   3.158  0.1754 -0.0613  0.0172
11725W        W27342   2.519   3.644   2.065  0.2749 -0.0194 -0.2487
11726W        W27343   4.024   7.757  13.154 -0.0819  0.1759 -0.1534
11727W        W27344   5.220  13.084   1.526 -0.0407  0.2722 -0.1288
11728W        W27345  11.327   3.995   2.240 -0.1408  0.0781 -0.0349
11729W        W27346  15.859   0.048   0.920  0.0822 -0.1285 -0.3123
11730W        W27347   0.073   1.023  14.236 -0.2118 -0.3649  0.1217
11731W        W27348  13.903  14.124  12.284  0.2373 -0.2960  0.1147
11732W        W27349   2.417  11.198  16.091 -0.0770  0.2387 -0.1709
11733W        W27350  15.296   6.116  14.445 -0.3255  0.2717 -0.0262
11734W        W27351   7.479   6.404  11.675  0.2997 -0.0519  0.3069
11735W        W27352  13.683   5.316   1.914 -0.0183 -0.4688  0.2412
11736W        W27353  15.201  14.317   0.115 -0.2173 -0.0837  0.0956
11737W        W27354   4.922   7.917  11.061 -0.0383  0.4524  0.2576
11738W        W27355  13.284   9.180   5.345 -0.0598  0.0019  0.0682
11739W        W27356   0.000   6.694   2.116  0.3477  0.0771  0.0724
11740W        W27357   0.469   7.252   4.276  0.1313  0.0589 -0.0887
11741W        W27358  16.814   1.277   2.181 -0.0312 -0.0304  0.3485
11742W        W27359   3.087   1.868   1.326 -0.0250 -0.1094 -0.2622
11743W        W27360   7.457  10.323  14.094 -0.2763 -0.1050  0.0675
11744W        W27361  10.665  17.519   5.957 -0.0629  0.0487 -0.0978
11745W        W27362  10.421   4.568   0.704 -0.2263 -0.1715  0.2701
11746W        W27363  14.095   0.034   4.263 -0.1495 -0.1011 -0.0025
11747W        W27364  16.725   4.449   5.077 -0.0238 -0.1822 -0.1203
11748W        W27365   7.259   9.193   4.206 -0.1473  0.0249 -0.0725
11749W        W27366   1.483  16.575  12.262 -0.1317  0.0032 -0.1565
11750W        W27367   1.060   6.670   0.360  0.4239 -0.0794  0.1762
11751W        W27368  12.525  13.346   1.457  0.2460 -0.1381 -0.0495
11752W        W27369   8.089   4.944   0.333 -0.2067  0.2261  0.0182
11753W        W27370   0.812   5.249   1.716 -0.1451  0.0515 -0.4923
11754W        W27371   6.797   5.304  15.046 -0.2747 -0.0666  0.0106
11755W        W27372  10.421   9.573  14.190  0.0240 -0.0889 -0.2592
11756W        W27373   0.684   9.747   6.161  0.0910 -0.1217  0.2886
11757W        W27374  13.773   0.387   3.970  0.0423  0.0971  0.0539
11758W        W27375   9.925   7.082   1.939 -0.0126  0.2775 -0.0865
11759W        W27376   2.101   2.017   3.353 -0.1759 -0.0619 -0.0859
11760W        W27377   2.539  13.758  11.929 -0.3258 -0.0203 -0.0967
11761W        W27378   1.396  15.900   4.520 -0.3131  0.1314 -0.1214
11762W        W27379   9.577   8.814   5.459  0.0051  0.2220  0.0499
11763W        W27380   2.952   0.270  13.217 -0.1520 -0.1083 -0.1815
11764W        W27381  11.423  12.087   4.054 -0.0356 -0.0905  0.1798
11765W        W27382   0.617  11.944   0.293  0.1635  0.2311  0.0001
11766W        W27383   3.116  10.350  14.328  0.1528 -0.0835  0.1528
11767W        W27384  11.085   9.915  13.753  0.0788 -0.1258 -0.1015
11768W        W27385  10.409   3.913  11.958  0.1485 -0.2907 -0.2077
11769W        W27386   7.078   6.166  11.265 -0.1049 -0.0672  0.0776
11770W        W27387  17.216   7.240   5.727  0.2294  0.0373 -0.0973
11771W        W27388   4.630  17.589   2.008 -0.1251  0.0086  0.0338
11772W        W27389   6.714  16.260   1.600 -0.1443 -0.0747 -0.2260
11773W        W27390   8.684  14.598  10.579 -0.0000  0.3578 -0.1489
11774W        W27391   0.241  17.120  14.362  0.0528 -0.2892 -0.3248
11775W        W27392   5.076   4.894  12.275 -0.0344  0.0623 -0.1207
11776W        W27393   3.299  14.257  15.320 -0.1154  0.2311  0.0292
11777W        W27394  14.436   5.900  14.596 -0.3495 -0.0178  0.0061
11778W        W27395   2.603  14.781   1.979  0.1518  0.2603  0.2675
11779W        W27396   2.942  14.763   1.053 -0.0046  0.0639  0.0094
11780W        W27397  10.123  16.408  11.890  0.1457 -0.2186  0.0557
11781W        W27398   9.582   9.121   4.993 -0.1532 -0.0040 -0.2883
11782W        W27399   5.217   0.665   0.514 -0.0379 -0.1498 -0.2621
11783W        W27400   7.411  15.466  11.771  0.2047 -0.0687 -0.2623
11784W        W27401  17.928   2.097  13.496 -0.1519 -0.0413  0.0594
11785W        W27402   5.749  12.856   1.473 -0.0156  0.1455 -0.0258
11786W        W27403  15.174  17.560   3.291 -0.1624 -0.0515  0.0695
11787W        W27404   0.028   2.959   3.688 -0.0583 -0.2446 -0.2828
11788W        W27405  13.859   0.548   1.059 -0.1685  0.2517 -0.0918
11789W        W27406  12.458   7.054  16.513  0.0120  0.0257 -0.2456
11790W        W27407   2.748   2.416  14.271 -0.1351 -0.0896 -0.0037
11791W        W27408   3.820  14.509  14.560  0.0162 -0.1132 -0.1693
11792W        W27409   4.669   3.190   3.424  0.1657  0.0266  0.2130
11793W        W27410   9.860   6.720  15.699 -0.0893 -0.1629 -0.0169
11794W        W27411   0.721  13.288   3.462  0.0888  0.3093 -0.2596
11795W        W27412  10.279   0.243  12.761 -0.0431  0.1659 -0.1203
11796W        W27413   0.654  11.430   0.349 -0.0753  0.0098 -0.0026
11797W        W27414  15.068  14.614   4.810 -0.2822 -0.3494 -0.0610
11798W        W27415   4.494  12.673   5.692 -0.0033 -0.1617  0.0964
11799W        W27416   5.526   5.779   2.044 -0.3136  0.0710  0.1869
11800W        W27417  11.271  17.852  11.838  0.1581 -0.0834  0.1831
11801W        W27418   8.586   4.074  11.582  0.1909 -0.1588 -0.0488
11802W        W27419   2.758   8.812  16.336 -0.0208  0.1403  0.1911
11803W        W27420   7.419   0.440   3.164  0.0023 -0.0530  0.0215
11804W        W27421   4.375  14.087   5.300  0.0100  0.0317  0.4373
11805W        W27422  15.859  13.920  16.589  0.0668 -0.3396  0.0334
11806W        W27423  14.140   8.718   2.765  0.0995  0.0316  0.1960
11807W        W27424  11.113   0.377  11.767 -0.0262 -0.0530 -0.2686
11808W        W27425   3.863   8.110   5.782 -0.2389 -0.1680 -0.3703
11809W        W27426  10.652   0.080  14.258 -0.3138  0.0346 -0.5525
11810W        W27427   2.560   9.621  11.805  0.1177  0.0835  0.0283
11811W        W27428  12.849   0.544   5.015  0.3792  0.4243 -0.3755
11812W        W27429   7.755  16.788  15.170  0.0575  0.0759 -0.2661
11813W        W27430   8.484  10.147  13.989  0.0159  0.2295  0.2625
11814W        W27431   7.800  12.045   4.170  0.0394 -0.3230  0.0497
11815W        W27432  14.146   8.370   3.580 -0.3453 -0.1611 -0.2192
11816W        W27433  11.533   8.517  11.611 -0.1835  0.3815 -0.1449
11817W        W27434  13.403  17.256   1.527  0.0143 -0.1331  0.0529
11818W        W27435  17.161  17.933   3.238  0.0699 -0.0091  0.0535
11819W        W27436   4.167   8.292   1.206  0.1075  0.1029  0.0720
11820W        W27437   3.451   7.341  15.645 -0.2320 -0.2143  0.1248
11821W        W27438   7.862   2.003   1.436 -0.0559 -0.1537  0.0564
11822W        W27439  13.656   6.031  12.312  0.1320 -0.0236  0.3158
11823W        W27440   3.756  12.520  15.063  0.2586  0.2683 -0.1239
11824W        W27441  17.561   7.129  11.750  0.2344 -0.1818  0.0788
11825W        W27442  16.579   6.983   1.295  0.3104  0.2337 -0.0907
11826W        W27443   3.322   5.229  15.946 -0.1537 -0.0049  0.2596
11827W        W27444  13.399  15.823  12.283  0.2147 -0.0596  0.0157
11828W        W27445   6.302   6.394   2.586 -0.1000  0.4784 -0.2753
11829W        W27446  15.311   7.697  14.406 -0.2855 -0.2272  0.0794
11830W        W27447   5.896   0.564  14.892  0.0281 -0.1164 -0.0888
11831W        W27448   4.632  12.538  13.116 -0.1855 -0.3120  0.0886
11832W        W27449   6.969   9.417  13.980 -0.2059 -0.3743 -0.0351
11833W        W27450  16.760  14.345  13.872  0.0214 -0.1396 -0.0402
11834W        W27451  13.849   8.020  16.543  0.0658 -0.2537  0.0272
11835W        W27452   2.229  15.066   1.837 -0.1078  0.0474 -0.3206
11836W        W27453   3.874  11.423   2.506 -0.1070 -0.1102  0.1780
11837W        W27454  15.785   8.199  14.746  0.1345 -0.0532 -0.1286
11838W        W27455   9.802   8.107   3.228 -0.1460 -0.4849  0.0474
11839W        W27456   5.061   1.089   2.216  0.0177  0.1090  0.0626
11840W        W27457   0.907   0.565   5.346 -0.2869 -0.2506 -0.2162
11841W        W27458   2.721  14.207  16.233 -0.4249 -0.2681 -0.1110
11842W        W27459   5.972   3.214  12.831 -0.2871 -0.0410  0.0091
11843W        W27460  17.000   1.903  16.029 -0.0578 -0.1442 -0.2772
11844W        W27461  10.693   1.763   5.415  0.1556 -0.0984 -0.1536
11845W        W27462   2.390  17.347   4.454  0.0325  0.0031 -0.2543
11846W        W27463   7.375  13.763   1.807  0.1985  0.1076 -0.3090
11847W        W27464   6.914  15.148   3.745  0.1348  0.0030  0.1407
11848W        W27465  13.476  11.848   2.275 -0.4776  0.0240  0.0568
11849W        W27466  14.841  15.646  15.754 -0.1294 -0.1543 -0.1521
11850W        W27467   9.460   8.238   4.475 -0.2694 -0.2745  0.1571
11851W        W27468  14.123  14.978  12.963  0.2228 -0.2830 -0.1815
11852W        W27469   8.585  12.579   2.270 -0.3607  0.2916 -0.0821
11853W        W27470  14.080   3.154   3.819  0.2950  0.0645 -0.1438
11854W        W27471   6.390  14.294   3.212 -0.0756 -0.0173  0.1290
11855W        W27472   0.403   5.149   4.915 -0.1318 -0.6309 -0.1485
11856W        W27473   5.075   5.464  12.621 -0.0844 -0.1829  0.2434
11857W        W27474  15.468   2.992  14.698  0.1139 -0.0249 -0.2943
11858W        W27475   3.685  10.029  12.315  0.0535  0.1957 -0.2447
11859W        W27476  16.853   0.257   6.017  0.1022 -0.0002 -0.1316
11860W        W27477   1.973   6.288   5.412 -0.0434 -0.2466 -0.1971
11861W        W27478  12.113   2.957   2.677  0.1493 -0.1973  0.0133
11862W        W27479   9.954   7.476   2.490 -0.0983 -0.0547 -0.1033
11863W        W27480   5.524  17.475  12.115 -0.3317 -0.0637 -0.1250
11864W        W27481  12.301   3.270  15.438  0.0323  0.1219 -0.0534
11865W        W27482   9.711  11.728  13.253  0.1407  0.0616  0.2026
11866W        W27483   4.249   0.880   4.934 -0.0650  0.0599  0.0141
11867W        W27484   8.802  12.328  13.487  0.2228 -0.1531 -0.4299
11868W        W27485  17.893   0.098  13.859  0.0247 -0.0363  0.1438
11869W        W27486   6.493  16.021  14.557 -0.3031  0.0238 -0.3084
11870W        W27487   5.430   5.568   1.128  0.0088  0.2428  0.0958
11871W        W27488  11.674   9.395  16.560  0.2445  0.4261 -0.1893
11872W        W27489   8.168   2.357   5.222 -0.0262  0.1610  0.0683
11873W        W27490  12.922   8.762  15.008 -0.0959 -0.3469 -0.2581
11874W        W27491  13.690   3.272  16.064 -0.0055  0.0551  0.0040
11875W        W27492   3.399   3.536  13.580 -0.1342 -0.2249  0.0931
11876W        W27493   7.603  17.776   5.863 -0.1405 -0.3806 -0.1932
11877W        W27494  14.849   4.523   4.123  0.1130  0.0883  0.1774
11878W        W27495   2.404  13.701   4.136  0.3708 -0.3247  0.0547
11879W        W27496   6.000  17.629   4.013  0.0494 -0.0787  0.0499
11880W        W27497  15.998  13.651   3.182  0.1488  0.0948  0.0154
11881W        W27498   9.683   7.276   2.896  0.0612  0.2628  0.0093
11882W        W27499   4.698  17.658   1.066  0.0267  0.1942  0.1324
11883W        W27500   0.276   8.048  13.825  0.0229 -0.0108 -0.0542
11884W        W27501   4.944  14.300  14.449  0.1385 -0.0458 -0.0124
11885W        W27502  14.317   6.166   2.246 -0.1532  0.2210  0.0758
11886W        W27503   8.935  12.526   1.945 -0.1688 -0.0632 -0.0742
11887W        W27504   7.310   2.808  13.484  0.1456 -0.1945  0.1453
11888W        W27505  14.944  13.036   2.752  0.0900  0.0152 -0.1042
11889W        W27506   9.088  14.648  12.319 -0.1290  0.0638 -0.1649
11890W        W27507   4.424  12.034  15.663  0.0788 -0.1900  0.1455
11891W        W27508  11.242   7.093   2.135 -0.0436  0.0984 -0.2111
11892W        W27509  11.125   4.827  12.267  0.0617  0.2345 -0.0063
11893W        W27510  12.644   2.942  12.222  0.1182  0.2856  0.0401
11894W        W27511   2.795   4.000   3.792 -0.0355 -0.1725  0.1041
11895W        W27512   2.947  17.806   0.339  0.1066 -0.0220 -0.1602
11896W        W27513  15.667   3.404  13.291 -0.0260  0.0797 -0.2043
11897W        W27514  12.767   3.990   5.854 -0.2276  0.0993  0.4074
11898W        W27515  13.529  11.471  14.991  0.1602 -0.0335 -0.0956
11899W        W27516   6.936  10.931   5.016 -0.1040 -0.0368  0.3072
11900W        W27517  14.736   8.328   4.116 -0.0306 -0.0890  0.0913
11901W        W27518   6.011   3.213   3.264 -0.0399  0.3221  0.1593
11902W        W27519  10.752  15.740   4.757  0.2186  0.0653 -0.0259
11903W        W27520   1.241  10.713  13.426 -0.0283  0.1864  0.2994
11904W        W27521  17.593   9.787   2.255 -0.0627  0.3361  0.0771
11905W        W27522   1.575  17.078  15.043 -0.0384  0.0218 -0.0107
11906W        W27523   4.205  11.494   2.884 -0.0115 -0.2382 -0.0535
11907W        W27524   0.871   5.715   0.256 -0.0026  0.0928 -0.2011
11908W        W27525  14.214  11.346  14.336 -0.3520  0.0244 -0.0023
11909W        W27526  11.338  10.543  11.878 -0.0022  0.3281 -0.3818
11910W        W27527  15.944  11.120  16.037  0.1467 -0.0581 -0.2544
11911W        W27528  10.236   7.090  11.734 -0.0474  0.1390 -0.1075
11912W        W27529   5.212   1.898   3.925 -0.1967  0.2521  0.0421
11913W        W27530   6.500   7.317   2.045 -0.3011  0.0561  0.0322
11914W        W27531   3.237  17.497   5.537  0.2099  0.2358 -0.0437
11915W        W27532   5.566   4.050   3.892 -0.0651 -0.0474 -0.2496
11916W        W27533   1.052   7.950  11.521 -0.0542  0.0735  0.1278
11917W        W27534  12.036   7.574  11.125  0.2469  0.1001 -0.1904
11918W        W27535   3.016  11.140   1.087 -0.1579  0.0190 -0.0926
11919W        W27536  14.212  14.574  14.802 -0.0827  0.1019  0.0902
11920W        W27537   3.209   4.337  14.829 -0.2370 -0.0286  0.1820
11921W        W27538   3.570  14.396  16.205  0.0888  0.1860 -0.1198
11922W        W27539   9.021  11.219   3.458  0.0436  0.0547  0.0293
11923W        W27540  14.632   9.899  11.637 -0.0090 -0.0878  0.0215
11924W        W27541   9.591   1.906   3.498  0.0278  0.3474  0.0036
11925W        W27542   0.472   1.955   0.372  0.1858  0.2192  0.1435
11926W        W27543   3.549  16.602   4.587  0.0587 -0.0078  0.3856
11927W        W27544   2.792   6.225  15.345  0.0593  0.1128 -0.0398
11928W        W27545   9.728  10.916   2.819  0.0524 -0.5044  0.2134
11929W        W27546   9.935  16.620  15.189  0.0473  0.3263 -0.0593
11930W        W27547  12.442   8.397   1.948 -0.2269  0.2032 -0.1943
11931W        W27548   5.395   3.104   4.100  0.2210 -0.2975  0.2026
11932W        W27549  11.899   4.534   2.811 -0.0078  0.0237  0.3844
11933W        W27550  10.751   9.530  13.246 -0.3114 -0.4077 -0.2540
11934W        W27551   1.217   3.521  15.638  0.1613 -0.0782  0.0781
11935W        W27552  15.615   2.623  13.747 -0.3644 -0.2115  0.2873
11936W        W27553  12.994   9.388  11.772  0.1215 -0.2427 -0.2105
11937W        W27554   9.642  12.569  10.862  0.0758 -0.0293  0.1486
11938W        W27555   3.595  11.597   2.003  0.0557  0.0639 -0.2331
11939W        W27556  16.942   9.572  12.362  0.3802 -0.2079 -0.1089
11940W        W27557  12.480   3.576  16.763  0.2805  0.1389  0.2504
11941W        W27558  12.226  16.818  13.880  0.0197 -0.0352 -0.0361
11942W        W27559   1.906   6.126   2.211 -0.0406 -0.3064 -0.3400
11943W        W27560  10.305   1.915   4.980 -0.0653  0.0750 -0.0082
11944W        W27561  15.647   7.138   1.100 -0.1450  0.2454 -0.0182
11945W        W27562  11.750  10.567   4.933  0.0515  0.3240  0.0465
11946W        W27563   5.460  17.273  13.089 -0.2457 -0.0660 -0.1689
11947W        W27564   5.760  13.910  15.689 -0.0387 -0.0373 -0.2215
11948W        W27565   9.816  11.171  12.021 -0.3124 -0.0001 -0.1043
11949W        W27566  10.211   1.273  15.546 -0.3465 -0.4125  0.0854
11950W        W27567   5.741  12.929  13.668 -0.2731  0.0201 -0.3521
11951W        W27568   2.601   4.931  15.187 -0.3427  0.1062 -0.0103
11952W        W27569  10.806   9.020   4.700  0.2168  0.2566  0.0111
11953W        W27570  17.367   4.547  16.766 -0.0157 -0.3172  0.2486
11954W        W27571  15.399  11.891   0.735  0.1480  0.2495 -0.2448
11955W        W27572  11.930  14.997  15.526  0.1034 -0.0390 -0.2194
11956W        W27573  16.667   5.727  14.445 -0.2741 -0.1803 -0.1301
11957W        W27574   9.341  14.409  16.492  0.1493  0.0097 -0.0990
11958W        W27575   4.952   7.349  15.742  0.1758  0.0843  0.0930
11959W        W27576  10.171  11.002   1.789 -0.0462  0.2399  0.1268
11960W        W27577   0.566  16.471  13.831 -0.0854 -0.2353 -0.1940
11961W        W27578   0.040   4.155  15.787  0.1285  0.3680  0.1219
11962W        W27579   3.421  10.099   2.733 -0.3124 -0.0787  0.0228
11963W        W27580   2.184   8.698  11.703 -0.3349 -0.3118 -0.0501
11964W        W27581   3.751   5.926  15.374 -0.1327 -0.0342  0.0301
11965W        W27582   3.102   2.324   0.708 -0.0671 -0.0958 -0.1545
11966W        W27583  17.661  14.412   0.202 -0.1489 -0.0810  0.0565
11967W        W27584  14.764  11.709  13.182 -0.4266  0.0005 -0.1322
11968W        W27585   3.646   8.452   1.439  0.0759  0.2338 -0.1721
11969W        W27586  10.149   9.871  12.669  0.5040 -0.0493 -0.0772
11970W        W27587   9.181   1.316   1.897 -0.1280 -0.4607 -0.1104
11971W        W27588   8.322  17.514   4.309 -0.1159  0.0997  0.0412
11972W        W27589   7.214  16.891  11.717 -0.0036  0.2213 -0.0865
11973W        W27590   6.332  15.931  13.710  0.1655 -0.0491 -0.0984
11974W        W27591   3.438  17.016  11.350 -0.1724 -0.2507  0.1034
11975W        W27592   7.077  15.197   0.660  0.1809  0.2947 -0.0116
11976W        W27593  17.068   2.964   2.559  0.0699  0.1661 -0.1510
11977W        W27594  16.811  16.476   1.190  0.1548  0.0263  0.1621
11978W        W27595   4.640   6.834  11.157  0.1530  0.0690 -0.0776
11979W        W27596   6.121  17.059  15.879 -0.2469 -0.0225  0.2598
11980W        W27597  16.597   1.821   3.374 -0.4422  0.2449 -0.1632
11981W        W27598  14.833   5.789   3.944  0.3042  0.0835  0.2413
11982W        W27599   7.826   4.658   4.239 -0.0396  0.1655 -0.1487
11983W        W27600   0.726   0.666   2.207  0.1053 -0.1071 -0.1321
11984W        W27601   9.387  13.701  14.767  0.0235  0.0957 -0.0290
11985W        W27602   0.877   5.221  13.224  0.2176  0.2031  0.2848
11986W        W27603   4.913  14.124   1.016 -0.2607 -0.0005 -0.1273
11987W        W27604   5.836   0.865  12.843 -0.2202  0.0431 -0.1801
11988W        W27605   5.115   2.650   5.170  0.0945 -0.3378  0.1101
11989W        W27606  10.689  18.045  13.785  0.2131  0.0285  0.0688
11990W        W27607   3.986  15.638   5.922 -0.0426  0.0180  0.3901
11991W        W27608  11.086   9.155  13.213 -0.1205 -0.0568 -0.1957
11992W        W27609   4.233   5.657   4.105 -0.0642  0.2866 -0.0559
11993W        W27610   1.139  15.490  13.812  0.1698 -0.3802 -0.2110
11994W        W27611   9.738  17.241  12.499  0.4758  0.1191  0.2112
11995W        W27612  15.542   3.407   4.278 -0.1848 -0.6087  0.0248
11996W        W27613  10.821   9.722  10.907  0.1330  0.0184 -0.0101
11997W        W27614  10.835  12.288  15.081  0.1117 -0.2012  0.3866
11998W        W27615   8.416   8.227   5.929 -0.0427  0.0234 -0.0303
11999W        W27616  17.145   5.045   1.458 -0.4138 -0.2671  0.2114
12000W        W27617   0.609   0.226   5.173 -0.1765  0.1013 -0.0069
12001W        W27618   1.985   9.953  15.168  0.2118  0.1884  0.2270
12002W        W27619   4.907   7.042  16.217  0.3012 -0.2613  0.3601
12003W        W27620   0.440   0.312   1.311 -0.0005 -0.1145  0.0115
12004W        W27621   8.454  13.644   2.284 -0.4104  0.0188  0.1627
12005W        W27622   9.937   3.662   2.329  0.1926 -0.0160  0.0802
12006W        W27623   9.567  14.148   4.502  0.1792  0.0008  0.2588
12007W        W27624  12.252  15.182  16.746  0.1615 -0.0847 -0.0685
12008W        W27625   6.676   2.713  16.446 -0.0794  0.0688  0.0358
12009W        W27626   0.316   3.937   0.407 -0.0940 -0.1035  0.1074
12010W        W27627   9.463   9.818  11.953 -0.0750 -0.1907  0.1295
12011W        W27628  12.467   5.507  12.381 -0.3604  0.3947 -0.0216
12012W        W27629  17.467   0.539   5.434 -0.1324  0.0779  0.0357
12013W        W27630   1.847  16.443   2.999  0.3701 -0.0204 -0.0976
12014W        W27631   4.823  12.752   3.521  0.0787  0.1901  0.2536
12015W        W27632   8.727   6.855   4.824  0.2247 -0.1416  0.0326
12016W        W27633  12.100   9.051  14.960  0.0269  0.0154  0.0553
12017W        W27634   5.056  11.877  11.065 -0.1185 -0.2380  0.1337
12018W        W27635   7.246   1.979  13.818  0.2511  0.0602 -0.0918
12019W        W27636   8.561  11.929  12.514  0.1490  0.2728 -0.1814
12020W        W27637  10.085   2.136   1.345 -0.1292  0.0641 -0.0029
12021W        W27638   8.690   9.546   0.926 -0.1259  0.1586 -0.4868
12022W        W27639  13.314   1.686   2.024  0.1004 -0.1748 -0.2662
12023W        W27640   0.125   7.984   1.249 -0.0029  0.3322 -0.0137
12024W        W27641   2.467  12.977   3.769 -0.0270  0.1180  0.2230
12025W        W27642  17.799  15.594   0.463  0.1776  0.0197  0.2353
12026W        W27643  17.651  12.920   5.275 -0.0840 -0.3283 -0.3695
12027W        W27644  15.720  15.801   3.942  0.1500  0.3282  0.2741
12028W        W27645   3.682   1.329   0.940 -0.0626 -0.2267 -0.0447
12029W        W27646  10.455   8.790  16.593 -0.1539 -0.0409  0.0852
12030W        W27647  15.474   1.265  13.912 -0.0164 -0.0402 -0.2585
12031W        W27648   9.512  11.675   0.909  0.0334 -0.2940  0.1077
12032W        W27649  11.272  10.037  14.206 -0.0964  0.0099 -0.0272
12033W        W27650   9.346   8.615   1.644  0.0792  0.1313 -0.0439
12034W        W27651   6.498   7.667  13.470 -0.2231 -0.0495  0.1765
12035W        W27652  15.956  15.051   4.517 -0.2989  0.4059  0.2480
12036W        W27653   8.409   3.269  15.349  0.2388  0.0802 -0.1362
12037W        W27654   9.632   5.254  15.434 -0.1367  0.2053  0.1053
12038W        W27655   2.653   1.494   1.244 -0.1439  0.1341  0.0518
12039W        W27656  17.494  12.750  15.365  0.0056 -0.0836 -0.2058
12040W        W27657   1.164  14.561  15.152 -0.0852 -0.1846 -0.0806
12041W        W27658  14.917   2.225   4.826 -0.0822  0.1866 -0.2340
12042W        W27659  15.804  17.300   0.507  0.0520  0.1647 -0.0089
12043W        W27660   5.895   4.692   0.784  0.1084  0.1230 -0.2154
12044W        W27661  15.063   8.346  15.134  0.3456  0.2022 -0.0800
12045W        W27662  15.508   6.954  13.125  0.1433 -0.1854 -0.0686
12046W        W27663   0.634  12.519  11.108 -0.3023  0.1306  0.1858
12047W        W27664  13.937   2.918   0.526  0.3571 -0.1726  0.1191
12048W        W27665   7.725   7.736   5.245  0.3146  0.2071 -0.2864
12049W        W27666  10.264  17.722   0.495  0.4402 -0.0730  0.0209
12050W        W27667   2.868   3.652  16.315  0.2369  0.0306  0.0230
12051W        W27668   5.398   6.195  15.697 -0.1020 -0.2906  0.1785
12052W        W27669  14.190  12.341  16.787  0.2520  0.1872  0.3033
12053W        W27670  13.986  14.985  13.875 -0.0926 -0.1817 -0.1598
12054W        W27671   7.232  15.010   1.119 -0.0128  0.0541  0.1321
12055W        W27672   5.610   5.298  15.923  0.1545 -0.0187  0.1998
12056W        W27673  15.168  13.996  14.400  0.2005 -0.1427 -0.5314
12057W        W27674   6.601  16.540   0.240 -0.1430 -0.3173  0.2365
12058W        W27675   9.372   5.835  12.342  0.0533  0.2238  0.2729
12059W        W27676   5.197   2.959   3.263  0.0820 -0.1294  0.0359
12060W        W27677   4.892   4.483  13.433  0.0949  0.0884 -0.3288
12061W        W27678   9.902  13.862  14.748  0.3025  0.1563 -0.1372
12062W        W27679   9.681   9.470   0.050  0.0999 -0.0447  0.2251
12063W        W27680  12.861   8.297   0.692  0.1817  0.2922  0.1593
12064W        W27681  13.339  15.331  10.954 -0.0946  0.2367 -0.3073
12065W        W27682   5.149  15.109   0.467  0.2436  0.0258  0.0418
12066W        W27683  17.551  13.525   1.688 -0.2861 -0.1347 -0.1096
12067W        W27684   7.343   6.609   0.822 -0.2435 -0.3281  0.1056
12068W        W27685  14.512   3.425  13.974 -0.1434 -0.1509 -0.1029
12069W        W27686  16.385   6.415  12.228 -0.0280  0.2799 -0.2226
12070W        W27687  16.707   1.101   5.818  0.0373 -0.3307  0.5664
12071W        W27688   9.100   3.089  16.726  0.3253  0.1341  0.1656
12072W        W27689   4.930  13.171   4.509  0.0045 -0.0181  0.1289
12073W        W27690   0.186  11.351   3.639  0.0503  0.2039 -0.1139
12074W        W27691   4.125  17.229  16.766  0.1074 -0.0263 -0.1822
12075W        W27692  17.749  17.744  14.123  0.0768  0.2577  0.2327
12076W        W27693   3.541   3.773   5.389 -0.0201 -0.1462 -0.1981
12077W        W27694   3.432   7.236   4.784  0.2734  0.1286 -0.2032
12078W        W27695   1.260   3.650  16.107 -0.2605 -0.1244  0.2523
12079W        W27696  11.112  15.654   4.406 -0.0454  0.0572 -0.1311
12080W        W27697  12.312  12.247   4.574  0.2069 -0.0737  0.3054
12081W        W27698  10.727  12.896  11.517  0.0820 -0.2350  0.0516
12082W        W27699   6.799   2.240   0.818 -0.0595  0.1644 -0.1907
12083W        W27700  12.225   1.085   1.984  0.0431  0.1902  0.2030
12084W        W27701  16.939   2.895   4.186  0.2314  0.1365  0.0579
12085W        W27702  12.681  11.054  13.318 -0.4457 -0.0116  0.0019
12086W        W27703  10.885  11.874  14.837 -0.0721  0.2031  0.0027
12087W        W27704  12.560  13.720   1.870  0.1222  0.1838  0.0054
12088W        W27705   3.780   9.956   4.989 -0.2501  0.0468  0.2853
12089W        W27706   6.511   0.257   3.377  0.1583  0.0124  0.0862
12090W        W27707  11.570   8.932   2.137 -0.0895  0.0348  0.2511
12091W        W27708  12.089   2.652  12.645 -0.1375 -0.0315  0.0889
12092W        W27709   0.144   1.505  13.495  0.2668 -0.0569  0.0568
12093W        W27710   7.561   8.204  12.182 -0.1133  0.2184  0.2097
12094W        W27711   6.712   3.534  15.419  0.1535  0.0220  0.0611
12095W        W27712  15.353   8.302   2.036  0.1286 -0.0389  0.0367
12096W        W27713  11.592  12.939   4.947  0.2086  0.0849  0.0145
12097W        W27714   3.307   6.505   5.750  0.0412 -0.1530 -0.0393
12098W        W27715  16.965   4.882   3.588 -0.0381 -0.1378  0.0189
12099W        W27716   7.577   5.199  13.233  0.1005  0.2872 -0.3100
12100W        W27717  18.009   8.060  15.580 -0.2285 -0.0953 -0.2361
12101W        W27718  16.441  11.490  12.875 -0.1468 -0.1371  0.0657
12102W        W27719   8.297   7.354  16.116  0.1811  0.0550  0.1614
12103W        W27720   8.023  16.201   2.820 -0.1263  0.2015 -0.3266
12104W        W27721   5.979  14.749  13.421  0.0015 -0.2454  0.0904
12105W        W27722   2.974   5.215  15.063 -0.0242  0.0073 -0.2861
12106W        W27723  14.706  12.121   3.800 -0.0510  0.0275  0.3226
12107W        W27724   4.341  12.508  15.800  0.1802 -0.2416  0.2629
12108W        W27725   5.551  12.419  12.668 -0.1444 -0.0198 -0.1296
12109W        W27726  12.921   1.286   2.813 -0.0558  0.1287  0.1692
12110W        W27727  16.851   3.489   3.650 -0.4681  0.2103 -0.0923
12111W        W27728  17.849   2.010   3.969 -0.0601  0.0568 -0.0063
12112W        W27729  17.140  16.105   5.022  0.1786 -0.2619  0.1739
12113W        W27730  16.154  14.032   2.202  0.2089 -0.4136  0.2754
12114W        W27731  14.452   7.631   6.027 -0.0607  0.2969  0.1903
12115W        W27732  16.232  13.609   5.196  0.0609  0.1295 -0.0390
12116W        W27733  15.391  14.345   1.775 -0.0012  0.1787 -0.0781
12117W        W27734   5.231   0.622   3.849 -0.2320  0.0277  0.0987
12118W        W27735   8.025   9.937  13.953  0.2147  0.0107 -0.4198
12119W        W27736   4.900  15.487  13.585 -0.3609  0.0336 -0.0788
12120W        W27737  17.705   3.920   3.435  0.3874 -0.2924 -0.1679
12121W        W27738   6.133   4.131  13.770  0.1223  0.2434  0.1328
12122W        W27739  11.905  16.040  14.517 -0.5038 -0.1081  0.1583
12123W        W27740  12.465   0.496   5.443 -0.3243  0.1675 -0.0501
12124W        W27741  11.600  15.825   1.396 -0.0279 -0.1249  0.1536
12125W        W27742   3.398  15.293  11.359 -0.2192  0.0416 -0.2754
12126W        W27743   5.615   0.342   1.207  0.2184  0.1571 -0.0386
12127W        W27744   9.937  16.462   4.291 -0.0063  0.3931  0.2794
12128W        W27745  12.948   5.110   1.191  0.0621  0.0356 -0.2299
12129W        W27746   7.003   3.239  14.458 -0.0974 -0.1556 -0.1542
12130W        W27747   9.185   8.325  14.776 -0.3421  0.1504 -0.0181
12131W        W27748   5.168   6.719  16.499 -0.0146  0.1162  0.3206
12132W        W27749  15.449   9.335   2.414  0.0753 -0.0580 -0.0456
12133W        W27750   3.833  16.064  14.455  0.2796  0.0151 -0.0245
12134W        W27751   1.840   6.218  16.168 -0.1377  0.0903 -0.1938
12135W        W27752   4.159   9.266   3.894  0.6012  0.3008  0.0855
12136W        W27753   3.294  12.291  15.049 -0.1047  0.3785 -0.2445
12137W        W27754  14.608   0.535  13.584  0.1090  0.0788 -0.1534
12138W        W27755  12.007   6.143  12.232 -0.2737  0.1627 -0.0734
12139W        W27756   0.039   9.176  14.118  0.1783  0.0040  0.1379
12140W        W27757   9.417  12.198  14.602  0.0564 -0.2772  0.0301
12141W        W27758  11.379   8.068  11.862  0.0979 -0.0995 -0.3195
12142W        W27759   9.275  11.216   4.150  0.3508 -0.0301  0.2447
12143W        W27760  16.784   9.226   0.222  0.0914  0.1898  0.1760
12144W        W27761   2.554   0.519  11.201 -0.3768  0.1713  0.1699
12145W        W27762   1.260   2.763   1.428  0.0924  0.2576 -0.0515
12146W        W27763   2.905   3.412   5.431 -0.0008 -0.0970  0.0321
12147W        W27764   4.631  14.538  16.579  0.0024  0.0357  0.3046
12148W        W27765  13.609  16.468  13.106  0.0297  0.1986 -0.1282
12149W        W27766   7.860   4.753  16.309 -0.0307 -0.1697 -0.3107
12150W        W27767  14.782   4.991  13.091 -0.2485  0.3275 -0.0144
12151W        W27768   8.076   0.952  15.683 -0.2901  0.1494  0.3160
12152W        W27769   4.613   0.031  13.818 -0.0297 -0.0477 -0.0442
12153W        W27770   5.530   3.362  15.129  0.2783  0.2268  0.2913
12154W        W27771  16.385   6.421  15.317 -0.0287  0.0056 -0.0486
12155W        W27772   9.759  11.587  14.963  0.0383  0.0885  0.2801
12156W        W27773   2.599   0.703  12.031 -0.1492  0.0072 -0.0392
12157W        W27774  14.541   9.257   5.423  0.0211 -0.1152  0.0605
12158W        W27775  11.919   9.183  12.793 -0.0454 -0.4264 -0.1069
12159W        W27776  14.061  16.283  16.489  0.0180 -0.1469 -0.4166
12160W        W27777   1.949   3.612  14.735 -0.2942  0.3477 -0.2905
12161W        W27778   2.696  16.385  12.510 -0.0051  0.1566  0.1154
12162W        W27779   1.625   0.784  16.066  0.4041  0.3733  0.1097
12163W        W27780  12.187   3.401   4.153  0.4364 -0.2892  0.1844
12164W        W27781   1.817   6.725  13.900 -0.0729  0.0089 -0.0413
12165W        W27782   5.084   6.576   1.954  0.2126 -0.2933  0.0191
12166W        W27783  11.407  11.343  15.644  0.2374 -0.0953 -0.0459
12167W        W27784   9.830  15.910   6.118  0.3427  0.1699 -0.0743
12168W        W27785   7.768   4.564   2.015  0.0106 -0.4722  0.0423
12169W        W27786   2.984   3.144   1.400 -0.0135 -0.2481  0.1885
12170W        W27787  14.202  17.170   4.106 -0.2378 -0.0564  0.0242
12171W        W27788   6.458  12.867   1.679  0.0421  0.1144 -0.0639
12172W        W27789  10.254  11.147   1.325 -0.3338 -0.2555  0.0545
12173W        W27790  14.470  16.932  12.619 -0.0237 -0.1376  0.0250
12174W        W27791   9.340   5.401   3.899  0.1169 -0.1663 -0.1256
12175W        W27792   6.639  12.536   4.572  0.0285  0.3495 -0.1747
12176W        W27793   3.273   5.062  12.537  0.1770  0.3449 -0.3080
12177W        W27794   0.844   0.255  12.195  0.2258 -0.1284 -0.0489
12178W        W27795  16.762   0.945  13.910  0.2640  0.1873  0.0304
12179W        W27796   4.556  17.984  16.386 -0.1312  0.1195 -0.5311
12180W        W27797   9.482  17.227   2.043 -0.0616 -0.0203  0.0630
12181W        W27798   7.118   5.039   3.896 -0.1343  0.0485  0.0311
12182W        W27799  17.501   2.975   5.685 -0.2389  0.0783  0.0067
12183W        W27800   3.391   7.499  12.123 -0.3303 -0.1586  0.3905
12184W        W27801   1.417  17.059   5.576 -0.0566  0.0201 -0.2605
12185W        W27802   4.591   7.557  13.677 -0.0873 -0.2964  0.1138
12186W        W27803  10.616  13.357  13.392 -0.1110  0.3333 -0.1039
12187W        W27804   1.799   5.381   5.353  0.0883  0.0328 -0.0044
12188W        W27805  10.118   3.417   5.737  0.1615  0.1491  0.1055
12189W        W27806  15.097  12.275  12.172  0.0269 -0.0723  0.1368
12190W        W27807  10.230   5.316  11.404  0.0327 -0.0544  0.0431
12191W        W27808   2.924  13.715   5.239 -0.0535  0.0819  0.0206
12192W        W27809   3.467  16.182   4.968 -0.0939  0.2760 -0.1791
12193W        W27810  11.083   0.230  15.823  0.2216  0.1437 -0.0885
12194W        W27811   0.427   3.639  16.770 -0.1597  0.3557 -0.2201
12195W        W27812   0.250   0.413   2.285  0.0405  0.0339 -0.1646
12196W        W27813   2.827  10.241  12.464 -0.2383  0.0034  0.1003
12197W        W27814   7.944   9.080  15.404 -0.2227 -0.0894 -0.2726
12198W        W27815   5.374   7.507  14.247  0.0407 -0.0530  0.0555
12199W        W27816   6.301   5.238  13.772  0.2377  0.2403 -0.0058
12200W        W27817   1.979   8.681   2.967 -0.0988  0.3029 -0.1328
12201W        W27818   5.708   9.127   2.776 -0.3168  0.3279 -0.0260
12202W        W27819   2.797  16.000   3.506  0.1749 -0.0297 -0.1686
12203W        W27820   2.431  12.994   2.524 -0.0770 -0.2606  0.1559
12204W        W27821   0.816   1.366  16.447  0.2735  0.2540  0.0966
12205W        W27822   1.526   7.301   4.746 -0.3329 -0.1771  0.0797
12206W        W27823  13.706   7.531  14.723  0.2395 -0.0072 -0.2601
12207W        W27824   1.918   1.777  15.979 -0.0233 -0.1155  0.0100
12208W        W27825  15.701   9.605   2.777  0.2113 -0.0624 -0.3174
12209W        W27826   2.168   1.951  13.770 -0.0604  0.1052  0.1038
12210W        W27827   5.328  11.482   5.253 -0.1990  0.1894  0.0298
12211W        W27828  17.159   7.746  15.795  0.2840  0.0398  0.0009
12212W        W27829  14.377   2.499  13.975  0.1951 -0.0661 -0.1599
12213W        W27830  10.045  15.822   3.413 -0.1942 -0.0690  0.1427
12214W        W27831  16.957  13.108   4.890 -0.1690 -0.5710  0.3020
12215W        W27832   7.250   9.104   4.739 -0.0997 -0.1060  0.0199
12216W        W27833  15.993  11.003   1.839 -0.1012 -0.1296 -0.0208
12217W        W27834   0.347  16.542   4.554  0.0563 -0.1439  0.2999
12218W        W27835   2.077  11.020   4.228  0.2049 -0.1692  0.1512
12219W        W27836  17.730  16.959  11.886 -0.3292  0.1919  0.0637
12220W        W27837   1.772   0.826  15.542 -0.0044 -0.2218 -0.0450
12221W        W27838   7.891   0.409  11.866  0.2466  0.0199  0.0800
12222W        W27839  11.858   7.026   4.489  0.0450 -0.0951  0.2244
12223W        W27840   3.878   7.141  15.007 -0.0175 -0.3322  0.1078
12224W        W27841  15.667  17.327   6.144 -0.1040 -0.0611 -0.3717
12225W        W27842   8.526   0.166   1.973 -0.1340  0.2520 -0.0323
12226W        W27843   2.582   4.082   4.764 -0.1751  0.0948  0.1168
12227W        W27844   3.861   1.785   0.090 -0.0141  0.1647 -0.1786
12228W        W27845   3.688   5.892   1.586  0.0662  0.0102  0.1225
12229W        W27846   9.396   4.511  14.533  0.0783 -0.2542 -0.0414
12230W        W27847   3.969   4.332  13.250 -0.1437  0.0578 -0.1251
12231W        W27848   1.676  13.138   5.968 -0.2664 -0.6939  0.2176
12232W        W27849  17.624  15.858  13.057  0.3505  0.2030  0.1273
12233W        W27850   8.801  12.513   5.086  0.3069 -0.1226  0.1182
12234W        W27851   4.679   2.240  12.444 -0.0249 -0.0878  0.0031
12235W        W27852   0.103  12.905   4.430 -0.0401  0.0991 -0.1118
12236W        W27853  10.483   4.883  16.481 -0.0792 -0.0785  0.1252
12237W        W27854   2.899   5.357  12.727  0.0923 -0.2325 -0.1174
12238W        W27855  13.576   4.248   2.251  0.2141  0.0224  0.1757
12239W        W27856   3.680  17.895  11.970 -0.4308  0.1698 -0.0590
12240W        W27857   4.156  15.068   2.100 -0.0181  0.1599 -0.1364
12241W        W27858   8.937   5.474   9.674  0.0481  0.1436  0.2768
12242W        W27859  16.303   7.953  13.485  0.1221  0.0056 -0.0777
12243W        W27860   8.770  12.140   2.344 -0.1537  0.3750  0.0640
12244W        W27861   6.720  13.997  12.480 -0.2686 -0.2005 -0.3478
12245W        W27862  13.642  12.846   4.529 -0.0326  0.0551 -0.0306
12246W        W27863   3.838   0.816   1.503 -0.2025  0.0696  0.1947
12247W        W27864   8.621   7.003  13.199 -0.1863 -0.1271 -0.2049
12248W        W27865  12.127  18.013  15.895  0.1710  0.1359  0.1207
12249W        W27866  12.465  15.367  16.016 -0.5058  0.1948  0.2146
12250W        W27867  16.031  17.702   3.103 -0.0219  0.2374  0.2232
12251W        W27868  15.711   1.800  13.280 -0.0168  0.0787  0.1012
12252W        W27869  15.561  13.276   1.098 -0.0345  0.0692  0.0420
12253W        W27870   0.847   8.529  15.727 -0.1092  0.5274 -0.0124
12254W        W27871   1.956   4.865  13.432 -0.2318 -0.0005 -0.1249
12255W        W27872   1.895   3.782   0.874 -0.1761  0.0684  0.2597
12256W        W27873   6.569  13.528   1.449  0.0824  0.0694 -0.1455
12257W        W27874  17.610  16.182   3.195 -0.0883 -0.0030 -0.0119
12258W        W27875  14.702  11.813   1.590 -0.2368 -0.0869 -0.0237
12259W        W27876   8.898  12.941  16.143 -0.0139 -0.0105  0.1054
12260W        W27877  15.799   1.042   6.025  0.0346 -0.0437  0.0307
12261W        W27878   0.130   4.783  14.128  0.0945 -0.1317  0.0089
12262W        W27879   9.010  17.992   1.818  0.1363  0.0003  0.0052
12263W        W27880  12.435   8.454   5.725 -0.0636 -0.1040 -0.1331
12264W        W27881  13.594   5.910  13.973 -0.2548 -0.1007 -0.3129
12265W        W27882   1.800   7.081   3.028 -0.2163 -0.2279  0.1524
12266W        W27883  11.526   1.295   0.226 -0.1092 -0.1611 -0.1489
12267W        W27884  15.105   0.955  14.250 -0.2568  0.1016  0.1213
12268W        W27885   7.523   2.136   3.589 -0.0277  0.1155  0.3402
12269W        W27886   6.813   1.119   5.181 -0.0415 -0.0090 -0.1942
12270W        W27887   6.477  10.743   2.217 -0.1713 -0.2840 -0.3225
12271W        W27888  13.529  15.076  12.202 -0.0362  0.3172  0.0959
12272W        W27889  17.707  10.858  14.099  0.0532 -0.1555 -0.0332
12273W        W27890   4.961  12.232   2.036  0.0972  0.1223  0.0854
12274W        W27891  16.390   1.350  13.891 -0.0936 -0.1856 -0.0040
12275W        W27892   0.851   3.703  11.965 -0.0628  0.0132 -0.0785
12276W        W27893   4.754  10.294   5.371 -0.0673  0.1981 -0.3434
12277W        W27894  15.107   7.928   1.095  0.0113 -0.1046  0.0252
12278W        W27895   6.468  13.771   1.881 -0.0556  0.0019  0.1784
12279W        W27896   6.956  17.945  14.257  0.0042 -0.0686 -0.2461
12280W        W27897   1.444  11.182  12.483  0.0375  0.4141 -0.3028
12281W        W27898  15.323   6.061  12.848 -0.1346  0.0285 -0.1356
12282W        W27899   5.450   9.209  16.116 -0.1210  0.1118 -0.2683
12283W        W27900  14.629  13.145  14.798 -0.2046  0.3117  0.1157
12284W        W27901  17.468   5.805  12.243 -0.1333  0.1125 -0.1301
12285W        W27902   2.864  17.797   3.629  0.0613 -0.2590  0.2340
12286W        W27903  10.209  11.034   4.041  0.2508 -0.0644 -0.3427
12287W        W27904   1.199   8.218   1.013 -0.0548 -0.4911 -0.1782
12288W        W27905   7.026   1.570   1.181 -0.0579  0.1330  0.0779
12289W        W27906  12.127   5.364  12.802 -0.1885  0.3372 -0.3593
12290W        W27907  17.384  17.457  15.774 -0.2892  0.0955 -0.0401
12291W        W27908  17.688   0.569  15.549 -0.1990  0.3448 -0.1187
12292W        W27909   8.092   9.123  11.542 -0.3649 -0.4240  0.0462
12293W        W27910   3.823   9.500  13.940 -0.0478 -0.1049  0.0997
12294W        W27911  11.072   5.534  13.511 -0.0170  0.3780  0.4912
12295W        W27912  12.247  15.841  13.005 -0.1134 -0.3100  0.1727
12296W        W27913  14.178   8.894   4.677  0.2847  0.1521 -0.0937
12297W        W27914  17.908  17.109   5.181 -0.3428 -0.0675  0.3681
12298W        W27915  17.671  13.335  11.919 -0.1490  0.0380 -0.1230
12299W        W27916   5.132   7.638  13.642  0.2819  0.2241 -0.1716
12300W        W27917  10.087   3.375   0.143 -0.1788  0.0699  0.2074
12301W        W27918  14.463   5.485  12.310 -0.0382 -0.2343  0.2019
12302W        W27919   3.478  14.752   2.511  0.1194  0.3593 -0.1296
12303W        W27920  15.038  12.730   4.665  0.1094 -0.1009  0.0764
12304W        W27921  10.036  11.299  11.488 -0.0723  0.2719 -0.0779
12305W        W27922   0.094   8.993   2.362  0.0737  0.1524 -0.1887
12306W        W27923  10.808  10.237   0.373 -0.2408 -0.0235 -0.2210
12307W        W27924  13.282  10.629   1.915  0.0827  0.1077 -0.0677
12308W        W27925   0.429  11.929  12.289  0.0932  0.0460  0.1033
12309W        W27926  13.032  15.993   4.670  0.2055  0.1544  0.3261
12310W        W27927   8.821   7.940  11.353 -0.0839 -0.0037 -0.0770
12311W        W27928   6.923   8.436   3.679  0.1249  0.1163 -0.1474
12312W        W27929  12.356  14.156  15.846  0.1486 -0.4958  0.0247
12313W        W27930   8.808  12.875   4.147  0.3363 -0.1323 -0.1186
12314W        W27931  10.158  10.610   1.324 -0.2666  0.2703  0.1515
12315W        W27932  15.485   8.640   2.881  0.2524  0.1682  0.1938
12316W        W27933  17.802  15.465   5.944 -0.3680  0.2353 -0.0303
12317W        W27934   8.999   0.907   0.526 -0.3030  0.1738 -0.2661
12318W        W27935   1.976   3.104   3.297 -0.1978 -0.0727  0.1548
12319W        W27936  17.442  13.509   1.145 -0.0094 -0.1446 -0.0839
12320W        W27937   4.221   3.784  11.522 -0.2444  0.0264  0.0818
12321W        W27938  14.112   1.958  13.241  0.1520  0.2588  0.0111
12322W        W27939   9.141  12.962  13.020 -0.1163  0.2640 -0.3442
12323W        W27940   8.283   3.227   1.355  0.0047  0.3174 -0.2389
12324W        W27941   1.767  16.305  15.722 -0.0281  0.0160 -0.1349
12325W        W27942   8.393   5.594   5.123  0.0891  0.3025 -0.1379
12326W        W27943  14.714   3.639   4.264 -0.1061  0.1127  0.0673
12327W        W27944   4.570   3.551  11.968 -0.1730  0.0965 -0.1279
12328W        W27945   6.419   4.659   1.809  0.2139  0.2760 -0.1369
12329W        W27946   9.656  13.723   4.170 -0.0829  0.0656  0.0419
12330W        W27947   3.397  13.043   1.792  0.0410  0.3244 -0.1462
12331W        W27948   2.164  17.281   3.142 -0.0119  0.2741 -0.2757
12332W        W27949   4.374   5.537  12.570 -0.1336  0.0354  0.1482
12333W        W27950  13.754   8.081   4.730 -0.1574  0.4750  0.3058
12334W        W27951  12.057  17.865  14.243 -0.1631 -0.2310 -0.3636
12335W        W27952  17.633   7.947  14.240  0.0238 -0.0523  0.0524
12336W        W27953   3.278  17.027   1.247  0.0112  0.0545  0.1143
12337W        W27954   5.622   0.473  13.089 -0.3457 -0.3691 -0.0248
12338W        W27955   4.990  17.596   0.329 -0.2381 -0.1875  0.0807
12339W        W27956   8.553  10.351  11.041 -0.1909  0.2197 -0.0256
12340W        W27957  11.589   6.749   2.201  0.0836 -0.0102  0.3332
12341W        W27958  10.250  16.571   1.854  0.2193 -0.0678 -0.1133
12342W        W27959   9.886  14.942  13.129 -0.0309  0.2172  0.0972
12343W        W27960   5.124   5.319   3.587 -0.1095 -0.1217  0.1567
12344W        W27961   2.098   8.461  16.120 -0.0443 -0.0408  0.1187
12345W        W27962  16.268  13.853  12.635 -0.2273 -0.0436  0.0688
12346W        W27963  16.934  17.306  14.674 -0.0656  0.1099  0.2838
12347W        W27964   1.064   4.912   4.195  0.2163  0.2267  0.5654
12348W        W27965   8.681  15.410   4.698  0.1011 -0.1101 -0.1243
12349W        W27966   8.049  11.748  11.190 -0.1672  0.4251  0.0789
12350W        W27967  15.399   3.501   5.719 -0.3146 -0.0521  0.1762
12351W        W27968  13.022  11.093   4.186  0.1767 -0.0186  0.1677
12352W        W27969   1.603  15.319  16.163  0.1107 -0.2516  0.0294
12353W        W27970   0.931   5.544  15.739 -0.1254  0.0832  0.1353
12354W        W27971  15.734   3.572   1.934 -0.4141 -0.0484 -0.1054
12355W        W27972  17.142   6.107  11.884 -0.3565  0.0070 -0.4393
12356W        W27973   6.024   3.556   5.342 -0.2158  0.0913  0.0758
12357W        W27974  16.621   4.887  11.214  0.0206  0.1411  0.0573
12358W        W27975  14.839   5.539  11.880 -0.0622 -0.1129 -0.1277
12359W        W27976   9.169   7.672   2.164 -0.0949  0.1056  0.3215
12360W        W27977  14.591   4.011  12.695 -0.1210  0.0987 -0.0721
12361W        W27978  15.252   5.230  13.085 -0.1113 -0.0028 -0.2662
12362W        W27979  12.993  17.980   0.236 -0.0143  0.0565  0.2526
12363W        W27980   8.499   6.894  11.750 -0.1791  0.0616  0.1525
12364W        W27981   0.288  13.655  11.535 -0.0742  0.0047  0.2130
12365W        W27982  16.686  14.982   2.382 -0.0853  0.0792 -0.2420
12366W        W27983   4.332  15.865  16.672 -0.0026 -0.1099 -0.0830
12367W        W27984   9.734  15.885  15.652  0.1407 -0.2230  0.2661
12368W        W27985  13.244   0.610   4.555  0.0866 -0.1708 -0.1064
12369W        W27986  10.342   2.186  11.746  0.2644 -0.0433 -0.2628
12370W        W27987   3.449  12.762  12.636 -0.1439 -0.0572 -0.0249
12371W        W27988   9.998  11.954   3.481  0.2188  0.0624 -0.0082
12372W        W27989  10.801  10.449  15.241 -0.2465  0.2107 -0.2006
12373W        W27990   2.542   9.265  12.599  0.1806 -0.0660 -0.0750
12374W        W27991   0.488  17.796  11.140 -0.0116  0.2447 -0.2474
12375W        W27992   0.379   1.633   1.168 -0.2432 -0.0379 -0.0681
12376W        W27993   9.550   6.633  11.650  0.1953  0.1011 -0.0951
12377W        W27994  11.215  14.145  12.775 -0.0357 -0.1716 -0.2607
12378W        W27995  11.014   9.894   3.773  0.4618  0.0085 -0.2342
12379W        W27996   7.068  13.571   1.517 -0.1616  0.1777 -0.3946
12380W        W27997   2.922   9.053  12.933 -0.0661  0.0499  0.1222
12381W        W27998   0.047   1.886   1.940  0.0887 -0.1334 -0.1281
12382W        W27999  15.294   4.533   5.611  0.1436  0.1037 -0.2161
12383W        W28000   3.430   7.183   1.981 -0.2584  0.2165  0.0930
12384W        W28001   6.390  14.424   0.676 -0.0724 -0.0742 -0.3302
12385W        W28002   9.623  14.077  12.636 -0.2086  0.1021 -0.1217
12386W        W28003   0.146   0.599  15.555 -0.1624 -0.0896 -0.0801
12387W        W28004   6.353  15.129   2.365 -0.1082 -0.2564  0.0059
12388W        W28005  10.069   4.378   0.344  0.0603 -0.0696 -0.0992
12389W        W28006  10.831   2.065  16.434 -0.0120  0.0665 -0.0602
12390W        W28007   7.413  10.282  15.716 -0.0342 -0.1438  0.5663
12391W        W28008  14.136  10.435   1.869  0.1955 -0.1705 -0.1719
12392W        W28009   4.238   2.751   0.921 -0.0097 -0.0350 -0.0104
12393W        W28010   9.735  14.095   0.444  0.1162 -0.1127 -0.1177
12394W        W28011   0.233   4.248   6.079 -0.1886  0.1643 -0.4042
12395W        W28012  16.998  16.017   3.272 -0.2409 -0.1125 -0.0968
12396W        W28013   4.253   6.097   5.118  0.0222 -0.0446 -0.3260
12397W        W28014   2.506  15.995   1.972 -0.1288 -0.1394 -0.0476
12398W        W28015   4.844   2.086  11.915 -0.0012  0.0842 -0.1222
12399W        W28016  12.267  17.219   0.973 -0.1700 -0.1260 -0.0113
12400W        W28017   7.811   7.322   4.883  0.5223 -0.0057  0.1367
12401W        W28018   3.154   8.009   4.665  0.2109 -0.2103  0.0915
12402W        W28019   7.913  12.210  12.426  0.0070  0.1454  0.1392
12403W        W28020   2.786  16.391   0.821  0.1290 -0.0191  0.0537
12404W        W28021  15.675   6.138  16.452  0.0998 -0.0318 -0.0442
12405W        W28022   2.564   3.670  12.489 -0.0176 -0.0510  0.0690
12406W        W28023  14.017   4.656   4.707  0.1293 -0.0113 -0.1612
12407W        W28024   4.124  18.043  13.811  0.0205  0.0779  0.1839
12408W        W28025   9.638   4.039   4.891 -0.5139  0.1303  0.2370
12409W        W28026  15.880   4.773  10.589 -0.1102 -0.1211  0.1178
12410W        W28027   0.065  16.956   5.575  0.2822  0.1383 -0.3844
12411W        W28028   4.998  16.849   2.419  0.0315  0.1809  0.1576
12412W        W28029   7.208   4.871   4.899 -0.0119 -0.1380 -0.1452
12413W        W28030   9.980  17.137  11.504 -0.0142 -0.0885 -0.0827
12414W        W28031   9.218  13.279  14.253  0.1151 -0.3257 -0.2589
12415W        W28032   8.541  14.841   0.177  0.0825 -0.0687 -0.2467
12416W        W28033   2.687   8.894  15.383  0.1664 -0.0395  0.0901
12417W        W28034   7.874   8.962   1.803  0.1114 -0.1888 -0.1061
12418W        W28035  15.142   9.261   5.552 -0.0170  0.0290 -0.2759
12419W        W28036   9.370   0.296  16.256  0.3239  0.0065  0.1770
12420W        W28037  11.102   1.460   5.151 -0.1602  0.2458 -0.2708
12421W        W28038   3.184   0.840   0.770 -0.0159  0.4024 -0.5250
12422W        W28039  15.382  10.758   0.522  0.0307  0.2926 -0.3340
12423W        W28040  11.191  10.971  11.621  0.4312 -0.1743  0.1030
12424W        W28041   0.395  15.422   4.162 -0.0298 -0.1076 -0.2265
12425W        W28042   0.755   4.697   2.908 -0.2588  0.0636  0.0258
12426W        W28043   8.615   8.791  14.002  0.1431 -0.1702  0.1586
12427W        W28044   9.098  17.106   5.297  0.0581 -0.0939  0.1908
12428W        W28045   0.998   4.594  11.899  0.1680 -0.1027  0.2120
12429W        W28046   1.915  14.132  12.711 -0.1790 -0.0458  0.0669
12430W        W28047   0.557  10.140   5.056 -0.3654  0.2401  0.0707
12431W        W28048  17.071  15.810   4.086  0.2921 -0.3000  0.0155
12432W        W28049   8.110  11.261   4.245 -0.1434 -0.1789  0.0946
12433W        W28050   2.501  10.739   3.990 -0.2919 -0.2938 -0.1655
12434W        W28051   5.470   2.097   4.601 -0.3126 -0.0529 -0.0304
12435W        W28052   3.787   7.321  12.440 -0.2335 -0.1525 -0.1478
12436W        W28053   4.237  14.662  13.910 -0.0679  0.1382 -0.2379
12437W        W28054   8.199   6.305   0.390  0.1457  0.2255 -0.0231
12438W        W28055  17.575  17.399   0.787  0.1722  0.2425 -0.0877
12439W        W28056  17.709   8.239  14.708  0.1304  0.2563  0.0710
12440W        W28057   7.089   0.896   4.837  0.1484 -0.2748 -0.0636
12441W        W28058  10.631   3.213   4.128 -0.0636 -0.0856 -0.1041
12442W        W28059  12.371   7.510  16.737 -0.3025  0.3390  0.2488
12443W        W28060   4.487   1.945  15.989 -0.0134 -0.0347  0.3139
12444W        W28061   2.969   1.698   5.316 -0.1937 -0.0808  0.0501
12445W        W28062  12.041   5.107   4.877  0.3299 -0.0773  0.0861
12446W        W28063   4.384  10.717   1.360  0.4582 -0.2314  0.0031
12447W        W28064   9.626   0.175   5.476  0.1465 -0.1257  0.0543
12448W        W28065  13.788   7.590  13.914  0.1830 -0.1575  0.2921
12449W        W28066   7.287   1.804   2.501 -0.0702  0.0433 -0.1662
12450W        W28067  11.858   6.536  15.227  0.2201  0.3393 -0.1067
12451W        W28068  14.974   1.145  16.313  0.0446 -0.1877  0.0452
12452W        W28069   3.784   2.280  16.781  0.0057 -0.1146 -0.3139
12453W        W28070   9.832   7.630  11.555 -0.2172 -0.0999  0.1097
12454W        W28071  10.393   4.775  14.452  0.0874 -0.2217  0.1716
12455W        W28072  15.270  13.776  12.348  0.2260  0.2174 -0.0292
12456W        W28073   6.111   5.042  13.319 -0.3009  0.1487 -0.1774
12457W        W28074   8.962   4.098   1.382 -0.2204  0.0714 -0.2743
12458W        W28075  16.918   5.750   4.601  0.3029  0.1185 -0.0293
12459W        W28076   5.790   9.928  16.009  0.0768  0.4460 -0.0099
12460W        W28077   8.615   1.417   1.292  0.1113  0.0455  0.2682
12461W        W28078   7.763  14.495  16.019  0.0134 -0.1385  0.0490
12462W        W28079   5.478   3.061   2.695 -0.1023  0.3528  0.0617
12463W        W28080   5.811   9.543   3.107  0.2552  0.3302 -0.1726
12464W        W28081   8.107   8.551  11.550 -0.0310  0.1853  0.0484
12465W        W28082  10.296  14.363  15.604 -0.1171 -0.2995  0.0303
12466W        W28083   7.851   0.426  11.411  0.0932 -0.1911 -0.2603
12467W        W28084   9.966   6.405  13.973  0.0739  0.0892  0.0593
12468W        W28085  11.667   1.847  11.778  0.3372 -0.0502  0.0614
12469W        W28086  11.069  11.362  16.536 -0.2152  0.1697  0.1305
12470W        W28087   6.802  14.427   0.274 -0.0317  0.0538  0.3617
12471W        W28088  13.278   6.419   1.294 -0.2630  0.1751 -0.0443
12472W        W28089   3.932   7.649   0.170 -0.1262  0.1171 -0.1367
12473W        W28090  15.061   2.468   4.409  0.2095  0.0084  0.1074
12474W        W28091  11.795   5.615  14.895 -0.1508  0.0381  0.2671
12475W        W28092  13.409  16.052   0.506  0.3450  0.0179 -0.0163
12476W        W28093  15.156   8.944   2.415 -0.1606 -0.2512  0.0353
12477W        W28094  14.204   5.254   6.167 -0.0764 -0.2232 -0.1147
12478W        W28095  16.237   2.162   4.231 -0.1596 -0.1231  0.2522
12479W        W28096  11.028  17.756   0.015 -0.2023  0.0740 -0.2426
12480W        W28097   4.958   0.461  10.852  0.0551  0.0757 -0.2687
12481W        W28098  12.599  16.483   1.715 -0.2327  0.0455 -0.0219
12482W        W28099  10.016  13.849   0.111  0.0760 -0.0068 -0.1198
12483W        W28100   2.816   5.514  16.493  0.0015 -0.1914 -0.2520
12484W        W28101   8.192  10.560  15.375 -0.1680 -0.1372  0.0617
12485W        W28102   3.952  17.351  16.032 -0.1183  0.0328  0.0536
12486W        W28103   3.327   5.667   1.287  0.1686  0.0057  0.2399
12487W        W28104  13.362  12.153   5.790  0.1388 -0.1177  0.1109
12488W        W28105  11.524  16.853   3.690 -0.0078  0.2570  0.2015
12489W        W28106   2.100  17.092  13.584  0.2268 -0.1028  0.1467
12490W        W28107   4.480   1.674  14.053  0.0010  0.0395  0.2618
12491W        W28108   9.909  10.663  16.450  0.0823  0.2547 -0.0358
12492W        W28109  17.236  12.712   5.079  0.2072 -0.0722 -0.0406
12493W        W28110   9.067   6.672   2.147 -0.1696 -0.0980  0.0759
12494W        W28111   6.522   3.147  14.627 -0.1250 -0.1190  0.1765
12495W        W28112   9.359   3.825   2.614 -0.2733  0.1336 -0.1571
12496W        W28113  10.983   8.404  14.025 -0.3516 -0.0522 -0.2620
12497W        W28114  11.474   8.974   2.818 -0.0787  0.0418 -0.0097
12498W        W28115   8.073   3.575  13.841  0.1151 -0.0228  0.0974
12499W        W28116  12.827   1.548   4.521 -0.2700  0.0860  0.0759
12500W        W28117   9.520  13.297  12.090 -0.1840 -0.0073 -0.1976
12501W        W28118   5.513  13.476  15.518  0.2675  0.1698  0.0661
12502W        W28119   1.437  13.373   3.742  0.0980 -0.2390  0.0654
12503W        W28120  13.821   2.250  15.225 -0.2532  0.1955  0.1436
12504W        W28121   7.456   8.804   0.116  0.2019  0.1017  0.3433
12505W        W28122  10.041  12.272  13.981 -0.0146 -0.0315  0.1781
12506W        W28123  16.090   8.407   1.335 -0.1831 -0.1368  0.2297
12507W        W28124  13.238   9.981  16.452 -0.1597  0.1807  0.0152
12508W        W28125  10.592  15.754   0.304 -0.1303  0.5178  0.1612
12509W        W28126  15.582  14.211   2.220  0.0584  0.1258  0.1981
12510W        W28127   4.178   3.393   4.276 -0.0375 -0.1763 -0.0268
12511W        W28128   2.684   7.991   4.382 -0.1011 -0.0053 -0.1607
12512W        W28129  14.324   0.366   3.893 -0.1973 -0.0893  0.0696
12513W        W28130  11.996  11.496   2.181  0.1093  0.4293 -0.0942
12514W        W28131   0.175   0.644   1.573  0.0565  0.0584  0.1745
12515W        W28132  16.983  16.738   2.472  0.3905 -0.0027 -0.2017
12516W        W28133  17.410  10.316  16.253  0.1871  0.0315  0.1283
12517W        W28134  10.270  13.352  16.670  0.0283  0.0319 -0.0977
12518W        W28135  13.004   0.869  12.794  0.0367  0.0453  0.2738
12519W        W28136  12.278   8.181   1.204  0.3398  0.0888  0.0961
12520W        W28137   8.950  17.163  13.106  0.0831  0.2466 -0.1870
12521W        W28138   1.739  13.901   1.981  0.0982  0.0786 -0.0104
12522W        W28139  15.804   3.659   3.493 -0.2096  0.0180  0.1503
12523W        W28140   7.464   3.476  16.747  0.1213 -0.1075 -0.1276
12524W        W28141   4.084   6.501   1.113  0.0814 -0.0116 -0.1605
12525W        W28142  10.261   6.706  16.493 -0.0023  0.0762  0.2863
12526W        W28143   5.310  13.439   5.270  0.0801 -0.0385  0.2537
12527W        W28144  17.402   1.267  16.546  0.0764  0.1621  0.3095
12528W        W28145   2.846   4.006  14.859  0.4118 -0.1518  0.0955
12529W        W28146   2.698  12.383  12.780  0.1355 -0.1487  0.0686
12530W        W28147  16.372   3.415  14.682 -0.2337 -0.1750 -0.2676
12531W        W28148  14.220   0.848  16.465  0.4547  0.2814 -0.0578
12532W        W28149  10.615  10.137  12.473  0.4511  0.0167 -0.3889
12533W        W28150   1.841   7.044   6.086 -0.0164 -0.0830 -0.3478
12534W        W28151  16.421   1.122   0.396 -0.0596  0.1855  0.0614
12535W        W28152   4.168   3.512   3.118 -0.0671 -0.1626  0.2843
12536W        W28153  15.208   4.176   0.769 -0.0205  0.2428  0.0384
12537W        W28154  12.890   8.213  15.029  0.0632 -0.1313  0.5144
12538W        W28155   2.812  10.730  12.000 -0.2572 -0.1246 -0.0912
12539W        W28156  11.896   3.845  13.574 -0.0653  0.0050  0.0440
12540W        W28157   9.802   6.249   2.948  0.0360 -0.0370 -0.1237
12541W        W28158  16.022   4.060   3.287 -0.1450  0.1737  0.1551
12542W        W28159   9.631  13.235   4.075 -0.0649 -0.2000  0.1081
12543W        W28160   3.578   7.152   0.731  0.2376  0.0283 -0.1968
12544W        W28161   6.585   9.087  13.018  0.2265  0.1888 -0.2416
12545W        W28162   0.685  13.548   0.295  0.2152 -0.1025 -0.1073
12546W        W28163  16.989  13.194  11.318  0.1227 -0.0968 -0.3706
12547W        W28164   3.345   4.331   1.984 -0.1637  0.3061 -0.1969
12548W        W28165   6.413  16.520   1.237  0.3404  0.2338 -0.1064
12549W        W28166   8.034   3.880  16.253  0.2415 -0.1566  0.1124
12550W        W28167  16.159  11.934   1.579  0.0313 -0.3037  0.0763
12551W        W28168   8.710  12.885   0.190 -0.0077 -0.1364  0.0439
12552W        W28169  11.400  11.432  13.940  0.2914  0.0035  0.0020
12553W        W28170   8.399   4.579   5.051  0.1439  0.1610 -0.1981
12554W        W28171   8.745  14.513  13.556 -0.1608  0.0601  0.1233
12555W        W28172   6.878   5.122  13.989  0.1447  0.1662  0.1184
12556W        W28173   5.087   2.998   0.639 -0.2734  0.0276 -0.0228
12557W        W28174  17.414  11.750   5.277  0.2020  0.2809 -0.1274
12558W        W28175   1.604  12.484   4.013 -0.1396  0.2897 -0.0333
12559W        W28176   2.658   7.363   0.809  0.0246 -0.0354  0.2451
12560W        W28177  11.231  15.303  12.872 -0.0558 -0.1845 -0.0212
12561W        W28178  15.788  15.022  11.843 -0.3959 -0.1728 -0.0490
12562W        W28179  13.130   2.259   6.034  0.1470 -0.2210  0.1210
12563W        W28180  13.832  17.599   1.494  0.0375  0.4729  0.1044
12564W        W28181   3.648   2.400   1.136  0.1820  0.2874 -0.0136
12565W        W28182  17.297  12.352  16.262 -0.3553 -0.1339  0.0478
12566W        W28183   5.366   3.156  11.649  0.1032  0.1956  0.0004
12567W        W28184  11.270   4.591   3.005  0.0453 -0.1600  0.1018
12568W        W28185  15.720   4.747  11.876  0.0062 -0.0560 -0.2532
12569W        W28186  11.445  10.138   1.530 -0.2253 -0.1086 -0.0153
12570W        W28187  14.253  13.624  14.407  0.2922  0.2426  0.2682
12571W        W28188  14.271  17.161   0.207 -0.1006 -0.0405  0.3297
12572W        W28189   7.588  11.747  12.538  0.1777  0.0831 -0.0181
12573W        W28190  13.665   4.659   3.278  0.1208  0.0118  0.0385
12574W        W28191  10.052  13.685   1.274  0.1424  0.0725  0.0223
12575W        W28192  13.187   2.103   2.999  0.2927  0.0241 -0.0585
12576W        W28193   0.892   6.320  12.434 -0.2156  0.0113 -0.0041
12577W        W28194  12.877   2.785  15.935  0.0894 -0.1538  0.2167
12578W        W28195  16.968  11.973   2.118  0.0118  0.1352  0.2204
12579W        W28196  16.804  18.017  11.987  0.1605  0.2308 -0.3051
12580W        W28197  13.060   2.325   0.719  0.0551  0.1500 -0.0320
12581W        W28198   3.316  15.984  14.054 -0.1341 -0.1186  0.2633
12582W        W28199   1.080   9.692   5.817 -0.0730 -0.0929  0.0839
12583W        W28200  16.367   5.358  14.386 -0.0403  0.0775 -0.2667
12584W        W28201  15.107   0.729  16.508 -0.0023  0.0387  0.0681
12585W        W28202   2.557  17.916  11.798 -0.0159 -0.0896  0.0785
12586W        W28203   5.898   7.154  13.113  0.0130  0.1468 -0.0418
12587W        W28204   9.023  15.925   0.859  0.0109 -0.3367 -0.0715
12588W        W28205   4.378  12.087  13.026  0.0441 -0.1336  0.0553
12589W        W28206  13.155   1.813  12.335 -0.1757 -0.1224 -0.1354
12590W        W28207  16.225   4.500  11.782 -0.0089 -0.3639  0.0101
12591W        W28208   3.408   8.944   0.226 -0.1593  0.3182 -0.0600
12592W        W28209  14.913  14.579   1.632 -0.0655  0.1129  0.0749
12593W        W28210  16.912   7.629   4.810 -0.2258  0.0050  0.3563
12594W        W28211  16.556   8.572   1.381 -0.1310  0.0134  0.1041
12595W        W28212   2.080  14.738  12.801  0.0385  0.2722  0.1365
12596W        W28213  15.772  12.871  15.933 -0.0610 -0.0726 -0.0457
12597W        W28214   6.209  16.572   6.655  0.2298 -0.0341  0.1481
12598W        W28215   1.401   3.811   2.898  0.2432  0.0740  0.3367
12599W        W28216   8.160  17.365   0.717  0.0133  0.0311 -0.1620
12600W        W28217   3.456  11.840  12.781  0.0450 -0.1713  0.1478
12601W        W28218  14.132   5.391  15.615 -0.0116  0.3267  0.0538
12602W        W28219  14.152   1.385   3.208  0.1732  0.0196  0.0594
12603W        W28220  17.383   6.047   0.469  0.3521 -0.2238  0.0614
12604W        W28221  15.141   6.938   4.720  0.2301  0.0688  0.0739
12605W        W28222  17.230   5.154  12.965  0.2018  0.2112 -0.4344
12606W        W28223  16.447   3.601   6.149 -0.3940  0.2590 -0.0331
12607W        W28224  17.902  14.799   4.081  0.0487  0.2166 -0.0603
12608W        W28225   4.478   9.386   0.665  0.1800  0.1197 -0.0243
12609W        W28226   8.909   8.472  11.949 -0.0741  0.1161  0.0419
12610W        W28227   0.480  11.739  10.799  0.0906  0.0520  0.0875
12611W        W28228   9.113  16.056  15.473  0.1502  0.1921 -0.0298
12612W        W28229  16.007   6.551  11.972  0.1496  0.3251 -0.1557
12613W        W28230   9.266   4.079   0.311  0.1551  0.2255  0.0229
12614W        W28231  16.136   5.510  12.874  0.1382  0.2233  0.0240
12615W        W28232   3.273  14.358   0.548 -0.2209 -0.1547 -0.0328
12616W        W28233  12.155  14.539   2.922  0.0238 -0.2539  0.4373
12617W        W28234  11.204  10.944   1.463  0.1985 -0.3353 -0.1561
12618W        W28235   7.031   5.998  12.366  0.1496  0.1711  0.1858
12619W        W28236  17.972   3.665   0.273  0.1069 -0.1572  0.2507
12620W        W28237   2.934   5.719  15.394  0.2448 -0.1056 -0.1196
12621W        W28238  11.685  12.197  12.777 -0.0617 -0.1044  0.1158
12622W        W28239   9.012  14.856  12.783 -0.1403  0.0462 -0.2320
12623W        W28240  16.536   0.129  16.474  0.1277 -0.0830  0.0579
12624W        W28241  16.353  14.014   0.453  0.0113 -0.2583  0.2768
12625W        W28242   5.949  16.996  10.829 -0.0016 -0.4026 -0.0721
12626W        W28243  11.179  14.475   4.346  0.1629 -0.0319 -0.0130
12627W        W28244   5.723  12.363  13.556 -0.3152 -0.3017  0.0189
12628W        W28245  16.308  13.055  11.895  0.3431 -0.0820  0.1445
12629W        W28246   8.999  17.005  14.027  0.2876 -0.2912 -0.2346
12630W        W28247   0.527   5.812   4.351  0.0120  0.3930 -0.0133
12631W        W28248   3.922   7.052   1.105  0.1080 -0.0972 -0.2153
12632W        W28249   4.656   9.348   5.717 -0.2578 -0.1092  0.4053
12633W        W28250   7.430   6.297  15.294  0.0224  0.0751  0.1033
12634W        W28251   6.893   0.488   3.094 -0.1202  0.0425  0.1326
12635W        W28252   3.973  16.852   4.590  0.2744  0.1320 -0.1088
12636W        W28253  15.146   2.738  13.768 -0.0606 -0.1304 -0.1436
12637W        W28254   7.598   6.982   2.119  0.3037 -0.1393  0.3439
12638W        W28255   6.998   4.696  10.756 -0.0716  0.1585  0.0245
12639W        W28256   1.203   9.952   5.365  0.1315  0.0352 -0.2326
12640W        W28257  11.468   0.754   0.746  0.1713  0.0150 -0.3320
12641W        W28258  13.625  17.003   5.820  0.0522 -0.1120  0.1369
12642W        W28259  10.586  10.785   1.535  0.0005  0.2410 -0.1488
12643W        W28260  10.190   0.076   3.400 -0.0302 -0.0200  0.2024
12644W        W28261   4.967   0.779  12.439 -0.0306 -0.0704  0.0192
12645W        W28262  13.302  17.912   0.613 -0.1089  0.3181 -0.1716
12646W        W28263  16.608  11.908  16.193  0.0872 -0.0706  0.0178
12647W        W28264  16.107   8.342   3.575  0.0630  0.0130  0.0760
12648W        W28265  17.300  16.861  15.092 -0.2925 -0.1948 -0.0021
12649W        W28266  17.302  15.794  13.457 -0.0717 -0.2734 -0.0415
12650W        W28267   4.507   8.191  11.780  0.0934 -0.0404  0.0544
12651W        W28268  14.029  16.856   0.624 -0.0595 -0.1312 -0.3217
12652W        W28269  14.347  13.370   0.578 -0.1929  0.2753  0.1031
12653W        W28270   1.321  12.464   1.402 -0.1569 -0.2839  0.1011
12654W        W28271  16.059   5.168  12.034 -0.0207  0.0063  0.0906
12655W        W28272   2.126   1.138  13.259  0.4726  0.0591 -0.0811
12656W        W28273   2.170   2.129  15.767 -0.0093  0.1548 -0.0975
12657W        W28274  13.028  17.803   3.952 -0.0137  0.0651 -0.0257
12658W        W28275  11.438   3.989  13.820 -0.1460 -0.2787 -0.1176
12659W        W28276   1.737   8.866  14.665 -0.3532 -0.2233 -0.1801
12660W        W28277  16.353   7.397   2.107  0.0403 -0.1229  0.3511
12661W        W28278   1.128   9.595   0.869 -0.0849 -0.0922 -0.0365
12662W        W28279   2.158   5.205   5.068  0.4250  0.0375 -0.4314
12663W        W28280   7.693   8.883  15.787 -0.1603  0.5682  0.1373
12664W        W28281  11.065  14.761   6.370  0.1749  0.0031  0.0971
12665W        W28282   4.709   3.599   1.151  0.0375 -0.0216 -0.1297
12666W        W28283  13.899  10.330   1.447  0.0744 -0.0292  0.0077
12667W        W28284   4.111  12.708   4.264  0.1412  0.2974 -0.1018
12668W        W28285   5.835   3.580   4.548 -0.1088 -0.0724  0.1348
12669W        W28286   9.830  12.217   0.240  0.2517 -0.3736 -0.0064
12670W        W28287  11.520   2.724  14.286  0.1556  0.0025 -0.2052
12671W        W28288  15.691  10.348   2.337 -0.1544  0.2358 -0.0844
12672W        W28289  10.176  13.766   4.012  0.0014 -0.0329  0.0145
12673W        W28290   2.658  12.464  14.338  0.1020  0.2239  0.3064
12674W        W28291  14.430   1.750   5.336 -0.0561 -0.3373  0.0829
12675W        W28292   3.882  13.274  11.917 -0.2976  0.0047  0.0853
12676W        W28293   8.577   9.570   2.268 -0.0142 -0.0119  0.1286
12677W        W28294  16.724   9.120  14.484 -0.0940  0.0594 -0.0842
12678W        W28295   3.546   6.139  13.309  0.1530  0.1486 -0.0591
12679W        W28296  17.059   4.077   4.221 -0.0463 -0.1758  0.1802
12680W        W28297  16.526   8.576  16.474  0.0691 -0.1585 -0.3690
12681W        W28298  17.416  16.949   2.281 -0.1202 -0.0523  0.0269
12682W        W28299  17.195   9.939  11.147  0.2697 -0.1138  0.2634
12683W        W28300  11.997  16.662   3.934 -0.1320  0.1632  0.2674
12684W        W28301   8.941   9.093   2.942  0.1363  0.2155 -0.0715
12685W        W28302   6.262   6.770  11.944 -0.0021 -0.1195  0.2915
12686W        W28303  15.232   4.307   3.808  0.2857 -0.2253  0.3716
12687W        W28304   1.969   0.640  14.409  0.0994 -0.0159  0.0424
12688W        W28305   6.227  11.274  15.022  0.0584 -0.1370  0.0286
12689W        W28306  14.230  13.238  16.459  0.0362 -0.1399 -0.2197
12690W        W28307   5.642   4.062   2.836 -0.1834 -0.0436 -0.1691
12691W        W28308   8.443   5.016  13.037  0.2066  0.0734 -0.3553
12692W        W28309  12.964  15.105  11.711  0.0599 -0.0625 -0.0723
12693W        W28310  17.031  18.035   0.190 -0.0242 -0.1664  0.0918
12694W        W28311   0.749  13.281   4.189  0.0725  0.0946  0.0597
12695W        W28312  17.865  15.262   3.249  0.1745  0.3268 -0.0223
12696W        W28313  13.009  10.644  11.358 -0.1667 -0.0686  0.1125
12697W        W28314   7.470   1.634   1.427 -0.1196 -0.4286 -0.3380
12698W        W28315  12.069  14.041  11.802  0.1145  0.1028  0.2071
12699W        W28316   2.046   7.706   1.061  0.0939  0.3239 -0.0055
12700W        W28317   0.108  15.580   4.891 -0.0495  0.0922 -0.0306
12701W        W28318   9.145  13.364   1.546 -0.3700 -0.0413  0.2641
12702W        W28319   5.856   7.497  15.588  0.1394 -0.1325 -0.0461
12703W        W28320  13.920   5.750   1.785 -0.0148  0.1726 -0.2247
12704W        W28321   3.137  17.571  12.604  0.1801  0.0448  0.0266
12705W        W28322  17.355   8.647  14.682  0.0430  0.1652 -0.1681
12706W        W28323  14.198   0.068   6.356  0.1653  0.1841 -0.0064
12707W        W28324   8.567   1.487   3.472 -0.1293  0.1394  0.0087
12708W        W28325  14.407   8.646  16.169  0.0761 -0.1340 -0.3329
12709W        W28326  15.075  16.498  13.418 -0.1661  0.0215  0.4817
12710W        W28327   3.867   8.680   0.288 -0.1928  0.3449 -0.0677
12711W        W28328   4.297   2.760   2.698  0.0914  0.0341 -0.0207
12712W        W28329   9.709   5.008   3.831 -0.0286 -0.1425  0.0869
12713W        W28330  12.381   6.258  13.683 -0.0122  0.0526 -0.1607
12714W        W28331   7.078  11.575   5.006  0.3913  0.1208  0.1954
12715W        W28332   2.772   3.203   0.937 -0.0483  0.3616  0.2086
12716W        W28333  12.073   9.043   4.948 -0.1105 -0.0011  0.1784
12717W        W28334  16.798  12.237   3.934 -0.0695 -0.0121 -0.0097
12718W        W28335   9.318  16.357   4.541  0.0295  0.2540  0.1681
12719W        W28336   4.661   9.907  15.986  0.1345  0.2573  0.0570
12720W        W28337   2.568   4.035   4.268 -0.2042 -0.0385  0.0310
12721W        W28338  14.044   4.723  16.429 -0.2448  0.1526  0.0797
12722W        W28339  17.834   7.271   0.636 -0.0451  0.0263 -0.2970
12723W        W28340  10.751   1.803   0.665 -0.4300 -0.0276  0.1872
12724W        W28341  15.509  11.374  12.742  0.1107  0.0105  0.1307
12725W        W28342   3.032  17.729  11.643 -0.0664  0.0655  0.0489
12726W        W28343  12.697  11.146  13.811  0.3298  0.0769 -0.0341
12727W        W28344  17.767  13.256   2.469 -0.0164  0.1589 -0.0776
12728W        W28345   1.333   3.589  12.638  0.1064  0.1858  0.2914
12729W        W28346  12.074   2.177   2.246  0.2473 -0.1115 -0.0038
12730W        W28347   2.606   0.823  16.111  0.0376 -0.1902 -0.0932
12731W        W28348  11.069   7.157  16.634 -0.4499 -0.0269  0.1842
12732W        W28349   6.148   9.776   0.004  0.0269 -0.0395 -0.1893
12733W        W28350  15.304   0.920   3.434 -0.0767 -0.1140  0.0844
12734W        W28351   2.005   6.248  13.963  0.1534 -0.0819  0.0497
12735W        W28352  16.618   6.593   3.423 -0.1735 -0.1660  0.0957
12736W        W28353   0.195  16.953   3.164 -0.0445  0.0222 -0.2278
12737W        W28354   5.609   6.720   3.527  0.0047 -0.3069 -0.0713
12738W        W28355  16.890   8.624   5.410  0.0896 -0.3771  0.2054
12739W        W28356  11.740  17.857  15.599  0.1597 -0.3847 -0.1742
12740W        W28357  12.086  14.153  16.460 -0.0110  0.3102 -0.0273
12741W        W28358   5.084  10.114   0.928  0.0961  0.0450 -0.2268
12742W        W28359  16.436   6.252   6.392 -0.0733  0.1540 -0.1096
12743W        W28360   1.069   7.242  14.696  0.1044 -0.2615 -0.0941
12744W        W28361  13.544   4.712   4.885 -0.5373 -0.1235  0.0657
12745W        W28362   6.506  10.010   0.369 -0.3223  0.0224  0.0874
12746W        W28363  14.592  15.721   2.477  0.0275 -0.1314 -0.1054
12747W        W28364   4.899   2.431   3.714 -0.4864  0.0203  0.1040
12748W        W28365  12.807   6.756   3.593  0.1253  0.3976 -0.2328
12749W        W28366   4.985   3.243   1.966 -0.1639 -0.0525  0.1422
12750W        W28367  17.634   4.273  12.818  0.0995  0.0653 -0.1014
12751W        W28368   4.373  10.316  15.940  0.0221 -0.1934  0.0144
12752W        W28369   0.441   3.821  13.647  0.0510 -0.1303 -0.4327
12753W        W28370  17.635   7.365   5.413 -0.2559 -0.1219  0.1060
12754W        W28371   0.669  11.406  13.629  0.1463 -0.3662 -0.3044
12755W        W28372  13.603   6.886   2.796  0.0678 -0.1173  0.0497
12756W        W28373   7.680   4.794  12.848  0.0888 -0.1592  0.0913
12757W        W28374  14.591  11.947  11.987  0.1611 -0.0086 -0.0478
12758W        W28375  12.249   7.383   3.052  0.0889 -0.3804 -0.0608
12759W        W28376   8.357  10.748   2.546 -0.1117  0.1657 -0.2336
12760W        W28377  17.499   3.746  12.846 -0.1963 -0.1002 -0.0334
12761W        W28378   4.520   2.691   1.339  0.1057 -0.2010 -0.2070
12762W        W28379   5.000  11.547   0.454  0.0356  0.2135 -0.1673
12763W        W28380   0.558   3.304   4.292  0.1840 -0.0863  0.0035
12764W        W28381   9.488  11.599  12.297  0.0795 -0.0371  0.1530
12765W        W28382  15.500  11.748   2.143  0.3764  0.1337  0.2010
12766W        W28383   4.423  11.834   4.645  0.6486 -0.2157 -0.4834
12767W        W28384   2.504   5.288   4.498 -0.1244  0.1317  0.0307
12768W        W28385   1.693  10.648   0.340 -0.1978  0.2154 -0.0561
12769W        W28386  15.973  11.604   1.979  0.0076 -0.0378 -0.1133
12770W        W28387   2.233   8.049   4.700  0.1332 -0.0339  0.1010
12771W        W28388   4.692   1.880  14.442 -0.4801  0.2913 -0.1469
12772W        W28389  14.155   6.941   1.101 -0.1463  0.3829  0.0066
12773W        W28390   0.581  14.009   1.019 -0.1298 -0.0572  0.0677
12774W        W28391  16.001   8.448  13.753 -0.0224  0.1367  0.1797
12775W        W28392   8.881  12.918  12.595 -0.1997 -0.1800 -0.0532
12776W        W28393   0.990   5.242  16.646  0.0053 -0.1569 -0.1648
12777W        W28394  14.526   9.728  15.687 -0.2556  0.2871  0.1401
12778W        W28395  16.525  16.043   1.404 -0.0865  0.2351 -0.1797
12779W        W28396   6.632   9.751  14.087 -0.1358  0.1526 -0.1025
12780W        W28397   6.661   0.247   4.279  0.0402  0.0356  0.5113
12781W        W28398   6.802   1.390   2.735  0.2882  0.0697  0.0931
12782W        W28399   8.351  16.074   0.070 -0.1635  0.0570 -0.0491
12783W        W28400   8.376  11.573  10.747 -0.1170  0.0553  0.1350
12784W        W28401  15.407  15.675   4.588 -0.0813  0.1124  0.0053
12785W        W28402  10.987  17.495   2.706 -0.5055  0.1150 -0.0291
12786W        W28403  16.741  11.467  16.407 -0.0173 -0.0780 -0.2979
12787W        W28404  14.913  16.120   4.857 -0.0201 -0.1300 -0.0074
12788W        W28405   1.607  15.989  12.129  0.0676  0.2975 -0.3215
12789W        W28406   5.328   7.154   1.871 -0.0398 -0.1851 -0.0272
12790W        W28407   7.083  10.086   0.370 -0.1050  0.0601  0.0244
12791W        W28408  17.637   5.443   2.593  0.3787 -0.2760  0.1798
12792W        W28409   7.748  13.811  14.958  0.0502 -0.1756 -0.1729
12793W        W28410  15.190   0.526  16.063 -0.0734  0.0816 -0.0818
12794W        W28411  16.651   3.075   6.048  0.0138 -0.1386 -0.0311
12795W        W28412   0.913   7.829   2.969  0.4485 -0.1747  0.3329
12796W        W28413  15.936   1.592   2.741  0.0840  0.3370 -0.0098
12797W        W28414   3.630  13.272  12.396  0.0316  0.1752  0.1196
12798W        W28415   6.522  11.310  15.991  0.0876 -0.0704 -0.2548
12799W        W28416   1.250   0.270  14.112  0.1436  0.1069  0.3278
12800W        W28417   7.596  13.930   2.654  0.3010  0.0742 -0.4186
12801W        W28418   1.317   8.967   5.332  0.0210 -0.2023  0.2243
12802W        W28419  12.401   0.359   4.742  0.2680  0.0094  0.4244
12803W        W28420   2.891   7.938  14.046 -0.2762  0.1123 -0.1552
12804W        W28421   0.383  14.377   1.926 -0.1968  0.0352  0.1944
12805W        W28422   2.451  10.072   0.965 -0.2421  0.0303  0.1662
12806W        W28423   3.291  11.935  15.498 -0.0376  0.0665 -0.2451
12807W        W28424  13.302   0.131  14.720  0.1542  0.1917 -0.0414
12808W        W28425  13.195   5.396   5.395  0.1021 -0.0204 -0.0074
12809W        W28426   6.561  14.477  12.618  0.4783  0.0640  0.1287
12810W        W28427   1.338  14.619   0.964 -0.2501  0.0411 -0.0491
12811W        W28428  15.277  13.785   2.005  0.1144 -0.4046 -0.0302
12812W        W28429  15.485   1.420  12.569  0.3403  0.3890 -0.0685
12813W        W28430  16.191   4.055   6.704  0.1170 -0.0261  0.1191
12814W        W28431   1.980  17.970  15.978  0.0523 -0.2573  0.0952
12815W        W28432  11.175  11.967  14.389 -0.0616  0.0405 -0.0181
12816W        W28433   0.030   7.017   3.933 -0.1722  0.2481  0.0450
12817W        W28434   8.108   3.305   0.884 -0.1649  0.0686  0.0892
12818W        W28435   2.110  16.216   1.547  0.0351 -0.0450 -0.0556
12819W        W28436  12.317   0.362  11.137 -0.0435  0.0700  0.3340
12820W        W28437   5.852  10.925  12.332  0.1180  0.1488 -0.0861
12821W        W28438   7.730  17.455  14.440  0.1064  0.2035  0.0034
12822W        W28439   5.394   4.511  16.255 -0.1764  0.1846  0.4277
12823W        W28440   7.966  17.629   1.531  0.1347 -0.2409 -0.2031
12824W        W28441  11.452   3.812   0.214  0.0332  0.0394  0.2638
12825W        W28442  11.155  14.289   0.971  0.4375  0.1867 -0.1931
12826W        W28443   2.675   0.678   4.437 -0.2698 -0.0554  0.2041
12827W        W28444   5.576  12.026   5.751 -0.0314  0.2000  0.0519
12828W        W28445  11.003  13.950   2.772  0.1382  0.2468  0.2451
12829W        W28446  10.793  15.425   2.051 -0.4292 -0.0410 -0.2179
12830W        W28447   9.481  11.365   3.670 -0.3533 -0.1664  0.1592
12831W        W28448  17.087   4.076   5.717  0.0457 -0.1298  0.2758
12832W        W28449   8.620   2.996  12.106  0.0012  0.4134  0.1328
12833W        W28450  12.004   4.879   1.097 -0.2282 -0.1101  0.0193
12834W        W28451  13.131  16.190   6.093 -0.1318 -0.0082  0.2565
12835W        W28452   7.884   9.851   1.584 -0.0954  0.1611  0.0538
12836W        W28453  14.875   4.194  13.682  0.1177  0.0963 -0.3662
12837W        W28454   7.486   6.266  11.083  0.1021  0.0753  0.3556
12838W        W28455   1.821  16.992   2.278 -0.1601 -0.1736  0.0121
12839W        W28456  15.838   2.380   3.985  0.1058 -0.2641 -0.0743
12840W        W28457   7.467  16.889  16.052 -0.3368  0.0864 -0.0601
12841W        W28458   5.040  12.738   0.186  0.1030 -0.0199  0.0873
12842W        W28459  15.423  16.904  13.346 -0.0693 -0.3184  0.1133
12843W        W28460   6.867   6.916  14.047  0.0713 -0.0821 -0.2524
12844W        W28461   1.649  13.900   4.687 -0.1250  0.0696  0.1985
12845W        W28462  11.969   4.737  16.389 -0.0036 -0.0964 -0.0593
12846W        W28463   0.287  10.110  14.350  0.0733  0.0765 -0.1244
12847W        W28464  11.463   0.640   1.946 -0.2258 -0.1350  0.0937
12848W        W28465  16.944   7.509   0.564 -0.0340  0.2865  0.0936
12849W        W28466   1.011  10.808  16.556 -0.0288 -0.3247  0.1430
12850W        W28467   8.073   1.804   5.090  0.0193  0.0180  0.2474
12851W        W28468  16.444   5.517  15.421  0.2464 -0.0024 -0.1445
12852W        W28469  10.751   5.833   1.705  0.1645  0.1146  0.1443
12853W        W28470  14.582   8.613   1.463 -0.0471 -0.0065 -0.2964
12854W        W28471   6.434   1.469   5.149 -0.0265  0.1379 -0.3257
12855W        W28472  16.420   5.602  13.283  0.2373 -0.1285 -0.4214
12856W        W28473   0.347  10.268   0.653  0.1274  0.2109 -0.3065
12857W        W28474   5.758  13.217  13.160 -0.0235 -0.2684  0.2055
12858W        W28475  13.355   1.720   3.884 -0.0762 -0.3364  0.0872
12859W        W28476  14.228   9.303   4.983 -0.1063  0.1288 -0.2600
12860W        W28477   5.766  17.539   1.366 -0.0154 -0.1645 -0.0672
12861W        W28478   1.714  16.464   1.860  0.1114 -0.2213  0.1949
12862W        W28479   2.017  15.689   1.350 -0.1307 -0.0985  0.0707
12863W        W28480   4.426   7.217  15.991  0.1660 -0.1290 -0.5074
12864W        W28481  11.226   9.094   1.432  0.3444 -0.0618  0.0476
12865W        W28482   8.531   8.102   4.819  0.0201 -0.3029  0.0155
12866W        W28483   4.729   1.428   2.167 -0.1398 -0.2358 -0.0150
12867W        W28484  13.555   3.283   3.691 -0.0401  0.2928 -0.3767
12868W        W28485   5.446   2.078  11.259 -0.1213 -0.2864  0.3366
12869W        W28486  10.514  17.361   2.556 -0.0364  0.1213  0.2520
12870W        W28487  12.854   5.797   5.375 -0.0010  0.0170  0.0355
12871W        W28488  17.474   7.684  15.025  0.0574  0.0583  0.0567
12872W        W28489  14.399   2.532   5.799  0.0871  0.1468  0.1753
12873W        W28490  14.006  11.618   4.940  0.0145 -0.0814  0.0206
12874W        W28491  11.185  15.944  16.617 -0.0440 -0.1012 -0.0185
12875W        W28492  10.428  10.910   2.176 -0.2480 -0.0103  0.2696
12876W        W28493  16.511   9.014  15.731 -0.0883 -0.0591 -0.0664
12877W        W28494  11.074  16.957  16.381 -0.1216 -0.0831  0.0244
12878W        W28495   3.281   9.564   1.967  0.1218 -0.2224 -0.0458
12879W        W28496  11.731   4.156  12.414  0.0965 -0.0965  0.1613
12880W        W28497   0.352   0.081  14.866 -0.0738 -0.0500 -0.2093
12881W        W28498  14.591  13.845   1.381 -0.1169  0.2689 -0.1056
12882W        W28499   9.915   1.683   1.776  0.1508 -0.0430  0.1772
12883W        W28500  17.424   2.146  16.048 -0.0728  0.3454 -0.0447
12884W        W28501  12.746   0.928  13.204 -0.0022 -0.1096 -0.0756
12885W        W28502   6.393   4.960  16.256  0.0391  0.0249 -0.1083
12886W        W28503   3.821  14.023   1.816 -0.1108  0.0349  0.1726
12887W        W28504   9.565   5.250  14.068  0.0101 -0.1225  0.0244
12888W        W28505   1.647   0.323  12.036 -0.1258  0.1320 -0.0212
12889W        W28506  17.387   0.057  12.601  0.0477  0.0718  0.0101
12890W        W28507   1.605  17.299  12.485  0.1931 -0.0143  0.0999
12891W        W28508   7.195  12.036  15.160 -0.1806  0.0264 -0.0899
12892W        W28509  16.536   8.942   4.524 -0.1453  0.0877 -0.1887
12893W        W28510  15.091   9.921  14.323 -0.0603  0.0498  0.0850
12894W        W28511   6.250   1.873  11.878  0.0201 -0.0113 -0.1580
12895W        W28512  17.600  16.698   4.193  0.4301 -0.0368  0.1048
12896W        W28513   0.085   8.905   0.038 -0.0656 -0.2604 -0.0901
12897W        W28514   6.710  18.001   0.172 -0.1331 -0.0537  0.0613
12898W        W28515   0.774   2.395   5.663  0.0107 -0.3252  0.1892
12899W        W28516  12.787   4.147  16.082  0.1978 -0.1991 -0.2000
12900W        W28517   1.780  15.054   2.692  0.1446  0.1076 -0.1331
12901W        W28518   8.161   5.915   4.226 -0.1627 -0.4184 -0.0805
12902W        W28519   1.618   2.446   4.879  0.0979 -0.1717 -0.0977
12903W        W28520  17.389  13.257  14.958 -0.1682  0.1966  0.0603
12904W        W28521  17.062   8.709  15.088 -0.1433  0.0028 -0.0850
12905W        W28522  15.018   5.273   4.120  0.0710 -0.1101  0.0363
12906W        W28523   4.828  15.359  15.148  0.1412 -0.2349 -0.0153
12907W        W28524   2.434   2.199   4.753 -0.1708 -0.1078 -0.2417
12908W        W28525   6.707   4.877  12.063  0.3198 -0.0863  0.3158
12909W        W28526   3.395  15.487   3.294 -0.0665  0.2411  0.1899
12910W        W28527  15.470   5.338   2.177  0.0721  0.3915 -0.0398
12911W        W28528   7.801   1.798   1.921  0.0992  0.1792  0.2651
12912W        W28529  15.556   4.313  12.970  0.1178 -0.1789 -0.3505
12913W        W28530  13.608   4.543   2.757 -0.2809  0.0535 -0.0448
12914W        W28531  15.261   8.117   5.822  0.0982  0.3363 -0.1934
12915W        W28532  14.355   7.988   4.628 -0.1717  0.5017  0.0909
12916W        W28533  15.382   2.424  14.758 -0.1188  0.0559  0.0582
12917W        W28534   4.024   4.931   4.791 -0.2178  0.0247  0.0311
12918W        W28535   9.967   2.874  13.609  0.1948  0.1290  0.2303
12919W        W28536  10.129  12.259  13.441  0.2246 -0.2062 -0.3414
12920W        W28537   6.994   3.419   3.652  0.3821 -0.4608 -0.0077
12921W        W28538  16.175   3.058   5.935  0.2144  0.3060  0.2320
12922W        W28539   8.871  11.432  10.843 -0.1947 -0.0661  0.0197
12923W        W28540   6.687   9.814   1.639 -0.1040 -0.2587  0.0527
12924W        W28541   7.052   6.941   4.586 -0.2888 -0.2144  0.1463
12925W        W28542   4.023   6.705  16.669  0.2378 -0.1984  0.2271
12926W        W28543   9.096   4.619   1.920 -0.1324 -0.1483  0.1776
12927W        W28544  15.407  11.202  14.946  0.1295 -0.0524  0.1419
12928W        W28545   3.490  15.269   1.114  0.1482  0.0664 -0.1304
12929W        W28546   5.454  10.680   4.838  0.0389 -0.2784  0.2073
12930W        W28547   2.890   1.067  14.565  0.0836  0.2178  0.0317
12931W        W28548  17.387  15.477   4.252 -0.4204 -0.0617 -0.0621
12932W        W28549  15.324   8.283   3.235 -0.0696 -0.3290 -0.0069
12933W        W28550   2.369   3.235   0.498 -0.1754  0.1370 -0.0573
12934W        W28551   5.800   6.213   2.610  0.0671  0.1394 -0.6010
12935W        W28552  16.829   1.564   0.446  0.1073  0.0666  0.0714
12936W        W28553   3.694  11.481   3.828 -0.4913  0.1405  0.0762
12937W        W28554  15.390   3.456   2.465 -0.3090 -0.0766 -0.0016
12938W        W28555   5.628   9.412  13.129  0.2348  0.1430  0.2724
12939W        W28556  10.944  10.260   4.124  0.2469  0.2472  0.0404
12940W        W28557   7.644  17.240   1.526 -0.1206 -0.0827 -0.0774
12941W        W28558   9.445  14.593  12.763 -0.1969  0.2571 -0.0546
12942W        W28559  11.958   4.749   0.109 -0.0913 -0.0974 -0.1077
12943W        W28560  15.475  12.691  12.275 -0.0962 -0.3465 -0.2715
12944W        W28561   8.688   1.573  14.589  0.2117 -0.0154  0.2840
12945W        W28562  13.860   5.484   6.485 -0.0657 -0.2258  0.0240
12946W        W28563  12.191  17.149  13.472 -0.0601  0.0423 -0.3610
12947W        W28564   8.584  11.942  14.320 -0.0571  0.0817  0.1229
12948W        W28565  13.486  11.042  13.161 -0.1960  0.1024  0.1060
12949W        W28566  10.213  17.831  10.595  0.2754 -0.0796  0.3962
12950W        W28567   7.715  12.948   4.869  0.1521  0.3389  0.3721
12951W        W28568   1.615  15.055  15.619 -0.2309 -0.0505  0.0838
12952W        W28569   6.965  15.741   4.555  0.1902  0.3087 -0.1038
12953W        W28570   6.477   7.330   3.225  0.0903 -0.0348 -0.1066
12954W        W28571   7.017  17.568   4.968  0.0463 -0.0379  0.1078
12955W        W28572   3.251  11.734   0.395  0.1050  0.1581  0.1067
12956W        W28573  10.326   7.378   4.431  0.3035 -0.1449  0.1006
12957W        W28574  10.112  17.331   5.184 -0.1450  0.1063 -0.0101
12958W        W28575  12.060   2.496  13.875 -0.1668 -0.0375 -0.0026
12959W        W28576  11.308  16.121  13.190  0.0037  0.0801 -0.3510
12960W        W28577   7.631  10.710  14.317  0.0470 -0.1463  0.2849
12961W        W28578   6.382  11.117   4.166  0.0691  0.1643 -0.1752
12962W        W28579   6.962   3.572  12.256 -0.0814 -0.0101 -0.0305
12963W        W28580   1.227   9.178  13.890 -0.0456  0.0472 -0.0243
12964W        W28581  17.919   7.159   1.880 -0.0509  0.0688  0.1436
12965W        W28582  17.246   3.580  13.521  0.1410 -0.4709 -0.0433
12966W        W28583   2.458   4.753  12.852 -0.0090  0.0632  0.0457
12967W        W28584   3.498   2.481   1.677 -0.0685  0.5716 -0.5314
12968W        W28585   8.654  17.061   3.605 -0.0115  0.2175  0.2083
12969W        W28586   5.355   7.439  10.276 -0.0009 -0.0342 -0.1689
12970W        W28587   1.834  11.364  15.467 -0.0715  0.1770  0.2160
12971W        W28588   1.206  17.520  16.270  0.0452  0.0676  0.0112
12972W        W28589   4.805  10.305   2.802  0.0872  0.0273  0.2626
12973W        W28590   8.996   0.438   2.509  0.1125 -0.5407  0.0908
12974W        W28591  16.082   5.755  14.213 -0.0007  0.0751  0.2099
12975W        W28592   0.144  15.223   1.742 -0.0824 -0.1832  0.0426
12976W        W28593   6.203   1.238   0.062 -0.0020  0.1445  0.0223
12977W        W28594   8.866  15.889  15.006  0.1626 -0.2161 -0.2636
12978W        W28595  16.242  15.606   1.319 -0.1023 -0.2519 -0.2864
12979W        W28596  13.272   8.897  14.503  0.0884 -0.1506  0.1148
12980W        W28597  15.782   0.023  16.293  0.3841  0.3743  0.0598
12981W        W28598   8.093   6.805   2.079 -0.1027 -0.0156  0.4162
12982W        W28599   2.478  13.077  14.911  0.2841 -0.0174  0.0907
12983W        W28600   4.687   6.264   3.711 -0.0861  0.0788  0.0509
12984W        W28601  14.575  12.780   4.948  0.1461  0.1591  0.1509
12985W        W28602  13.663   2.320   3.345 -0.0963 -0.0700  0.0188
12986W        W28603  14.941  11.999   1.032 -0.0455  0.0584  0.2048
12987W        W28604  13.764  15.045  13.439  0.0536 -0.0452 -0.0112
12988W        W28605   0.471   8.388   1.414  0.1688 -0.4631  0.0644
12989W        W28606  15.407  11.515  13.984 -0.1871 -0.0667 -0.0767
12990W        W28607   3.517  16.519   2.728 -0.4366  0.1613 -0.0813
12991W        W28608  16.714   2.561   6.158 -0.2993  0.2285  0.1180
12992W        W28609  13.421  11.311  10.618  0.0971  0.3129  0.1208
12993W        W28610  15.061   3.602   3.832  0.1072 -0.1015  0.3169
12994W        W28611   5.787   5.080  12.956  0.1034  0.1914 -0.2344
12995W        W28612  11.246   5.135  13.276 -0.0498  0.1334 -0.0300
12996W        W28613   8.145   7.757   5.541 -0.4021 -0.2039 -0.0009
12997W        W28614  16.536  17.767   3.190 -0.0092  0.0034 -0.0225
12998W        W28615   8.204   2.451   1.501 -0.0021 -0.0880  0.1202
12999W        W28616   9.111  16.292   3.853 -0.2191  0.0225 -0.0341
13000W        W28617   4.514   9.986  14.515  0.1999 -0.1597 -0.1040
13001W        W28618   8.084   5.799   2.296  0.1806 -0.3565  0.2695
13002W        W28619  13.178  12.961  13.861 -0.4014 -0.0864  0.0025
13003W        W28620  13.738   5.091   4.209 -0.0067  0.2183  0.0762
13004W        W28621  17.580   8.878  15.689 -0.0559 -0.6401  0.2514
13005W        W28622   4.244  12.300  11.660 -0.3892  0.1509 -0.1234
13006W        W28623   7.790   6.264  16.732 -0.0630 -0.0542 -0.0861
13007W        W28624  14.448  13.291   4.424  0.1298  0.0262  0.1556
13008W        W28625   4.235  15.828   3.514  0.0062 -0.1917  0.0557
13009W        W28626  15.298   1.652   5.580  0.1907  0.0618 -0.0241
13010W        W28627  15.546   9.672   1.123 -0.0351  0.4774 -0.3368
13011W        W28628  11.405   2.701  13.289  0.3849 -0.0922 -0.2987
13012W        W28629   3.017   3.741  15.353  0.2933 -0.0211  0.0314
13013W        W28630  14.434   3.424  12.461  0.1609 -0.0931 -0.1037
13014W        W28631  16.726  11.906   1.662 -0.0167  0.0608  0.1594
13015W        W28632  16.549   2.132   2.096  0.2515 -0.0319 -0.1172
13016W        W28633   0.833   8.387  16.554  0.0421  0.0504  0.1008
13017W        W28634  15.997  15.622   5.370 -0.2626  0.0068  0.3004
13018W        W28635   5.726   8.613   1.221  0.0735  0.0646  0.1581
13019W        W28636  10.766  10.087   3.331 -0.0792 -0.0249  0.0006
13020W        W28637  14.702   4.698  11.029 -0.1208  0.0265 -0.0963
13021W        W28638  12.943  15.383   3.526  0.1640  0.0214 -0.2954
13022W        W28639   9.162  12.343  15.356  0.0402 -0.0920 -0.0552
13023W        W28640  11.141  15.496   3.388 -0.1240 -0.0595  0.1638
13024W        W28641   0.374  12.876  12.147 -0.3169  0.3814 -0.0786
13025W        W28642   7.336  16.372   5.391  0.0132 -0.1039  0.2415
13026W        W28643   3.248  12.656   5.230  0.0607 -0.0702 -0.2145
13027W        W28644   8.630   2.584  14.279  0.0736  0.0843  0.0418
13028W        W28645   2.310   2.845   0.869 -0.1337  0.0368  0.2739
13029W        W28646  14.742  16.542  15.149 -0.3265  0.1115  0.0817
13030W        W28647  17.229   7.751   2.284  0.0054 -0.1130  0.1279
13031W        W28648   2.229   0.943   0.057 -0.1495 -0.0455  0.1054
13032W        W28649   3.787   4.980   1.150 -0.1709  0.0471  0.3288
13033W        W28650   6.801   8.199   0.493 -0.4676  0.0569  0.0349
13034W        W28651   0.650  10.022   2.364 -0.2155  0.0874  0.0619
13035W        W28652  17.796  17.909   0.840 -0.0386  0.2666  0.0244
13036W        W28653   9.968  17.063  14.240  0.1035 -0.1765  0.1404
13037W        W28654   6.274  12.220  11.826  0.0390 -0.0055  0.0299
13038W        W28655   4.659   3.920  16.118 -0.0842 -0.0045  0.0934
13039W        W28656   9.672   3.773  15.193 -0.0360 -0.2414  0.3573
13040W        W28657  17.248   7.627  14.356  0.3524 -0.5100  0.0102
13041W        W28658   1.763  17.921  11.933 -0.2900  0.4307  0.1005
13042W        W28659   3.238   9.746   1.405  0.1617 -0.2546  0.0955
13043W        W28660   2.086  12.759   0.970  0.1150 -0.0288  0.2548
13044W        W28661   8.537  11.165   3.482 -0.0144 -0.2824 -0.1888
13045W        W28662   5.791  10.417  14.797  0.0105 -0.1698  0.2504
13046W        W28663   7.522  13.024   0.411 -0.4505  0.2376  0.0916
13047W        W28664   9.788   2.571   2.166 -0.1118  0.0383  0.0827
13048W        W28665  13.464  16.786   1.371  0.0921  0.0012 -0.2094
13049W        W28666   7.085  12.973   0.251 -0.0192 -0.0628  0.0408
13050W        W28667   4.099   5.945   4.581  0.3802 -0.0319 -0.3497
13051W        W28668   6.302   2.695   5.445  0.1181 -0.0719  0.2637
13052W        W28669  15.799   3.979   5.348  0.4141 -0.3475  0.0626
13053W        W28670   4.138  14.264   1.567 -0.0674  0.4735 -0.0095
13054W        W28671  10.965   4.680  11.794  0.0582  0.0143  0.0568
13055W        W28672   3.327   7.790   5.570  0.3934  0.2665 -0.0002
13056W        W28673   6.060  13.135  14.624  0.1237  0.1224 -0.0145
13057W        W28674  13.552  14.795   1.809  0.3453 -0.0608 -0.1283
13058W        W28675   6.215   6.805  16.081  0.2841 -0.2105 -0.0533
13059W        W28676   0.826  12.813  11.896 -0.1249 -0.3087  0.0493
13060W        W28677   6.343   0.502  16.455 -0.1956  0.1315  0.0432
13061W        W28678   4.874   3.884  12.254 -0.4830  0.2577 -0.0348
13062W        W28679  14.899   0.201  15.138 -0.1949  0.4903 -0.0007
13063W        W28680   9.123   5.372  14.698 -0.2222  0.2100  0.0524
13064W        W28681   7.746   7.240   3.305 -0.0770 -0.0396 -0.1153
13065W        W28682  11.183  13.737  14.449 -0.0663  0.2446  0.0221
13066W        W28683   0.059   1.412   4.558 -0.0778 -0.1940 -0.1239
13067W        W28684   1.213   8.478  16.068  0.0799 -0.2076 -0.1171
13068W        W28685  14.048   8.319   4.410 -0.0768  0.0068  0.2179
13069W        W28686   7.921  11.042   2.281  0.2392 -0.2788 -0.1420
13070W        W28687   7.321   0.636   0.686  0.1102 -0.0234  0.0421
13071W        W28688   6.146   9.290   1.894 -0.1029  0.1341 -0.1112
13072W        W28689  16.070  17.610  13.123  0.3665  0.1289 -0.1009
13073W        W28690  11.619   0.414   2.907  0.0155  0.2287  0.0711
13074W        W28691   7.953  10.555   2.234 -0.1572 -0.0398  0.1955
13075W        W28692  13.847   9.192  14.716  0.2758 -0.1471 -0.1782
13076W        W28693  13.263  17.129   2.944 -0.1146  0.0780 -0.1816
13077W        W28694  15.773   8.592   3.306  0.1357  0.0642 -0.0044
13078W        W28695  17.722   8.838  12.760 -0.2010 -0.3020 -0.1173
13079W        W28696  13.930  15.505  14.803  0.0346  0.0901 -0.5575
13080W        W28697  12.278   2.294   4.352 -0.0863  0.0041 -0.0207
13081W        W28698   5.805   7.910   2.833  0.0642  0.0824 -0.1999
13082W        W28699   7.170   1.545  13.145  0.4159 -0.1554 -0.1864
13083W        W28700  12.300  14.982   1.514  0.1023  0.2342  0.1631
13084W        W28701  13.920   2.769   3.173 -0.1267  0.0194 -0.0301
13085W        W28702   5.427   0.173  16.542  0.2144  0.1091 -0.1624
13086W        W28703   4.663  10.297   4.629 -0.2828  0.1245  0.1288
13087W        W28704   3.180  11.872   1.854 -0.2940  0.1894  0.0455
13088W        W28705  17.697  12.132  15.436  0.0255 -0.1984  0.0760
13089W        W28706   9.206   4.691   4.488 -0.1790 -0.1560 -0.0296
13090W        W28707  16.253   6.162  12.751  0.2548  0.3914  0.1282
13091W        W28708   1.948  12.985  14.685  0.2283 -0.0698 -0.0616
13092W        W28709  13.069  13.972  16.582 -0.1580  0.1581  0.0890
13093W        W28710   8.669   5.705  13.532  0.2494  0.0050  0.1205
13094W        W28711   5.526   3.967   5.702 -0.1752 -0.2190  0.1163
13095W        W28712   4.558   5.762  16.597 -0.3003 -0.3752 -0.2185
13096W        W28713   2.697  11.687  14.680 -0.0527 -0.0625  0.1112
13097W        W28714   5.658  14.157  12.864 -0.0016 -0.0231  0.0990
13098W        W28715   4.925   6.423  15.495 -0.1501 -0.0498  0.2794
13099W        W28716   7.992  12.915   0.410  0.2269 -0.0258  0.1919
13100W        W28717   9.792   3.598  16.101 -0.1973 -0.2043 -0.1148
13101W        W28718  14.869   9.226  16.018 -0.1924 -0.1075  0.0655
13102W        W28719  14.960   2.891   0.982 -0.0302  0.2288 -0.2968
13103W        W28720  14.280   4.445  15.996  0.1369  0.0477  0.2585
13104W        W28721   4.812   8.696   4.741 -0.1281 -0.1592 -0.1024
13105W        W28722   2.896  16.704   5.460  0.0351  0.1141 -0.0717
13106W        W28723  14.118  13.990  13.083  0.1872 -0.0661  0.0392
13107W        W28724  17.264  14.686  13.381  0.2082  0.0091 -0.1452
13108W        W28725  12.851  11.992   5.193  0.1690  0.1137  0.3380
13109W        W28726   8.488   0.220   5.282  0.3027 -0.1540  0.1657
13110W        W28727   0.342  14.671  14.698 -0.3570 -0.1477  0.1078
13111W        W28728   9.375   1.785   3.046  0.1068  0.1495  0.2035
13112W        W28729   7.176   7.517   3.832 -0.2431  0.4337  0.0437
13113W        W28730   7.152   5.706   2.722  0.0285 -0.1236 -0.0498
13114W        W28731   3.392   6.374   3.287  0.1561  0.0482  0.0833
13115W        W28732  15.584  16.844   0.663  0.0308 -0.0428  0.0709
13116W        W28733   7.579   4.733   0.494 -0.3013 -0.0362 -0.2513
13117W        W28734   3.850   0.885   0.245 -0.1033 -0.3529  0.2548
13118W        W28735   4.892  11.107  14.803  0.1384  0.0432 -0.1270
13119W        W28736  15.713   3.143  14.146 -0.2499  0.1577 -0.0745
13120W        W28737   9.142  15.131   2.734 -0.2143 -0.1930  0.0589
13121W        W28738  15.265  11.549   1.120 -0.1239 -0.1539 -0.0785
13122W        W28739  12.110   7.757   1.305 -0.0421  0.2986 -0.1163
13123W        W28740  17.972   7.702  15.195 -0.0680 -0.2583 -0.0548
13124W        W28741   8.994  13.555   0.149  0.0425 -0.2081 -0.0757
13125W        W28742  13.458  10.101   3.642  0.2112  0.2633  0.2522
13126W        W28743  13.466  13.190   3.493 -0.1294 -0.0479 -0.3825
13127W        W28744   2.182  16.660  11.802 -0.0417 -0.1128  0.1250
13128W        W28745  17.781   7.726  15.893 -0.0360  0.1561 -0.0855
13129W        W28746  13.621  13.809   5.014  0.0138 -0.0764 -0.0060
13130W        W28747   7.342   7.058  14.213  0.0603  0.0817  0.0676
13131W        W28748  14.632  16.475  12.546 -0.2173 -0.0392 -0.0953
13132W        W28749   6.577   8.598   5.327 -0.3028  0.0897 -0.3427
13133W        W28750   6.892   3.985  10.999 -0.1946  0.0275 -0.1090
13134W        W28751  12.345   7.006  14.710 -0.2590  0.4879 -0.1715
13135W        W28752  12.416  15.144  11.629 -0.1212  0.0385  0.3259
13136W        W28753   0.597  12.847  14.548  0.0342 -0.1646 -0.0031
13137W        W28754   6.232  10.698  16.807  0.1362 -0.3312 -0.0044
13138W        W28755   9.714   5.977   3.376  0.1309 -0.0610 -0.0177
13139W        W28756  17.724   0.253  13.071  0.2219  0.0536 -0.0303
13140W        W28757  11.188   0.565  12.422 -0.0982  0.0332  0.4039
13141W        W28758  12.578   7.485   0.444 -0.0209 -0.0027  0.0921
13142W        W28759  10.367   7.685  14.227  0.3534 -0.0389  0.0912
13143W        W28760   0.117   8.842   2.867  0.1627  0.0415 -0.3015
13144W        W28761   4.816  15.213  13.182  0.1392 -0.1782  0.1634
13145W        W28762   0.224  14.583   3.771  0.1076  0.1562 -0.2377
13146W        W28763  11.853  11.085   5.641  0.1384  0.3253  0.2840
13147W        W28764  17.756   7.487  14.410  0.3546 -0.1570  0.2454
13148W        W28765   5.287   2.038   1.308  0.0518 -0.2406  0.0284
13149W        W28766  14.202  16.837  15.251 -0.2834  0.0900 -0.0550
13150W        W28767   2.054  13.061  12.390  0.1891  0.0677  0.2753
13151W        W28768   1.359   4.879  16.774 -0.2296  0.1467 -0.2238
13152W        W28769  17.069   0.748   6.095  0.3770 -0.0961  0.0188
13153W        W28770  10.669   5.802   6.120 -0.0308 -0.1757 -0.1782
13154W        W28771   3.708   0.291   1.365  0.2067 -0.5922  0.3885
13155W        W28772   8.202   9.643  16.097  0.5087  0.0938 -0.1284
13156W        W28773  12.836   8.565  14.526  0.4779 -0.2743  0.1808
13157W        W28774  13.329   5.155   4.820  0.1812  0.2297  0.3345
13158W        W28775  11.420  11.668  14.799  0.0761  0.0122 -0.2189
13159W        W28776  16.117   7.945   2.179 -0.1499  0.0008  0.0150
13160W        W28777  17.451   9.777   0.106  0.0593  0.1916  0.0462
13161W        W28778   7.664   4.121   1.752  0.2836  0.1996  0.0420
13162W        W28779  11.894  16.496  16.355 -0.1671  0.1358 -0.0986
13163W        W28780  16.502   0.443   3.917  0.3198  0.1025  0.2570
13164W        W28781  16.691  16.735   5.737 -0.2377  0.1702  0.3706
13165W        W28782   5.734  17.387   0.830 -0.0771 -0.0219 -0.2713
13166W        W28783  17.718   5.005  12.986 -0.1768 -0.1179 -0.2467
13167W        W28784   2.169   2.872   4.202  0.0278 -0.3165  0.1740
13168W        W28785  11.253   3.240  12.616 -0.1671 -0.0737 -0.2833
13169W        W28786   2.495  16.908   0.074  0.0205 -0.1548  0.0677
13170W        W28787  14.590  11.324   0.352  0.2452 -0.0057  0.0309
13171W        W28788  14.401   3.155   3.348  0.2093  0.0169  0.0524
13172W        W28789   2.806  16.873   2.514 -0.1648  0.1329 -0.2035
13173W        W28790   6.402   1.278   2.115 -0.0036  0.2029  0.0198
13174W        W28791  14.895  15.528  13.294  0.0396  0.1176 -0.0995
13175W        W28792  11.046  17.918   2.910  0.1926 -0.4225 -0.1592
13176W        W28793  11.352   9.695   2.788 -0.1060 -0.0594 -0.2491
13177W        W28794  13.427   4.126  15.871 -0.1380 -0.0298 -0.0714
13178W        W28795  16.999   5.627  14.806  0.0014  0.0220 -0.3577
13179W        W28796   6.604   0.956   3.066  0.1622 -0.1608  0.1825
13180W        W28797  13.055   7.825   4.698 -0.0952  0.1088  0.0630
13181W        W28798  17.960   7.403  12.529 -0.2340 -0.0738  0.0570
13182W        W28799   8.119   6.104  14.078 -0.0507 -0.0495  0.1093
13183W        W28800  15.738  17.639   6.822 -0.0876 -0.2488 -0.1332
13184W        W28801  13.119   0.100   3.042 -0.1394 -0.1570  0.3535
13185W        W28802  17.924   3.009  13.139  0.1748 -0.2131  0.3446
13186W        W28803   7.241   5.243   2.488 -0.0375 -0.0471 -0.2222
13187W        W28804   1.451  16.331  13.840 -0.0112 -0.0207 -0.0828
13188W        W28805   7.806  17.726  11.578 -0.1456 -0.0207  0.0724
13189W        W28806   0.780   2.812  16.517  0.0964  0.2324  0.5312
13190W        W28807   0.955  10.774  14.702  0.1067 -0.1708  0.3742
13191W        W28808  17.078   1.077  13.024 -0.2009 -0.0815  0.1298
13192W        W28809   3.458   1.835   3.289 -0.0758  0.1003  0.1188
13193W        W28810   5.384   4.761   0.423 -0.1126  0.0815  0.3104
13194W        W28811   4.984   4.645   4.327 -0.0418  0.2447  0.1662
13195W        W28812   2.520   6.323  10.973 -0.1528 -0.0032  0.0165
13196W        W28813  16.367   1.532   4.804  0.0817  0.2341 -0.3024
13197W        W28814  11.654   1.485  12.588 -0.1683  0.0522  0.0308
13198W        W28815   7.257   2.426   4.370 -0.2125  0.1192 -0.1389
13199W        W28816   1.242  12.473   5.397  0.2333 -0.2681  0.0237
13200W        W28817   9.560   3.234  16.690 -0.0280 -0.0863 -0.4438
13201W        W28818  17.970   2.509  14.207  0.1012 -0.0978 -0.0845
13202W        W28819  12.481   3.115  16.569 -0.0258  0.3890  0.0250
13203W        W28820  12.674   5.149  12.705 -0.2456  0.1799  0.0105
13204W        W28821   7.345  17.697   3.344  0.0657 -0.2724 -0.0137
13205W        W28822  10.626   0.973  13.673 -0.0178  0.1456 -0.1672
13206W        W28823  12.696  10.764  12.636 -0.2273  0.2548  0.0462
13207W        W28824  13.100  13.091   5.663  0.2642  0.1544  0.0388
13208W        W28825   3.090  16.410  13.287 -0.1727 -0.2112 -0.0319
13209W        W28826  12.228  10.881  12.922  0.0983  0.2753  0.3292
13210W        W28827   6.504  10.108   3.272  0.2029  0.1991 -0.2261
13211W        W28828  15.804  13.954   4.596 -0.1162 -0.2528  0.2477
13212W        W28829   1.225   8.349   0.403 -0.2419  0.1198 -0.5126
13213W        W28830   8.513   3.719  13.568  0.2082  0.0157  0.0430
13214W        W28831   9.276   2.268   2.849  0.0688  0.2431 -0.2673
13215W        W28832   1.681   9.527  11.303 -0.0427 -0.0723  0.0956
13216W        W28833  16.803  16.559  13.629  0.0266 -0.1280  0.3560
13217W        W28834   6.576  10.935   0.314 -0.1853 -0.0519 -0.0987
13218W        W28835   6.594   3.052  15.597  0.1008 -0.0409 -0.1947
13219W        W28836  13.986  11.615   4.090  0.0926  0.1461 -0.4419
13220W        W28837  17.667   4.895  16.469  0.1454 -0.0090 -0.0709
13221W        W28838   2.580  10.978  15.644  0.2927  0.0807  0.1068
13222W        W28839  13.088  14.613   3.196  0.0052 -0.2740  0.1992
13223W        W28840  14.001   2.540   0.908  0.0471  0.0023  0.2186
13224W        W28841  16.683   8.731  13.329  0.2112 -0.1399  0.0723
13225W        W28842   1.591   1.471   0.471 -0.1014  0.1291 -0.1193
13226W        W28843   0.938  16.969   5.720  0.1901 -0.0182  0.0801
13227W        W28844  16.836  10.314   6.167 -0.2614 -0.1273  0.0699
13228W        W28845  13.808  12.425  16.358  0.2638 -0.0226 -0.0554
13229W        W28846   1.582   7.241  14.896 -0.0571 -0.0882  0.0671
13230W        W28847  14.199   4.090   5.596 -0.0693 -0.0193 -0.1783
13231W        W28848   7.800   4.715  15.084 -0.0703  0.1857  0.1267
13232W        W28849  10.782   2.278   0.389  0.0324 -0.2709  0.0600
13233W        W28850   3.341   1.020   3.215 -0.0362 -0.2384 -0.1856
13234W        W28851   1.534   2.110   4.243 -0.0287  0.3969 -0.0098
13235W        W28852  12.903   7.226   3.735 -0.0610 -0.0390 -0.3358
13236W        W28853   8.809   2.869  15.112 -0.2819  0.0909 -0.3555
13237W        W28854   2.186   4.029  13.741 -0.1173 -0.2736  0.1726
13238W        W28855  10.597   6.641   4.413  0.2265 -0.1992 -0.0465
13239W        W28856   9.339   9.489  11.331 -0.0490  0.0782  0.1292
13240W        W28857   5.504   3.647  11.591 -0.1598  0.0585 -0.1948
13241W        W28858  10.480  17.253  13.065  0.4602  0.0245 -0.1848
13242W        W28859  16.237   3.372  13.430 -0.0040  0.0458  0.3757
13243W        W28860   9.680  17.674   2.978  0.0842 -0.1179  0.0855
13244W        W28861  13.056  14.892   4.234 -0.0351 -0.1575 -0.0866
13245W        W28862   0.244   7.771  11.725 -0.2171 -0.0495 -0.2442
13246W        W28863   2.355   8.678   1.239 -0.1064  0.2995  0.3028
13247W        W28864  10.157  11.134  14.504  0.1601 -0.2228  0.2139
13248W        W28865   2.761   1.649   1.706  0.1037  0.0895  0.0084
13249W        W28866  12.091   8.091   5.419  0.0749 -0.3077  0.0793
13250W        W28867  15.092   4.735   6.024  0.0393 -0.1291 -0.1392
13251W        W28868  13.488   7.401   5.763 -0.0928  0.0569  0.2251
13252W        W28869  12.074  15.721  13.564 -0.1339  0.0117 -0.0002
13253W        W28870   6.874  16.227  14.848 -0.2249 -0.0484 -0.1688
13254W        W28871   7.619   6.958   4.586 -0.0361 -0.2916  0.2349
13255W        W28872   1.533   7.437   1.741 -0.0976  0.1655  0.1445
13256W        W28873   6.807   8.035   1.010  0.0580 -0.0782 -0.0983
13257W        W28874  17.440   1.595   4.014  0.3432 -0.2004  0.1385
13258W        W28875   7.606   9.023   1.359  0.0295  0.2017 -0.0154
13259W        W28876   2.600   4.186  12.708 -0.1232 -0.1251 -0.2237
13260W        W28877  12.812   7.246   4.309 -0.0730  0.2200 -0.0774
13261W        W28878  12.473  12.310  16.198 -0.0907  0.0131  0.2551
13262W        W28879  13.983   6.094   1.056 -0.1654  0.2693  0.0175
13263W        W28880   4.539   8.549   2.347  0.5165 -0.0211  0.2053
13264W        W28881   9.179   1.086   5.200 -0.2980 -0.1498  0.0942
13265W        W28882   0.916  15.690   3.615  0.0874 -0.0300  0.1923
13266W        W28883  10.503   3.721  15.452 -0.1180  0.0244 -0.1834
13267W        W28884   5.349  12.378   1.518 -0.0133  0.1115  0.0115
13268W        W28885   9.617  14.595   2.188 -0.2858  0.2075 -0.1649
13269W        W28886   9.443   1.046   5.643  0.3071  0.2682  0.2992
13270W        W28887  10.955   8.933   3.601  0.0248  0.2104 -0.0545
13271W        W28888   2.592   3.291  16.018 -0.0062 -0.1547  0.1366
13272W        W28889  14.835   3.125   2.088  0.4848 -0.0847  0.0384
13273W        W28890  17.428  13.646  12.184 -0.0603 -0.2488 -0.1131
13274W        W28891   7.009   3.945   4.634 -0.3599  0.1167 -0.0237
13275W        W28892  15.904   9.901   2.429  0.0744 -0.1834 -0.3309
13276W        W28893   1.902   9.427  12.592 -0.1393 -0.3049 -0.1777
13277W        W28894  15.387   1.485  16.018  0.2464 -0.2675 -0.3215
13278W        W28895   9.358  18.041   5.083 -0.0397  0.0493 -0.2560
13279W        W28896  15.726  16.451  11.801  0.2865 -0.0968  0.0695
13280W        W28897   5.678   4.195  11.649  0.0864 -0.2915 -0.0076
13281W        W28898   4.893   2.320  14.653  0.4975  0.2209  0.0193
13282W        W28899  16.574  12.717   5.043  0.0423 -0.1539  0.0751
13283W        W28900   8.936  11.820  11.169 -0.0450 -0.0078  0.2887
13284W        W28901  15.844  15.886  12.213 -0.1610 -0.0510  0.2639
13285W        W28902   4.226   4.244  15.297  0.0098 -0.1520  0.1733
13286W        W28903   9.370   2.728  16.478 -0.0752 -0.3153  0.0397
13287W        W28904   5.609   1.601   4.735 -0.0489  0.2578 -0.2477
13288W        W28905  14.707   0.416   1.289  0.1718  0.0983 -0.1489
13289W        W28906   2.251  17.224  15.463  0.2664 -0.3671  0.1998
13290W        W28907   7.017  16.120   3.012  0.1091  0.3697 -0.3755
13291W        W28908   0.500   8.831  13.323  0.0720  0.0075 -0.0714
13292W        W28909   5.518  10.704  13.415  0.0335  0.2373  0.2015
13293W        W28910  15.819   9.402   3.791 -0.1035 -0.1577  0.1929
13294W        W28911  18.051  16.068   4.856  0.0560  0.3919  0.0366
13295W        W28912   2.185   7.377  14.466 -0.2164  0.1706  0.1954
13296W        W28913  10.548   7.223   3.503 -0.1989 -0.3086 -0.2140
13297W        W28914  12.469   6.607  16.153 -0.1183 -0.3317 -0.2762
13298W        W28915  10.323   2.240  14.002  0.0046  0.0804  0.0590
13299W        W28916   5.616  13.851  13.306  0.1484  0.0476  0.1767
13300W        W28917  11.071  10.066  12.719  0.1162  0.0178 -0.3474
13301W        W28918  13.105   1.194   1.254 -0.0553 -0.0713 -0.4984
13302W        W28919   6.559  16.367  13.562  0.1148  0.2393  0.1724
13303W        W28920   8.262  16.738  11.846 -0.1846 -0.1611 -0.0947
13304W        W28921  14.467  13.514   0.090  0.0241  0.3421  0.1007
13305W        W28922  11.300   5.089   3.134  0.2958  0.1042 -0.0087
13306W        W28923   6.334  15.369  13.970 -0.2647 -0.1179 -0.1662
13307W        W28924  13.251   4.934  15.701  0.0740  0.2186 -0.3164
13308W        W28925   1.067   6.016  13.762 -0.1431 -0.0284  0.0633
13309W        W28926  15.191  12.046  16.711  0.0699  0.0034 -0.0450
13310W        W28927  16.816  11.214   2.316 -0.0188  0.0977 -0.0281
13311W        W28928  10.379   0.366   0.887 -0.0359 -0.0338 -0.2607
13312W        W28929   0.902  11.431   5.592  0.1875  0.3671  0.4288
13313W        W28930  16.270  12.488   4.002 -0.1841  0.3222 -0.1986
13314W        W28931   7.348   1.448  15.082  0.2045  0.2967  0.2339
13315W        W28932   3.937   4.038   2.334 -0.0394 -0.0597 -0.1006
13316W        W28933   7.098   9.434  15.937 -0.3696  0.3231  0.0283
13317W        W28934   7.279   2.159   5.259  0.1557  0.0999  0.0351
13318W        W28935  16.142   9.516  14.981 -0.1785 -0.0982 -0.1319
13319W        W28936   6.085   3.480  14.659 -0.1006 -0.1002 -0.0657
13320W        W28937   3.729   9.117  15.616  0.1342 -0.2877 -0.0981
13321W        W28938   9.411  14.660   2.665  0.1319 -0.2443 -0.1150
13322W        W28939  14.215  12.074   4.077  0.3887  0.3010 -0.0961
13323W        W28940  17.154   0.136  14.264 -0.0595  0.0759 -0.1321
13324W        W28941   5.187   5.914   1.370 -0.1355 -0.0137 -0.1083
13325W        W28942   2.151  17.732   0.441 -0.0584 -0.2609 -0.1901
13326W        W28943   2.274   2.961  11.979 -0.0587 -0.4209 -0.2567
13327W        W28944   6.204   2.858   3.565  0.1106 -0.0437 -0.0787
13328W        W28945  15.524   5.587  16.019 -0.0219  0.1028  0.1612
13329W        W28946   6.285  13.655  14.527 -0.0596  0.2217  0.0193
13330W        W28947  11.840   0.914  14.643 -0.1719  0.1675  0.0644
13331W        W28948   8.457   0.823  16.028  0.2279 -0.0457  0.0407
13332W        W28949  17.655  16.210  16.424 -0.4260 -0.0940 -0.0985
13333W        W28950   7.025  17.057   2.508  0.0869 -0.1288  0.0061
13334W        W28951   2.539   7.446   1.774 -0.0387  0.0290  0.1147
13335W        W28952  12.352   1.645  14.889 -0.1719  0.2189 -0.1872
13336W        W28953   9.795   2.265   2.690 -0.0267  0.1866  0.1778
13337W        W28954   4.634   4.863  15.542 -0.3269 -0.1023 -0.1242
13338W        W28955   3.573   0.833   3.639  0.0905  0.0488  0.0188
13339W        W28956   8.940   1.239   4.377 -0.1277  0.1845 -0.1941
13340W        W28957  16.538   1.861   4.521  0.1001  0.1904 -0.1798
13341W        W28958  10.396   0.595   5.631  0.0039 -0.0213  0.1508
13342W        W28959  12.969   9.783   2.988  0.1203  0.3508 -0.0637
13343W        W28960   4.258   9.237   4.727 -0.2088  0.1147 -0.0560
13344W        W28961   9.103   4.861  14.353  0.1710 -0.1748 -0.2327
13345W        W28962   2.489   8.898  13.236 -0.3232 -0.1489 -0.0162
13346W        W28963   1.211   4.667   3.428 -0.0723 -0.1698 -0.0001
13347W        W28964  13.446  13.659  12.304 -0.0268 -0.4576  0.1330
13348W        W28965  15.954  17.509   0.085 -0.1941 -0.0189  0.0383
13349W        W28966  14.600   0.195   4.985  0.0943  0.5554 -0.2483
13350W        W28967  14.840   6.110   2.063  0.2633 -0.1472  0.0161
13351W        W28968  14.699  10.186  14.458 -0.2545  0.3039 -0.0031
13352W        W28969   3.294  17.346   4.160  0.1202 -0.0566 -0.2326
13353W        W28970   0.856  14.649  13.727  0.3603  0.4997 -0.2658
13354W        W28971  16.608   3.716   1.604 -0.2947  0.3623  0.1324
13355W        W28972   2.210  12.116   5.524 -0.1067 -0.3321  0.3172
13356W        W28973   8.460   4.165  16.041 -0.2176  0.2350 -0.0789
13357W        W28974  15.126  12.230   2.901  0.2053 -0.1183 -0.0929
13358W        W28975   2.457   8.332  13.228  0.0800 -0.4714 -0.0108
13359W        W28976   7.923   7.009  11.808 -0.1123  0.2154 -0.2050
13360W        W28977  14.902   0.940   1.376 -0.2253  0.0008 -0.0136
13361W        W28978   3.736   0.431  16.719  0.2286  0.2003 -0.3080
13362W        W28979   5.393  11.350  14.764  0.0539  0.0551 -0.0283
13363W        W28980   9.510   1.561   4.421 -0.2702  0.2629  0.0570
13364W        W28981   0.564   1.148   2.406 -0.0490  0.1005  0.2294
13365W        W28982  14.630  16.748   5.297 -0.1974 -0.2035 -0.1569
13366W        W28983  16.122  10.079   4.207  0.2503  0.4037 -0.1435
13367W        W28984   8.364   7.492   0.694  0.2239  0.1158  0.3438
13368W        W28985  12.779  17.989  15.629  0.3210 -0.3380  0.2414
13369W        W28986  12.128   9.073   1.228 -0.1590 -0.4044 -0.1915
13370W        W28987   8.262   4.523  14.252  0.0280  0.0929  0.0602
13371W        W28988   9.061   0.610   1.331 -0.0070 -0.4066 -0.0797
13372W        W28989   7.301  11.777   4.120 -0.0318  0.0450  0.2721
13373W        W28990  17.850  12.926  15.059  0.0515 -0.0764 -0.0115
13374W        W28991   9.329  10.221  13.861 -0.0856  0.2465 -0.2333
13375W        W28992   5.617   4.030  13.997 -0.0007  0.1728  0.1584
13376W        W28993   0.541   4.920  16.434 -0.0692  0.1140 -0.0707
13377W        W28994  14.118   6.196  12.172  0.5726  0.3703 -0.0161
13378W        W28995   2.869   0.925  12.414 -0.1474  0.0890 -0.2536
13379W        W28996   6.017   5.571  13.178  0.1963 -0.1410 -0.1460
13380W        W28997   3.317  13.701  13.645  0.0324 -0.1057 -0.2393
13381W        W28998   9.125  11.258  11.917 -0.0350 -0.5025 -0.2775
13382W        W28999   5.971   1.204   4.671  0.0339 -0.1841 -0.2427
13383W        W29000   4.795  13.546   1.914 -0.1165 -0.1657  0.0972
13384W        W29001  16.702   6.862   0.084  0.1252  0.3045  0.0924
13385W        W29002  16.757   3.715   1.133 -0.2392 -0.1403  0.0719
13386W        W29003  10.979  17.971  10.803 -0.1249 -0.3924  0.1013
13387W        W29004   3.876   0.715  11.813 -0.0226  0.2022  0.0388
13388W        W29005   6.277   0.276   0.984  0.3601  0.0601  0.0617
13389W        W29006  15.191   4.489   2.345 -0.0212 -0.3207  0.1255
13390W        W29007  16.900   1.218  14.337 -0.3348 -0.1770 -0.0052
13391W        W29008   6.436   7.608  15.823 -0.0898 -0.0414  0.3109
13392W        W29009  14.731   7.350  16.235  0.3585  0.2226 -0.3679
13393W        W29010   6.307   4.881   0.970  0.0508 -0.0163 -0.0710
13394W        W29011  16.311  10.260   2.503  0.1012  0.2022  0.0230
13395W        W29012  12.683  16.495  10.966 -0.0653 -0.0252 -0.2846
13396W        W29013   4.640   2.709  15.450 -0.0015 -0.3310 -0.0202
13397W        W29014   0.284   4.441  16.241 -0.1527  0.0355  0.0687
13398W        W29015  13.248  12.897   1.309  0.1593 -0.2146  0.0197
13399W        W29016   3.932   4.380  16.192  0.1310  0.0235 -0.2200
13400W        W29017   1.061   6.112   0.488 -0.2301  0.1167 -0.2658
13401W        W29018   4.789   8.967   0.299  0.2631 -0.2538 -0.0645
13402W        W29019   9.876  17.415   0.272  0.0160 -0.1359  0.0578
13403W        W29020   0.451   5.250   3.100 -0.0875 -0.1310 -0.2370
13404W        W29021   3.580   0.978  16.045  0.1105 -0.0133 -0.2034
13405W        W29022  16.153   9.455   1.532  0.3196  0.1238 -0.0636
13406W        W29023  16.102  17.051   3.105  0.1812  0.0606 -0.0207
13407W        W29024   7.679  17.488  10.607  0.4485 -0.1309  0.5143
13408W        W29025  11.644  10.676   0.683 -0.1697 -0.2265  0.1386
13409W        W29026   6.826   2.958   1.532  0.3236  0.1090 -0.4358
13410W        W29027   5.463   6.273   2.185  0.0781  0.1318 -0.2467
13411W        W29028   1.042   1.379   4.322  0.0433  0.2112 -0.0797
13412W        W29029   3.176  16.362  12.295 -0.1941  0.2093 -0.0088
13413W        W29030   6.311  14.961   4.546 -0.1108  0.1005  0.1421
13414W        W29031  11.638   7.461  15.287  0.2261 -0.0404 -0.2077
13415W        W29032  17.281   2.654  16.058 -0.2426  0.1601 -0.0604
13416W        W29033  15.128   2.470  12.753  0.2965  0.2318 -0.0712
13417W        W29034   4.836   0.644  14.513 -0.0785 -0.1226  0.0341
13418W        W29035  14.066  15.276   5.639  0.1436  0.3059  0.1834
13419W        W29036  14.932   4.487   3.057  0.1722  0.0650 -0.2244
13420W        W29037   1.570   7.012  12.293 -0.1855  0.1626 -0.1567
13421W        W29038   6.979   5.146  12.347  0.1774 -0.1124 -0.1341
13422W        W29039   5.892  12.424   5.667  0.0976 -0.0584 -0.0168
13423W        W29040   9.420   5.113   1.221  0.2336 -0.0708 -0.0920
13424W        W29041  12.587   0.698   4.009  0.4876 -0.0253 -0.1796
13425W        W29042   5.471   2.331   5.092 -0.1716 -0.0537 -0.0388
13426W        W29043   7.237   6.091   4.764 -0.2278 -0.3808 -0.1721
13427W        W29044  13.252  12.469  15.591 -0.0210  0.0857 -0.1783
13428W        W29045  10.042  12.098   3.969 -0.3169 -0.0621  0.0121
13429W        W29046   8.064   4.679  11.538 -0.0897 -0.5448 -0.2243
13430W        W29047  12.625   5.431   3.197 -0.0553  0.1845  0.2716
13431W        W29048   7.874  14.431  13.852 -0.4165  0.0491  0.0103
13432W        W29049  14.302  13.413  15.099 -0.1101 -0.0858 -0.0006
13433W        W29050   1.566  13.975  14.415 -0.0821  0.0094 -0.0984
13434W        W29051   7.972  14.390  11.364  0.3511 -0.0221  0.1746
13435W        W29052   3.568  16.618   5.422  0.1244  0.0511 -0.1028
13436W        W29053   6.297   0.714   0.144  0.0137  0.4107  0.2306
13437W        W29054   5.360  10.847  12.432  0.0695  0.1770 -0.0422
13438W        W29055  13.122  15.552   4.838  0.1033 -0.0472 -0.1576
13439W        W29056  17.133  16.190  13.822  0.0606  0.1175 -0.2302
13440W        W29057   0.767  12.048   2.422  0.1356 -0.0311  0.2296
13441W        W29058   9.584   8.457  14.426 -0.0812 -0.2528 -0.1014
13442W        W29059  16.231  12.901  14.702  0.0700  0.1387 -0.1005
13443W        W29060  14.011   4.461  11.524  0.1151 -0.1744 -0.0081
13444W        W29061   2.149   8.560  14.735  0.0319  0.2506  0.0405
13445W        W29062  15.358   7.467   4.590  0.2361  0.0260  0.0300
13446W        W29063   7.380  14.194   3.543 -0.1527 -0.1060  0.1545
13447W        W29064   5.958   4.473  15.837 -0.0043  0.0940  0.0475
13448W        W29065   4.312  11.466   1.147 -0.1654  0.2283 -0.1937
13449W        W29066   1.531   9.298  11.720  0.1983 -0.0743  0.5865
13450W        W29067   2.659  11.631  12.235 -0.1496 -0.1618  0.0766
13451W        W29068   5.478  17.397   0.253  0.0392  0.2900 -0.1279
13452W        W29069   0.430   9.163  11.308  0.0795  0.0554 -0.0205
13453W        W29070   4.555   8.064   3.466 -0.0438  0.1078  0.0244
13454W        W29071  12.032   3.325  13.174  0.1075 -0.2239 -0.2122
13455W        W29072   8.490   2.778   2.882  0.1902  0.1345  0.0880
13456W        W29073  14.265  14.880   3.292 -0.0639  0.0120 -0.1859
13457W        W29074   3.525  11.025  15.578 -0.0361 -0.1282  0.3528
13458W        W29075  11.635   3.915   0.883  0.0530  0.1735  0.0489
13459W        W29076  10.215  10.733  13.012  0.0124  0.0264 -0.0302
13460W        W29077   4.358  12.332   2.876 -0.1848 -0.4802 -0.2461
13461W        W29078   0.129  17.007  16.137 -0.0307 -0.1450 -0.0404
13462W        W29079  12.664   1.978   1.694 -0.1836 -0.1243  0.0648
13463W        W29080   5.009   0.979   0.140  0.0448 -0.3039  0.0967
13464W        W29081   1.590   2.219   2.462  0.4129  0.1741 -0.0534
13465W        W29082  17.130  12.589  15.750 -0.1920 -0.1141  0.0536
13466W        W29083   6.720   6.288  14.435  0.1004 -0.1484 -0.2774
13467W        W29084   1.928  18.041  12.453 -0.0824  0.1561 -0.1105
13468W        W29085   2.179   0.480   3.558  0.3752 -0.3252 -0.0430
13469W        W29086  17.065   1.891   5.227  0.3530 -0.0502  0.0175
13470W        W29087   8.464  15.613  15.007 -0.2415  0.0569  0.0572
13471W        W29088   9.943   6.199   2.088  0.1813 -0.0335 -0.0155
13472W        W29089   2.897  10.173   0.311 -0.1999  0.1683 -0.0015
13473W        W29090  12.086  16.531   1.548  0.0865  0.2303 -0.0943
13474W        W29091   3.586   5.409   2.721 -0.2927  0.3758  0.2027
13475W        W29092  10.084  12.768   5.356  0.2146 -0.2274  0.1710
13476W        W29093  10.165   9.748  16.588  0.1969 -0.2140  0.2877
13477W        W29094   2.856  16.163  14.624  0.3108 -0.1986 -0.1256
13478W        W29095   0.181  11.060  15.389 -0.2117  0.2973 -0.1845
13479W        W29096   6.740  17.452  14.457  0.1905 -0.0588 -0.0019
13480W        W29097   8.126  10.076   3.476  0.1625  0.0806  0.0342
13481W        W29098   1.806  16.272  11.589  0.1019  0.0255 -0.0720
13482W        W29099   9.413   5.009  15.065  0.0828 -0.2295  0.1042
13483W        W29100  14.518   7.968   3.018  0.2904 -0.0833  0.2034
13484W        W29101   7.561  10.823   3.628  0.1763  0.1283 -0.1313
13485W        W29102  16.963  13.973   5.847 -0.1067 -0.2783 -0.4668
13486W        W29103   3.888  17.901   0.632  0.2665 -0.2197 -0.1801
13487W        W29104   2.417   6.481  13.427  0.0153  0.1110  0.0941
13488W        W29105  15.965   0.066  14.560 -0.1666  0.2748  0.3561
13489W        W29106   4.801  15.895   3.350  0.2845  0.0318 -0.5685
13490W        W29107   6.388  11.336   0.745 -0.6483 -0.1806 -0.3987
13491W        W29108  15.318   2.301  14.056  0.0262 -0.0556  0.3482
13492W        W29109  15.041   5.158  13.545  0.4554 -0.0059 -0.2270
13493W        W29110   6.737   5.728   1.896  0.0990 -0.0148 -0.0863
13494W        W29111   4.166   1.105   5.873  0.4016  0.0650  0.0205
13495W        W29112  14.917  11.292  13.746  0.1658 -0.1459 -0.0490
13496W        W29113  12.267   9.944   0.761  0.1707  0.3533 -0.1225
13497W        W29114   1.077  15.803   0.613  0.2343 -0.1359  0.0703
13498W        W29115  11.458  16.717   5.242  0.4096 -0.2225 -0.0086
13499W        W29116  10.724  17.695  13.020  0.1731 -0.0839 -0.0331
13500W        W29117  14.111   9.287   0.817  0.1349  0.0350 -0.2185
13501W        W29118   4.500   2.949   0.502 -0.2665  0.1189 -0.0838
13502W        W29119   7.823  16.268   5.461 -0.3954  0.0707 -0.0660
13503W        W29120   8.195  13.482  11.055  0.2536 -0.0664  0.1854
13504W        W29121  13.970  13.351   2.002 -0.3148 -0.0914 -0.1254
13505W        W29122   9.399  16.957   1.095 -0.0089 -0.3350 -0.1520
13506W        W29123   5.020  11.380   6.132  0.0248 -0.1435 -0.2077
13507W        W29124   9.575   6.073  14.689 -0.3965  0.0319 -0.1351
13508W        W29125   1.857   5.604   4.866 -0.6111  0.3345  0.2198
13509W        W29126  13.519  10.578   3.080  0.2066  0.0514  0.2850
13510W        W29127   0.909   7.435   0.259 -0.0461  0.2135 -0.0336
13511W        W29128  14.197  14.638  12.541  0.0695  0.1145 -0.1974
13512W        W29129   6.323  16.200  16.477 -0.2200  0.3292  0.3246
13513W        W29130  14.244  13.405   4.858 -0.1739  0.4382 -0.0463
13514W        W29131  13.821   8.271   3.947 -0.2717 -0.2740 -0.0029
13515W        W29132   4.381   0.789  13.661 -0.1217 -0.2955  0.2965
13516W        W29133   7.440  17.924  14.151  0.0224 -0.0121  0.0708
13517W        W29134  12.808  16.232   2.085 -0.0746 -0.4576 -0.1302
13518W        W29135   0.445  13.673  13.811 -0.1304  0.4337  0.0918
13519W        W29136  15.579  14.426  12.598 -0.1721  0.0742  0.0306
13520W        W29137  15.595  10.491  14.986 -0.0378  0.0113  0.2605
13521W        W29138   0.848   5.454   3.284 -0.3304 -0.0115 -0.0543
13522W        W29139  14.337  16.399  15.431 -0.2456  0.0073 -0.0743
13523W        W29140   9.398  15.847   4.894 -0.1221 -0.1510 -0.2324
13524W        W29141  16.310  17.869  16.109  0.2044 -0.1227 -0.1167
13525W        W29142  12.718  12.344   3.290  0.2153 -0.0788 -0.2391
13526W        W29143  11.415  14.650  14.736  0.0789 -0.0649 -0.0739
13527W        W29144   7.193  13.756  15.008 -0.2215 -0.0923  0.3048
13528W        W29145   2.254   3.394  12.923  0.1381  0.3036  0.1044
13529W        W29146   3.675  15.584   3.658 -0.1577 -0.2935 -0.3172
13530W        W29147   1.764  12.666  14.066 -0.0118 -0.0371  0.1560
13531W        W29148  11.599   6.189   6.024  0.0237  0.0718 -0.0470
13532W        W29149  10.730   5.464  11.591  0.1236 -0.1872 -0.2202
13533W        W29150   5.916   8.731  15.297  0.1969 -0.0607 -0.2269
13534W        W29151  13.441  17.000  12.935  0.2847 -0.3316 -0.0526
13535W        W29152   4.588  16.310  11.646 -0.0510  0.1287 -0.0397
13536W        W29153  14.670   2.943  14.566  0.0606 -0.0969  0.0254
13537W        W29154   4.084   1.873  16.336  0.3496 -0.2590 -0.1645
13538W        W29155   1.931   5.261   4.405 -0.2432  0.2254 -0.1761
13539W        W29156   3.123  14.267   1.000  0.1711  0.1324 -0.0259
13540W        W29157  11.057   6.121  14.924  0.1713  0.0027 -0.0648
13541W        W29158   4.015   9.442   0.386  0.1079 -0.2079 -0.0147
13542W        W29159   6.070   4.002  14.689 -0.0247 -0.1552  0.0575
13543W        W29160   7.871   0.772   2.871 -0.1048  0.0454  0.0196
13544W        W29161   2.243  10.510   2.748 -0.1123 -0.1601 -0.0940
13545W        W29162   2.268  10.532   1.069 -0.3026 -0.1578  0.2438
13546W        W29163   3.350   3.247   0.702 -0.2288 -0.0377 -0.2116
13547W        W29164  17.250  13.109   1.819 -0.0467  0.2184  0.1455
13548W        W29165  13.786   4.231   0.875  0.0958 -0.1314  0.2167
13549W        W29166   7.636  15.268  15.697  0.1563 -0.2966 -0.0311
13550W        W29167  16.691   9.214  13.243  0.5019 -0.0397  0.2467
13551W        W29168   0.082  17.062   0.557  0.2361 -0.0542 -0.3314
13552W        W29169  14.858   1.736   0.876 -0.0896  0.0741  0.0737
13553W        W29170  17.796   9.977  13.675  0.0746  0.2765 -0.3031
13554W        W29171  15.262   3.549   3.375 -0.1984  0.2536 -0.4806
13555W        W29172  17.062   3.114   5.785 -0.3032 -0.0077 -0.0117
13556W        W29173   9.552   3.368   2.411  0.2284 -0.2848  0.1210
13557W        W29174   4.913  14.898  16.205  0.1843  0.2099  0.0382
13558W        W29175  15.865  15.270   5.721  0.2263 -0.1534 -0.0947
13559W        W29176  13.560  11.077  12.015 -0.0386  0.0265  0.0406
13560W        W29177  16.461   5.987   4.627  0.2803 -0.1002  0.0546
13561W        W29178  12.470   1.257  15.261  0.1657  0.0740 -0.0529
13562W        W29179   7.312   0.169   4.610  0.2040  0.0188 -0.2302
13563W        W29180  10.610   2.443  16.048  0.0304 -0.1019  0.3729
13564W        W29181  13.987   5.875   2.588  0.1082 -0.3115 -0.0368
13565W        W29182   5.645   3.738  14.749 -0.2626 -0.0004  0.3014
13566W        W29183  16.342   4.804   0.861  0.2102  0.0293  0.3213
13567W        W29184  15.440  17.625   0.657 -0.1288  0.1937  0.1463
13568W        W29185   3.912   1.850   3.661 -0.1205 -0.0166 -0.1225
13569W        W29186   1.638  11.468  16.209  0.2519 -0.1300 -0.2037
13570W        W29187   4.958   2.529  13.425  0.1541  0.1254 -0.0237
13571W        W29188   3.683  12.275  14.551 -0.0771  0.2208  0.0844
13572W        W29189  17.343   6.057   2.013  0.0033 -0.2547  0.1983
13573W        W29190   7.348   7.429   5.413 -0.2291  0.1089  0.2439
13574W        W29191  17.032   6.605   1.982 -0.1187  0.0612 -0.0357
13575W        W29192   8.068   0.809   0.494 -0.0886  0.2264 -0.0899
13576W        W29193   2.887  16.265  13.797 -0.0135 -0.1306  0.2301
13577W        W29194  13.544   8.808  15.078  0.0361  0.3599  0.5672
13578W        W29195  11.796   9.647   4.120  0.0703  0.0639  0.1851
13579W        W29196   0.239  15.920   3.138  0.1066 -0.0077 -0.2665
13580W        W29197  10.299   6.446  15.591 -0.0349 -0.0760 -0.0148
13581W        W29198  10.991   4.192  12.682 -0.0070  0.2738 -0.5669
13582W        W29199  11.197  11.008   5.551 -0.3854 -0.1230  0.0007
13583W        W29200  14.490  17.098  12.179  0.3307 -0.1307  0.1979
13584W        W29201   4.083  16.509   3.734  0.3765  0.2053  0.4108
13585W        W29202   3.508   6.508  11.890 -0.2001 -0.0485 -0.0866
13586W        W29203  14.916  12.268   5.599  0.0291 -0.1747 -0.0167
13587W        W29204   5.168   5.101  14.819 -0.0909 -0.1432  0.0335
13588W        W29205   8.772  15.976  13.667 -0.1508  0.0152 -0.0807
13589W        W29206  12.398  10.335  10.602 -0.2546 -0.0728  0.2932
13590W        W29207   6.779   5.259  12.884  0.0828  0.0444  0.0865
13591W        W29208   9.900  13.701   2.196  0.1722  0.1774  0.0932
13592W        W29209  12.147  10.690  14.920 -0.3092 -0.0204  0.1857
13593W        W29210   5.997  12.027   3.760 -0.0538  0.0504 -0.1882
13594W        W29211  15.364   5.662  11.752  0.1675 -0.0984  0.2260
13595W        W29212   1.217  11.011   1.208  0.1900 -0.0435 -0.3251
13596W        W29213   0.399  12.404   4.354  0.2483  0.3924  0.0813
13597W        W29214   9.923  11.331   3.492 -0.0665  0.1979  0.0610
13598W        W29215   6.621   7.253   4.524  0.0482 -0.0419  0.1397
13599W        W29216   7.587   0.863  11.519 -0.0112 -0.0649 -0.4228
13600W        W29217   5.428   5.026  14.297 -0.0669  0.1982 -0.3224
13601W        W29218   7.682  15.112   2.353 -0.2452  0.3378  0.2550
13602W        W29219   3.939   8.902   3.430  0.3819 -0.2406  0.0488
13603W        W29220   1.583  16.058  10.727  0.3292 -0.0119  0.1042
13604W        W29221  13.988   2.398  13.088 -0.3081 -0.0423  0.0387
13605W        W29222   3.111  11.980   3.109 -0.2545 -0.0679 -0.0379
13606W        W29223   7.734   4.550   1.505  0.1896 -0.0068  0.0185
13607W        W29224  11.882  13.524  16.185 -0.0963 -0.1412  0.2089
13608W        W29225  17.188  17.278   1.886  0.0714 -0.4006 -0.0708
13609W        W29226  10.961  14.044   0.471 -0.1349  0.0617  0.0895
13610W        W29227   4.947   1.302  16.417 -0.2653 -0.0571  0.0538
13611W        W29228  11.484   3.498  15.723  0.0716 -0.2132  0.3332
13612W        W29229   0.421   1.835  14.197 -0.0980 -0.0964  0.1680
13613W        W29230  15.238  14.567   2.508  0.0221  0.1021 -0.1142
13614W        W29231   9.951   4.081   1.715  0.1718  0.3746 -0.2131
13615W        W29232  17.662   6.141  15.053  0.4736 -0.2243  0.0588
13616W        W29233   5.265  12.910   5.148  0.2195  0.2115 -0.1654
13617W        W29234   7.997   5.555   1.204  0.0252  0.1080 -0.0474
13618W        W29235   5.936   8.454  13.984  0.2005 -0.0204 -0.2008
13619W        W29236  15.151  13.097   0.124  0.2733 -0.0080  0.5206
13620W        W29237  15.210  14.757  15.177  0.0669  0.0248  0.1232
13621W        W29238   3.123   9.828   0.595 -0.3017  0.2891 -0.1083
13622W        W29239   8.178   4.933   5.365  0.1944  0.1819 -0.1727
13623W        W29240   7.168  10.843   1.003  0.1281 -0.2128  0.2330
13624W        W29241   7.993   9.077   4.409 -0.3796 -0.0485 -0.3767
13625W        W29242   9.061  14.726  16.115  0.3513 -0.3001  0.3114
13626W        W29243  15.029   9.688  15.921 -0.0053 -0.0248 -0.0703
13627W        W29244  15.182  11.289  11.917  0.1805 -0.0561  0.1279
13628W        W29245   7.096   2.748   0.553 -0.1648 -0.0777 -0.1804
13629W        W29246  10.902  14.468   5.227 -0.2811  0.1762  0.1387
13630W        W29247   5.710   0.990  13.909  0.3892  0.0261  0.0953
13631W        W29248   5.800  13.200  12.445 -0.1760 -0.1504 -0.1938
13632W        W29249  17.269   1.394   5.045  0.0317  0.1104  0.1343
13633W        W29250   3.338  11.410  13.644 -0.0772  0.0069 -0.1946
13634W        W29251  12.841  17.926  13.896 -0.0386 -0.1454 -0.2563
13635W        W29252   4.172  12.247  14.345 -0.1189  0.1853 -0.0603
13636W        W29253   3.629  17.212  13.362  0.0567  0.1027  0.0102
13637W        W29254  14.967  18.044  13.664 -0.1175  0.0324  0.0457
13638W        W29255  14.077   5.562  13.172 -0.1286 -0.2628  0.0223
13639W        W29256   8.723   1.724  16.510  0.0008 -0.2456  0.1693
13640W        W29257   3.819  10.360   0.502 -0.1767 -0.1556 -0.0649
13641W        W29258  17.921   3.450  14.957 -0.0323  0.1786  0.1494
13642W        W29259   5.943  14.511   3.425  0.2143 -0.1710  0.0135
13643W        W29260  10.491  13.688  12.338  0.1337 -0.0385 -0.2374
13644W        W29261  12.680  15.957   1.449  0.1191  0.1117  0.3267
13645W        W29262  14.703  15.823   2.931 -0.3177 -0.0376 -0.1005
13646W        W29263   7.744  10.117   2.462 -0.0963 -0.0842 -0.3228
13647W        W29264   6.482  12.821  15.646 -0.0151  0.0844  0.0321
13648W        W29265   6.237   6.240  11.944 -0.2345  0.2723  0.0209
13649W        W29266   9.579  16.144   4.163  0.4525  0.0394  0.1528
13650W        W29267   5.453   6.370   1.154  0.4257  0.0599  0.2062
13651W        W29268   1.687  15.677   2.782  0.0149  0.1056 -0.4599
13652W        W29269   7.118   9.312   1.989 -0.1954  0.1666 -0.0488
13653W        W29270  10.920  10.615  12.581 -0.0189  0.0519 -0.1134
13654W        W29271   3.187   0.180  14.916  0.0247  0.1255 -0.1317
13655W        W29272  12.684   2.783  12.691 -0.0829  0.1408 -0.1922
13656W        W29273  13.089   4.446   3.110  0.0725 -0.0338  0.0809
13657W        W29274   9.631  11.767  10.308 -0.0265  0.1102 -0.2112
13658W        W29275   9.080   5.081  16.506 -0.1881 -0.3001  0.0940
13659W        W29276   9.837  18.001  14.597  0.0600  0.3619 -0.1543
13660W        W29277   1.823   7.269   2.224  0.0259 -0.0490  0.0782
13661W        W29278   0.890  11.229   4.750 -0.0376 -0.1583  0.3443
13662W        W29279   9.441   7.078  13.471  0.2562 -0.1733  0.0245
13663W        W29280  12.587  12.996  15.048  0.1324 -0.1234  0.0322
13664W        W29281  14.241  14.337   3.396 -0.1499 -0.3418 -0.1134
13665W        W29282   8.523   9.306   1.405 -0.1263 -0.2769  0.2445
13666W        W29283   4.783   2.578  12.940  0.1100  0.1109 -0.1015
13667W        W29284   2.054   5.330  11.946 -0.0619 -0.1529  0.1730
13668W        W29285   2.935   0.462  16.286  0.0867 -0.1434  0.0802
13669W        W29286  14.472  16.372  13.244  0.1014 -0.4308 -0.2969
13670W        W29287  15.611  17.980   2.192 -0.2216  0.1771 -0.0967
13671W        W29288  14.748   5.455   3.157 -0.0292  0.0574 -0.2999
13672W        W29289   6.158  15.052   1.897  0.2688 -0.2034  0.1018
13673W        W29290   2.714  15.201   5.079 -0.1322 -0.3989 -0.0348
13674W        W29291   4.971  14.598  11.633 -0.4265  0.3044  0.0680
13675W        W29292  10.737   2.728  13.126  0.2494  0.2136 -0.1765
13676W        W29293  14.139   4.425  16.788 -0.2125  0.4544 -0.3946
13677W        W29294   1.473  12.956   2.976 -0.0407  0.2907  0.0855
13678W        W29295   0.811   3.211  15.598 -0.1176 -0.1262  0.0231
13679W        W29296   4.068   2.267  13.707 -0.1396 -0.1939  0.0760
13680W        W29297  11.872   8.564  13.573  0.1481 -0.3121  0.1842
13681W        W29298   8.675   6.126   1.252 -0.3144 -0.0042  0.1205
13682W        W29299  11.076   4.085  11.822  0.1031 -0.0663  0.0574
13683W        W29300  11.457  17.840  16.592  0.1773  0.0634  0.1520
13684W        W29301  13.471  10.669  11.699  0.2013  0.1262  0.3492
13685W        W29302  11.102  10.975  16.240  0.0346 -0.0399  0.2647
13686W        W29303   7.604  14.389  11.674 -0.3639 -0.2234  0.1439
13687W        W29304   4.680   4.511  11.606 -0.1997  0.2382 -0.0691
13688W        W29305  17.399  15.598  11.645  0.0617  0.1829  0.0401
13689W        W29306   6.996   4.522  11.601  0.0728  0.1073 -0.0791
13690W        W29307  12.528   7.643   4.556 -0.0374  0.0357  0.0353
13691W        W29308   0.467   4.143  12.434  0.1447  0.2062  0.1324
13692W        W29309   8.093  10.947  14.984  0.1431  0.2209 -0.0896
13693W        W29310   0.462   5.311  13.460  0.0876  0.0743  0.0418
13694W        W29311   6.738  14.637  14.404 -0.4529 -0.0997 -0.1543
13695W        W29312   8.027   4.588  13.787  0.1654 -0.0856 -0.0090
13696W        W29313   1.766   5.680   4.289  0.3937  0.2848  0.4267
13697W        W29314   2.168  13.165   4.127 -0.1594 -0.1011 -0.0318
13698W        W29315  10.610   5.508  15.702  0.0515 -0.0946  0.1739
13699W        W29316   9.973   9.560   2.188  0.0460  0.1180  0.0077
13700W        W29317   9.545  16.390  15.548 -0.0876 -0.0667 -0.1308
13701W        W29318  11.810  14.583   2.199 -0.2755 -0.1140 -0.3147
13702W        W29319  12.787   9.092   4.533  0.1684 -0.1105 -0.0381
13703W        W29320   0.233   7.997   0.247 -0.1911  0.0539  0.1198
13704W        W29321   1.823  14.572   2.643 -0.3369  0.1530  0.2640
13705W        W29322   7.238   7.008  15.617  0.2266 -0.1472 -0.0503
13706W        W29323  13.292   0.383   4.070  0.1456  0.1284  0.0471
13707W        W29324  12.779   5.251   4.104 -0.0100  0.0915 -0.2436
13708W        W29325   1.265  11.775   5.664 -0.1177 -0.2386 -0.2812
13709W        W29326   3.632   4.319  15.315  0.2499 -0.0944  0.2954
13710W        W29327  12.506  17.039  11.840 -0.1019  0.1824  0.1322
13711W        W29328   7.868   1.649   0.140  0.2786 -0.1951 -0.1095
13712W        W29329  12.961   3.274  12.043  0.0027  0.0202 -0.1416
13713W        W29330   0.725  10.724  16.101  0.0990 -0.0126 -0.1762
13714W        W29331   5.223  13.223  11.863  0.0322 -0.0928  0.2369
13715W        W29332   2.292  10.672  15.999  0.0474  0.2049 -0.3104
13716W        W29333   6.528   0.603   5.141  0.2591 -0.2429 -0.0080
13717W        W29334   5.640  15.326   2.615  0.1298  0.3991 -0.1562
13718W        W29335   7.726  14.464  15.492 -0.2726  0.1726  0.2486
13719W        W29336   2.170  10.397   2.123 -0.2495 -0.0508 -0.0377
13720W        W29337  12.251  14.503  13.398  0.5939  0.3033  0.3242
13721W        W29338   8.896  14.738   4.014  0.4755  0.2965 -0.1182
13722W        W29339  15.468   6.763  15.719  0.0009 -0.0969 -0.1291
13723W        W29340  14.207   1.391  14.003  0.2145 -0.0857 -0.0306
13724W        W29341  10.338   5.526   1.754 -0.2839 -0.2421  0.0802
13725W        W29342  13.214   2.101   6.546  0.2268 -0.0325  0.0616
13726W        W29343   1.648   9.199  15.059 -0.0764 -0.0295  0.2426
13727W        W29344   0.976   6.868  15.695  0.0131 -0.2467  0.2078
13728W        W29345   7.674   0.289  16.796 -0.4091 -0.1305  0.0685
13729W        W29346  17.479   2.758   4.214  0.4679  0.1213 -0.2335
13730W        W29347   1.358   7.188  15.707  0.2632  0.1638  0.3155
13731W        W29348   1.103   4.124   1.083  0.3421 -0.2244  0.1484
13732W        W29349  16.046   0.852  13.765  0.1458 -0.0096 -0.1969
13733W        W29350  15.958  17.831   6.408 -0.2102  0.3661  0.1593
13734W        W29351  17.152   1.207  12.059 -0.4442  0.1904 -0.2893
13735W        W29352  11.416   6.296   2.395 -0.0784 -0.0892 -0.1176
13736W        W29353   9.733   8.696   2.487 -0.2126  0.0960 -0.0324
13737W        W29354   9.417  14.306   1.779 -0.2588  0.2062  0.0994
13738W        W29355   9.495   9.934  11.010  0.1386  0.2227  0.2630
13739W        W29356  15.458   2.164   5.711  0.0985 -0.4127 -0.2529
13740W        W29357   2.776   5.220   0.213  0.0788  0.0210  0.1159
13741W        W29358   4.290  10.491  13.811  0.0994 -0.2510  0.1992
13742W        W29359  15.236   5.367   1.386  0.2706 -0.0052 -0.2621
13743W        W29360  11.273  11.928   3.584  0.0321  0.0112  0.1060
13744W        W29361   6.039   8.098   0.499 -0.2804 -0.1264 -0.1495
13745W        W29362   8.977   7.443  11.455 -0.0062 -0.0536 -0.1053
13746W        W29363  15.451   7.855  13.872 -0.2330 -0.2152 -0.1637
13747W        W29364   7.378  10.700   4.135 -0.1676 -0.1989 -0.1323
13748W        W29365   9.633   8.734  13.998 -0.0372 -0.0219  0.0044
13749W        W29366   0.741  11.917  16.562 -0.1569 -0.1617  0.0271
13750W        W29367   3.716   3.439   4.619  0.2866 -0.0415  0.3163
13751W        W29368   5.794  17.987   0.116  0.0005  0.5361  0.0898
13752W        W29369  14.525  12.264   0.536 -0.0742  0.2246 -0.0156
13753W        W29370   7.481  10.236   2.034 -0.2610 -0.0165  0.0244
13754W        W29371  12.947  13.100   5.150 -0.1268 -0.1260  0.0768
13755W        W29372   0.248   6.681  12.916  0.2626  0.1729  0.0405
13756W        W29373  17.749   7.193  13.987 -0.1144  0.0365  0.0627
13757W        W29374  16.040  14.724  12.726  0.2283 -0.0855 -0.1267
13758W        W29375   7.171   8.277   0.113 -0.1358  0.0901 -0.0534
13759W        W29376   3.548  10.505   0.059  0.2046 -0.0184  0.0894
13760W        W29377   6.052   4.162   0.616 -0.2913  0.1614 -0.0945
13761W        W29378   1.207  10.211  11.792 -0.0467  0.1118 -0.0885
13762W        W29379  12.522   4.118   1.478 -0.2223  0.1018 -0.1640
13763W        W29380   0.101   3.446  13.047  0.3619 -0.0605  0.0978
13764W        W29381   0.021   6.021   1.445 -0.0272  0.0367 -0.1199
13765W        W29382  14.347   8.140  16.456  0.0279  0.0104  0.1672
13766W        W29383   9.234   4.253   4.735  0.1296 -0.1187 -0.1381
13767W        W29384   6.355   1.869   5.506 -0.0978  0.0093  0.2159
13768W        W29385  15.619   5.246   4.142 -0.0815  0.1371  0.0525
13769W        W29386   8.242  17.618   2.814  0.2437 -0.1812 -0.1847
13770W        W29387   3.523  15.440  13.919  0.0950 -0.2551  0.1049
13771W        W29388  16.706  12.972  12.174 -0.0874 -0.2868  0.0170
13772W        W29389  13.526   5.083  16.735 -0.1896 -0.1220  0.1162
13773W        W29390  13.477  14.092  11.434 -0.1136 -0.2110  0.0851
13774W        W29391   9.547  12.560   4.500 -0.3278 -0.3789  0.0961
13775W        W29392  14.559  11.697  15.637  0.1598 -0.0333 -0.4587
13776W        W29393  15.642   0.242   3.518  0.0944 -0.0137 -0.3052
13777W        W29394  13.016  16.241  15.160 -0.1561 -0.3297  0.4327
13778W        W29395  12.439   2.652  15.867  0.0919  0.0159 -0.1076
13779W        W29396  15.169   3.202   0.644 -0.3004  0.1669  0.0202
13780W        W29397   9.379   3.713  12.138 -0.0347 -0.1130 -0.0251
13781W        W29398   5.438  10.784  16.726  0.0579 -0.1640  0.1454
13782W        W29399   7.614   1.250  14.041  0.1376  0.1225 -0.0592
13783W        W29400  14.810   2.802   4.130  0.0996 -0.0331 -0.1318
13784W        W29401  13.245  17.349  16.766 -0.1710  0.0342  0.0417
13785W        W29402  10.500  13.123  15.713 -0.1039 -0.0130 -0.0252
13786W        W29403   7.935  14.180  10.919 -0.2826  0.3029  0.0010
13787W        W29404   0.203  14.034  14.072 -0.1004  0.1028  0.0102
13788W        W29405   0.813  11.075  15.188 -0.0371 -0.1193  0.0916
13789W        W29406  15.399   5.502  13.499 -0.0312  0.0114 -0.0633
13790W        W29407   2.688   2.570  12.520 -0.1474  0.0489  0.2806
13791W        W29408  12.193   3.722   3.194 -0.0747 -0.1183 -0.1394
13792W        W29409   6.967  13.930  15.489 -0.4405 -0.3273 -0.3252
13793W        W29410  13.111  11.169  14.937 -0.0567  0.1043  0.2572
13794W        W29411   2.118   2.604   6.249  0.0551 -0.0280 -0.2890
13795W        W29412  10.265   0.589  10.955  0.0635 -0.0340  0.3799
13796W        W29413  12.780  10.501  13.065  0.0596 -0.0171 -0.1366
13797W        W29414  17.149  10.163  12.401 -0.3655 -0.0782  0.0644
13798W        W29415   7.389   6.392   1.741  0.1699 -0.0245  0.5147
13799W        W29416  10.694  13.884  12.825  0.0854  0.0898 -0.2023
13800W        W29417   0.245  17.245   2.649  0.1301  0.2143  0.0047
13801W        W29418   4.191  10.980   3.040  0.3239 -0.1996 -0.1730
13802W        W29419  11.657  14.814  16.047  0.2502 -0.0870 -0.1099
13803W        W29420   8.389  12.989   4.393 -0.3241 -0.1855 -0.1439
13804W        W29421   4.744  11.321  16.808  0.0367 -0.1355 -0.0504
13805W        W29422  11.198   7.136   5.181  0.2485  0.1104 -0.3289
13806W        W29423   6.019  12.214  16.047 -0.2639 -0.1825 -0.2485
13807W        W29424  10.754  16.605   0.470 -0.1009  0.2122  0.1770
13808W        W29425  11.637   2.817  13.708 -0.0230  0.2971  0.1096
13809W        W29426   3.553   0.411  14.717 -0.0119 -0.0502 -0.1160
13810W        W29427   5.347  13.756  15.062  0.0377  0.0600  0.2649
13811W        W29428  12.299   6.427  14.508 -0.0446  0.1468 -0.1166
13812W        W29429   0.995  10.040   1.048 -0.0871  0.0002 -0.1117
13813W        W29430   8.209   0.351  14.620  0.1019  0.0663 -0.1504
13814W        W29431   8.478  12.078  13.017  0.1742  0.0034 -0.0566
13815W        W29432   2.494   5.992  12.201 -0.1933 -0.0845  0.2139
13816W        W29433  14.108   9.566  14.371  0.3382  0.0045  0.1229
13817W        W29434   2.078  11.618  14.581 -0.4385 -0.2141  0.0714
13818W        W29435   2.518   6.429   4.791 -0.1014 -0.0258  0.0107
13819W        W29436  15.542   7.780   2.185  0.0120 -0.1580  0.2398
13820W        W29437   5.595   7.404   4.133  0.3343 -0.0726 -0.1165
13821W        W29438  10.663   6.323  15.242 -0.0085 -0.1575  0.0506
13822W        W29439   6.150  15.062  14.322 -0.1562  0.2012 -0.4933
13823W        W29440  13.321  16.871  14.646 -0.3591 -0.2764 -0.0508
13824W        W29441  10.697   5.501  13.915 -0.0746 -0.2670  0.0925
13825W        W29442  15.235  17.159   0.786 -0.0797  0.0857 -0.1086
13826W        W29443  16.026  10.958   2.741  0.3087  0.0617  0.0803
13827W        W29444  14.375   6.851   1.531 -0.2355 -0.2939 -0.1244
13828W        W29445   9.065   4.204  11.451  0.1593 -0.2198  0.4465
13829W        W29446   8.217   4.099  12.502 -0.0426 -0.1423  0.4094
13830W        W29447  17.783  14.781   3.564 -0.0525  0.1308 -0.0109
13831W        W29448  12.339  14.877  15.748 -0.0484  0.0843 -0.2769
13832W        W29449   7.488   5.896  11.441  0.0817  0.3650  0.0375
13833W        W29450   9.066   5.793   1.141 -0.0852 -0.0409  0.0263
13834W        W29451  15.443  10.854  15.278  0.1818  0.0200 -0.1295
13835W        W29452  17.095  11.284  16.763 -0.1965 -0.0791 -0.1958
13836W        W29453  15.242   8.915  14.615  0.0504 -0.0338 -0.1346
13837W        W29454   9.291   9.410   3.118  0.2527 -0.2165  0.1893
13838W        W29455  16.423  16.909  14.644 -0.0839 -0.0648  0.2954
13839W        W29456   4.377   3.067  15.838 -0.0205  0.1746 -0.0727
13840W        W29457  16.922   7.289   1.182  0.0359  0.2056 -0.2951
13841W        W29458  15.591  14.974  12.890  0.0183  0.4379 -0.1362
13842W        W29459   7.526   8.621   2.556  0.3465 -0.2859 -0.2487
13843W        W29460  17.704   8.719   2.744  0.2752 -0.4815 -0.1111
13844W        W29461   1.807  11.112  14.484  0.1067 -0.0052 -0.1822
13845W        W29462  11.537   1.059  13.998 -0.2410  0.0400  0.2802
13846W        W29463   0.939  17.954  12.612 -0.2730  0.0817 -0.2023
13847W        W29464   9.612   1.425  14.574 -0.4535  0.1003  0.1864
13848W        W29465   6.226  15.905  13.164 -0.0216  0.0498 -0.1362
13849W        W29466   0.828  16.434  12.149  0.0396 -0.0509  0.2539
13850W        W29467   1.108  16.494  16.302 -0.0627  0.0423  0.2343
13851W        W29468  12.506  16.779   2.707  0.1651  0.0175 -0.2598
13852W        W29469  11.583   7.238   4.911  0.1827 -0.1781 -0.3515
13853W        W29470   9.608  17.445  13.426 -0.0500  0.3293  0.2635
13854W        W29471   5.744  17.899   3.461  0.3032 -0.1215 -0.2699
13855W        W29472   3.011   5.304   2.133  0.3498  0.2332  0.1899
13856W        W29473  11.965   8.408   4.969 -0.0819 -0.1965 -0.2316
13857W        W29474   2.138   2.455   3.865  0.1514  0.2464 -0.0991
13858W        W29475   9.317  10.895   1.908 -0.1976  0.0015  0.1187
13859W        W29476   3.643   4.730  12.399  0.3132  0.3735  0.0623
13860W        W29477   2.977   9.682  11.429  0.2433  0.0291  0.0591
13861W        W29478   9.521  10.636   4.634 -0.2419  0.0650 -0.0073
13862W        W29479   4.327  13.109   4.968  0.2503 -0.0833 -0.0866
13863W        W29480   1.854   7.075   0.464 -0.1491  0.2333 -0.0436
13864W        W29481  11.515  15.046  15.014 -0.1840 -0.0137  0.1251
13865W        W29482  11.168   0.033  16.271 -0.0707  0.1313 -0.0703
13866W        W29483  11.607  17.614   4.603  0.1367 -0.0134 -0.0084
13867W        W29484   9.230  10.897  15.963 -0.0625 -0.1269  0.1340
13868W        W29485  11.035  15.491  12.410  0.1570  0.0096 -0.1156
13869W        W29486  13.359  12.037   3.424  0.3320  0.1171 -0.4041
13870W        W29487  17.722  17.704   5.069  0.1459  0.3045  0.1518
13871W        W29488  11.970  15.604  16.169  0.0800 -0.2160 -0.1806
13872W        W29489   9.415   9.373   3.743  0.0836 -0.2724 -0.3181
13873W        W29490   5.804  15.896   4.217 -0.1565  0.2230  0.0763
13874W        W29491  13.427   7.823   5.065 -0.2672 -0.1788  0.2326
13875W        W29492  10.819  15.271   0.393  0.2050  0.0147  0.0043
13876W        W29493   2.826  13.301   2.798 -0.2501  0.0313  0.3653
13877W        W29494  14.443  17.858  13.226 -0.5277  0.1902  0.0831
13878W        W29495   9.580   4.978   0.729  0.1203 -0.1367 -0.0555
13879W        W29496  17.591  16.662  16.373 -0.0276 -0.1491 -0.1384
13880W        W29497   0.482   5.846   2.451 -0.2958 -0.1519 -0.2585
13881W        W29498  11.350   1.862  13.408 -0.0194  0.1273 -0.0302
13882W        W29499  12.466  13.805  12.534 -0.1224  0.1393  0.1669
13883W        W29500   6.373  15.124  16.072 -0.1193  0.0820  0.0746
13884W        W29501  13.842  10.705   2.693 -0.0822 -0.0085  0.0204
13885W        W29502  15.044   0.663   3.760 -0.3056 -0.3231 -0.1838
13886W        W29503   0.627   0.568   1.747  0.3353  0.2120  0.1126
13887W        W29504   4.234  12.911  11.962 -0.0046  0.2850 -0.0072
13888W        W29505   8.728   2.429  14.766 -0.0096 -0.0168  0.2781
13889W        W29506   6.643   8.583  11.526  0.0248  0.0409 -0.0365
13890W        W29507  16.564   6.834   1.849 -0.2015 -0.0273 -0.3007
13891W        W29508   1.214   7.610   2.680 -0.2472 -0.0660  0.1195
13892W        W29509   6.499   8.549   2.431  0.1284  0.0130 -0.1812
13893W        W29510   3.502   1.184   0.481 -0.2099  0.2883 -0.1935
13894W        W29511   7.227   6.678   5.465 -0.0505  0.2145  0.1076
13895W        W29512  16.425  17.486   5.507  0.1758  0.0965 -0.0032
13896W        W29513   9.971  16.122  16.500  0.0038  0.1931 -0.0147
13897W        W29514  10.667  15.808  12.578  0.3451 -0.0255  0.1629
13898W        W29515   1.764   4.757   4.292 -0.1193 -0.5160 -0.1682
13899W        W29516  12.096   0.183  11.965  0.1608  0.0356  0.0332
13900W        W29517   4.163  13.195   2.377  0.0337  0.0564  0.1024
13901W        W29518   4.583  15.559  14.254 -0.0942  0.1249 -0.0662
13902W        W29519   5.747   7.727  11.864 -0.0288  0.1051  0.1969
13903W        W29520  12.593  14.718   4.376 -0.1112  0.2188 -0.2139
13904W        W29521  17.182   9.771   2.632  0.0835 -0.2658  0.0290
13905W        W29522  17.736  13.929   6.609 -0.1882  0.1405 -0.2905
13906W        W29523  13.321  17.251  16.256  0.0016  0.2113  0.0319
13907W        W29524   6.943   0.067   3.384 -0.1702  0.2160  0.0303
13908W        W29525  15.205  10.086   5.344  0.1466  0.2417  0.0079
13909W        W29526  16.161   1.911  15.524  0.1388 -0.1156  0.0656
13910W        W29527  15.972  17.191  14.661 -0.3160  0.1058 -0.0881
13911W        W29528   0.846  18.045   1.021  0.1858 -0.0937 -0.0971
13912W        W29529  17.924   7.971  13.546  0.0366  0.1216 -0.2693
13913W        W29530  16.532   1.892   5.120  0.0045 -0.0645 -0.3690
13914W        W29531   7.850  11.306  16.459  0.0523  0.2170  0.0889
13915W        W29532   3.426   6.851   3.462  0.0369  0.2385 -0.1634
13916W        W29533  17.242   6.955   3.065  0.0254  0.0216  0.0697
13917W        W29534   2.102   8.464  12.200 -0.3242  0.3098  0.0099
13918W        W29535  17.700   5.347  11.344  0.1608  0.1240  0.5732
13919W        W29536   6.700  17.821  12.958 -0.0881 -0.2421  0.1273
13920W        W29537  15.353  15.227  16.656  0.1103  0.0878 -0.0244
13921W        W29538  17.804  15.773   2.978 -0.4268  0.3291  0.2477
13922W        W29539   1.188  10.842   4.422  0.3086  0.0731 -0.2290
13923W        W29540  11.500  13.923  14.805  0.1348  0.0394 -0.2642
13924W        W29541   1.568  10.202   2.034 -0.1682  0.0291 -0.2638
13925W        W29542  14.471  10.791   2.875  0.3515  0.3349 -0.2360
13926W        W29543   6.253  14.502  14.412 -0.2230  0.2741  0.0687
13927W        W29544  15.715  14.958  15.180 -0.0878 -0.3242 -0.2093
13928W        W29545   4.927   0.213  16.618  0.3126 -0.0364  0.0459
13929W        W29546  17.983   8.037  11.308 -0.3213 -0.1874  0.0667
13930W        W29547  12.706   6.441   1.402 -0.2962 -0.0124 -0.0833
13931W        W29548  13.747  14.474   2.160  0.4134  0.0058  0.1167
13932W        W29549   7.823   4.575   2.542  0.2376 -0.1815  0.0612
13933W        W29550   7.864  17.511  12.056 -0.2050  0.0147 -0.1646
13934W        W29551   4.517  18.038   1.816  0.2637 -0.4808 -0.0107
13935W        W29552   5.477  15.283   3.350 -0.0154  0.1290  0.3536
13936W        W29553   9.596   6.298  12.094 -0.0680 -0.2207 -0.1685
13937W        W29554  10.154  12.517  15.094 -0.0775 -0.1453 -0.0635
13938W        W29555  15.262   0.984   2.865  0.0070  0.1673  0.1729
13939W        W29556   6.849   6.703   3.889 -0.1322 -0.1082 -0.0935
13940W        W29557  17.105  14.911  15.615 -0.2518  0.2004 -0.0869
13941W        W29558   5.774   5.387  12.106 -0.1160  0.0323  0.2017
13942W        W29559  13.384  14.768   2.397  0.1476  0.1146 -0.1200
13943W        W29560  16.479  15.313   4.999 -0.2011  0.0160 -0.4928
13944W        W29561  17.099   1.736  15.545 -0.0060  0.2757 -0.1166
13945W        W29562   7.576  17.623  15.451  0.0227 -0.2896 -0.1572
13946W        W29563   6.919  15.213  10.645  0.3299 -0.0357 -0.1711
13947W        W29564  13.167   2.562   5.475 -0.2070  0.0841 -0.1209
13948W        W29565   6.411   8.842  15.128 -0.2333 -0.0532 -0.1398
13949W        W29566  17.613   1.626  16.207 -0.0742  0.3024  0.1345
13950W        W29567   6.830  10.133  15.324 -0.1909 -0.1220 -0.1810
13951W        W29568  14.465   4.139   6.290  0.1341  0.3008 -0.2451
13952W        W29569   5.708   3.531   1.946 -0.2149 -0.0868 -0.0349
13953W        W29570  17.099   9.249  12.766 -0.3548  0.3314 -0.0975
13954W        W29571   2.738   3.012  13.009  0.3739  0.0604  0.1485
13955W        W29572   3.009   7.687  12.895 -0.2135 -0.0502 -0.1909
13956W        W29573  13.749  15.369   4.360 -0.0559  0.0676 -0.0753
13957W        W29574  13.559  12.529  14.400 -0.0797  0.0715 -0.0386
13958W        W29575   3.180  12.393   3.509  0.1775 -0.1826  0.1114
13959W        W29576  11.972  15.440  12.185  0.1385  0.4275 -0.1160
13960W        W29577   8.747   4.445   2.375 -0.0075  0.0605  0.1340
13961W        W29578   9.977   6.222   0.538  0.0574 -0.1190 -0.2378
13962W        W29579   0.183   8.526  13.856  0.0909 -0.0678 -0.2124
13963W        W29580   4.047   5.638   0.144 -0.1922  0.0091 -0.1421
13964W        W29581   2.811   9.396   3.685  0.1696  0.0008 -0.0480
13965W        W29582  14.301  11.956   2.348  0.3926  0.1027  0.1125
13966W        W29583  12.800   7.151  13.688  0.1980 -0.1087  0.0513
13967W        W29584   6.364   9.808  15.144  0.3292 -0.1811  0.0629
13968W        W29585   0.746  14.914  13.179 -0.0884 -0.0622 -0.2581
13969W        W29586  12.074  14.528  15.463  0.0329 -0.0336  0.2211
13970W        W29587  10.045   9.796  11.667  0.0036 -0.1226 -0.0771
13971W        W29588  17.893   4.905   2.469 -0.1004  0.1990  0.1563
13972W        W29589   7.638   7.634   2.089  0.0917 -0.1429 -0.2513
13973W        W29590   2.857  11.849   4.146  0.3903 -0.0007  0.2221
13974W        W29591  14.448  15.537  14.823 -0.1552 -0.1146  0.1544
13975W        W29592  14.013  17.686   6.591  0.2893  0.1872 -0.0707
13976W        W29593   3.788  14.851   5.272  0.1034 -0.2628  0.2354
13977W        W29594  13.089  14.390   0.069 -0.2383  0.0202  0.0532
13978W        W29595   6.616   6.139   5.161  0.0413  0.0902  0.1329
13979W        W29596   6.649  16.000   1.060 -0.1892 -0.3420  0.0515
13980W        W29597  12.387  11.499  14.072  0.0107  0.3627  0.2012
13981W        W29598   4.662  11.811   0.196  0.2054  0.1260 -0.0291
13982W        W29599   1.870  16.798   3.436 -0.1283  0.2081 -0.3331
13983W        W29600   5.719  14.323   2.962  0.2456 -0.0590  0.0433
13984W        W29601   3.713   5.641  16.594  0.1825 -0.0886  0.0638
13985W        W29602   6.196   1.022  16.397  0.0289  0.0972  0.2303
13986W        W29603  14.382   1.352   2.254 -0.3607 -0.0936  0.0130
13987W        W29604   9.276   0.216   3.385 -0.3169  0.1448  0.1345
13988W        W29605   0.665  10.805   0.507 -0.1335  0.0310  0.1125
13989W        W29606   7.567  12.460  12.860  0.4056  0.1208 -0.0811
13990W        W29607  13.285   7.992  12.716 -0.0728  0.1027 -0.0673
13991W        W29608   9.350  13.703  13.331 -0.0986  0.1527  0.1162
13992W        W29609   4.081  12.035  16.040 -0.1566  0.1973 -0.0915
13993W        W29610   9.345   5.029  11.952  0.1171 -0.0942 -0.0439
13994W        W29611   8.584  12.272  14.996 -0.1606  0.0350  0.0209
13995W        W29612  17.203   7.411  13.925 -0.3096  0.0057 -0.2046
13996W        W29613   8.010   7.832   3.043  0.1543 -0.0091  0.0397
13997W        W29614  14.577   1.223  15.763 -0.2742  0.3349  0.2061
13998W        W29615   7.169   3.509  11.808  0.0672  0.0714 -0.2331
13999W        W29616  10.157   6.869  12.428 -0.0653  0.1035 -0.1602
14000W        W29617   3.286  14.120  11.719 -0.2801 -0.0571  0.0080
14001W        W29618   9.088  12.515   3.723 -0.1519 -0.2677  0.1628
14002W        W29619   8.513  15.126   3.554 -0.0575 -0.3407 -0.4728
14003W        W29620   5.352  17.690  11.713 -0.1538  0.2675  0.6646
14004W        W29621   8.481  17.816  16.117  0.0453 -0.0212  0.3454
14005W        W29622  11.064   5.958   4.124  0.0378  0.2636  0.1264
14006W        W29623  14.230   9.852   4.226  0.2765  0.0586  0.0628
14007W        W29624   5.097   4.331   2.831 -0.1180 -0.0658  0.2310
14008W        W29625   5.241  12.154  11.507 -0.3051  0.0952 -0.0431
14009W        W29626   8.621  12.912  13.263 -0.0091 -0.3253 -0.2035
14010W        W29627   5.493   0.969   4.015  0.2677 -0.2301  0.2400
14011W        W29628   1.762  16.590  15.185 -0.0999 -0.0512 -0.1052
14012W        W29629   5.303   1.547   1.047 -0.0444  0.2634 -0.2666
14013W        W29630  11.515   5.833   2.257  0.1956  0.0402 -0.2033
14014W        W29631   5.732  17.977  14.086 -0.0022 -0.2024 -0.4081
14015W        W29632   0.839  13.050   0.129 -0.0174 -0.1878  0.3147
14016W        W29633   4.403   0.743  13.147  0.1133  0.0480 -0.3246
14017W        W29634  13.427   4.351   0.520 -0.2903 -0.1894 -0.0934
14018W        W29635  13.445  12.729  15.988 -0.0897 -0.2731  0.1543
14019W        W29636  11.983  16.376   0.991 -0.2167  0.0482  0.0289
14020W        W29637   2.140  11.577  16.334 -0.2527  0.1516 -0.0229
14021W        W29638  10.093  12.904  14.049 -0.2615 -0.2843 -0.1400
14022W        W29639  11.722  15.425  10.522  0.1448  0.1556 -0.0289
14023W        W29640  12.729   2.253   3.380 -0.0627  0.0904 -0.1353
14024W        W29641   8.766  16.460  11.888 -0.1088 -0.0727 -0.2549
14025W        W29642  14.172  14.548   2.922 -0.1568 -0.1652  0.2933
14026W        W29643   2.143  10.980   4.800 -0.3469 -0.1535 -0.0734
14027W        W29644   2.181  16.249  15.139  0.0876 -0.2655  0.1272
14028W        W29645  14.852   8.148   4.553  0.0131  0.1103 -0.0695
14029W        W29646  11.248   2.027  15.320  0.0431  0.0573 -0.6423
14030W        W29647   4.548   8.902   1.942 -0.4367  0.0590 -0.1202
14031W        W29648  10.211   8.861   3.347 -0.1563  0.2144 -0.1000
14032W        W29649   9.275   8.485  12.897 -0.4917 -0.1846  0.2300
14033W        W29650  11.270  14.682   3.895 -0.1331  0.1915  0.1853
14034W        W29651  10.106   5.643  12.990 -0.1756  0.2430 -0.1058
14035W        W29652  10.227   1.655  12.791 -0.0078  0.4068 -0.2616
14036W        W29653   4.881   4.656   0.212 -0.2831  0.1338 -0.2012
14037W        W29654  17.713   4.391   2.441  0.3281 -0.0394 -0.0364
14038W        W29655  13.416   6.824  16.030 -0.0051 -0.0658  0.0078
14039W        W29656   7.287   7.903   4.148 -0.2114  0.3242 -0.3380
14040W        W29657  15.966   8.826   0.966 -0.1898  0.0683 -0.1299
14041W        W29658   7.631   4.282  11.366 -0.2407  0.0457  0.0207
14042W        W29659   7.855   7.632   1.538  0.0675 -0.0390 -0.2987
14043W        W29660   1.083  12.283  16.248 -0.0096 -0.0206  0.4659
14044W        W29661  13.842  14.889  14.848  0.1595 -0.4399  0.2368
14045W        W29662   1.638  11.070   4.003  0.2609 -0.3203 -0.0801
14046W        W29663   5.883   5.361  15.074 -0.0130 -0.2323 -0.1691
14047W        W29664   2.486   6.086   5.361  0.1207  0.2364  0.1084
14048W        W29665   6.160   9.634  14.066 -0.0826 -0.3552 -0.4122
14049W        W29666  17.696   7.839  12.584  0.1795 -0.1034 -0.0516
14050W        W29667   0.273   1.742   3.768  0.3509 -0.4454 -0.1902
14051W        W29668   0.245   2.113  14.988 -0.1474 -0.0511 -0.0404
14052W        W29669  15.667  12.508  13.289 -0.3562 -0.2216  0.2174
14053W        W29670   2.547   4.220  14.056 -0.0928 -0.0321 -0.0151
14054W        W29671   5.169   5.974   3.733  0.2015  0.0381 -0.0808
14055W        W29672  15.590  16.431  13.493 -0.2337 -0.0122 -0.0166
14056W        W29673  11.211   1.712   3.231  0.0801 -0.5496  0.2430
14057W        W29674  16.182   3.223   5.049  0.0627 -0.4774 -0.1363
14058W        W29675   6.341   6.186  15.321 -0.3519 -0.0782  0.2100
14059W        W29676   8.404   2.894   0.074  0.1536 -0.1019 -0.0845
14060W        W29677   8.652  12.393   3.996  0.2278  0.4406  0.1966
14061W        W29678  15.609  17.503  14.669  0.1168 -0.0865 -0.1255
14062W        W29679   5.567   9.189  11.139  0.0893 -0.1607  0.0357
14063W        W29680  16.609   0.089  15.082  0.1582  0.0400 -0.1503
14064W        W29681  15.118   3.786  12.670 -0.0511  0.0808  0.0024
14065W        W29682  17.685  14.152   0.731  0.0827  0.2953  0.3463
14066W        W29683  13.415   2.437  14.179 -0.0171  0.2869  0.5102
14067W        W29684   7.788   8.980  11.109 -0.2136  0.0073 -0.3850
14068W        W29685  15.285   9.267  16.359 -0.2218  0.0096  0.0568
14069W        W29686   1.025   2.144  15.376 -0.1151 -0.0697  0.1270
14070W        W29687   5.173  13.787  15.613 -0.1289 -0.2727 -0.0478
14071W        W29688  15.609  15.039   0.272 -0.0047  0.4056  0.0452
14072W        W29689  12.574   9.865   5.500  0.3145  0.0168 -0.2360
14073W        W29690  15.217  15.896   1.310  0.1508  0.1842  0.1436
14074W        W29691  16.439  13.238   4.743 -0.3114  0.0446 -0.4661
14075W        W29692   0.381  11.578   5.503 -0.1476 -0.4525  0.0622
14076W        W29693   2.772  13.224   4.994 -0.0888 -0.2011 -0.0473
14077W        W29694  11.617   8.592   2.529 -0.0480 -0.0009  0.1467
14078W        W29695  16.182   7.556   2.544 -0.0080 -0.0253 -0.2249
14079W        W29696  16.256  14.954  15.050  0.3920 -0.0754 -0.1508
14080W        W29697   6.136   6.004  11.426  0.1127  0.2096  0.0374
14081W        W29698   9.644   3.205   3.346  0.1376 -0.0704  0.3003
14082W        W29699   7.406  13.413   2.728  0.0460 -0.2002  0.1659
14083W        W29700  18.002   9.313  12.738 -0.2185  0.0854 -0.2351
14084W        W29701   0.560   6.005   0.454  0.0380 -0.1211  0.0726
14085W        W29702  10.293  12.593  11.341  0.1521 -0.0581 -0.2235
14086W        W29703  16.609  16.035  11.622 -0.1684  0.3256  0.1701
14087W        W29704  10.449   6.883  15.370 -0.1506 -0.0123  0.0865
14088W        W29705   4.384   4.163  13.453 -0.0841  0.1770  0.1433
14089W        W29706   2.559  13.853   2.612 -0.1245 -0.1843  0.2307
14090W        W29707  10.437  13.664   3.040  0.1811  0.0926 -0.0253
14091W        W29708  15.168  12.030  15.766 -0.1269 -0.0424 -0.0009
14092W        W29709  12.970   1.293   3.699 -0.2689  0.3057 -0.1913
14093W        W29710  15.126  14.432   3.301 -0.0861  0.0254 -0.0790
14094W        W29711   1.299   1.901  14.186  0.0307 -0.0639  0.3936
14095W        W29712  15.637   1.627   4.887  0.0069  0.2201  0.0616
14096W        W29713   7.779   2.914  11.663  0.2098 -0.2185  0.2077
14097W        W29714   7.548   7.188  12.085 -0.2066  0.3249  0.0333
14098W        W29715   6.789   4.277   3.539  0.0155 -0.0898 -0.1071
14099W        W29716   2.343  11.034   3.004 -0.0188 -0.1569 -0.1664
14100W        W29717  12.680   5.577   0.471 -0.1805 -0.1572 -0.0878
14101W        W29718  16.028   0.141   2.347  0.3525 -0.1925 -0.1077
14102W        W29719   6.521  17.885  14.515 -0.0332  0.2164  0.0741
14103W        W29720  13.835   4.130   0.291  0.1730  0.0549  0.1466
14104W        W29721   3.116  12.039   2.495  0.1879  0.0854  0.1220
14105W        W29722  12.504  10.794   4.429 -0.2266 -0.1541  0.1948
14106W        W29723   2.901  13.882   1.370  0.0586 -0.1196  0.0074
14107W        W29724   0.643   7.026   0.395 -0.0699 -0.1720 -0.1149
14108W        W29725   2.325  17.795   2.390  0.1537 -0.0028 -0.0304
14109W        W29726  17.930  12.026   5.785 -0.1189  0.2575  0.1764
14110W        W29727   1.594   8.010  15.588  0.0496  0.2048 -0.0325
14111W        W29728   1.729   2.755  16.148 -0.1213 -0.1096 -0.0935
14112W        W29729  14.694   7.621   1.221 -0.0855  0.0805 -0.0353
14113W        W29730  11.253  12.127  13.216  0.2148  0.1045 -0.0394
14114W        W29731   5.359   7.764  12.325  0.1345  0.1083  0.0738
14115W        W29732  14.167  16.276  12.380 -0.0416 -0.0903 -0.1846
14116W        W29733  12.524  14.875   0.478  0.2169 -0.0246  0.3742
14117W        W29734  11.857  12.838   4.479 -0.0749 -0.0574  0.1592
14118W        W29735  13.906   4.186   4.782  0.1226  0.0930 -0.1941
14119W        W29736  12.186  10.437  13.592  0.1149  0.1355  0.0471
14120W        W29737   7.158   8.612  14.422 -0.1999  0.0447 -0.0685
14121W        W29738  14.076  13.638   4.488 -0.0792 -0.0796  0.2274
14122W        W29739  16.255  16.526   3.058 -0.0847 -0.0186 -0.2981
14123W        W29740   2.996  10.596  16.708  0.1698 -0.3737 -0.0325
14124W        W29741  16.803   0.188  14.584 -0.2028 -0.1172 -0.0032
14125W        W29742  17.755   0.048  15.538  0.0465 -0.3227 -0.0306
14126W        W29743   2.928   3.652   1.524  0.0657 -0.0563  0.2670
14127W        W29744   3.635   8.577   5.673  0.0498  0.1802 -0.0474
14128W        W29745  13.851   4.696  13.058 -0.1824 -0.1577 -0.0097
14129W        W29746   5.349  17.084  14.592  0.1358 -0.2313  0.0104
14130W        W29747   2.088  16.173   2.141  0.3393  0.0316  0.1742
14131W        W29748   7.982   8.215   2.121  0.1928 -0.2617  0.0930
14132W        W29749   9.145   3.799   3.567 -0.0577 -0.1108 -0.2480
14133W        W29750   1.069   4.607   0.287  0.0643 -0.0986 -0.1143
14134W        W29751   0.264   0.179   1.807 -0.2400 -0.0511  0.2480
14135W        W29752   8.989   2.619   0.887  0.1700  0.2340 -0.2309
14136W        W29753  16.382   1.607  14.893  0.0831 -0.0480 -0.0285
14137W        W29754  10.581  17.847   2.572 -0.1142  0.1296 -0.0479
14138W        W29755   9.553   5.347   5.599  0.1146  0.0961 -0.1025
14139W        W29756  10.571   3.927   5.168 -0.0197 -0.1662  0.0557
14140W        W29757  16.342  11.041  16.323 -0.1231  0.0946 -0.0167
14141W        W29758  16.018   2.654  13.402 -0.0134 -0.1008  0.0129
14142W        W29759  18.038  17.390  11.761  0.0421 -0.1133 -0.3343
14143W        W29760   4.262   1.403  12.499 -0.0739 -0.1177  0.0249
14144W        W29761  10.416  17.933   0.965 -0.0435 -0.1504 -0.0389
14145W        W29762   8.152   0.476  15.759 -0.5479 -0.0857 -0.2104
14146W        W29763  13.998   1.174  12.760  0.0668  0.1523  0.0744
14147W        W29764   1.007   7.033  14.046  0.0566  0.5820  0.0561
14148W        W29765   1.898  12.710   4.378 -0.2671  0.2212  0.2039
14149W        W29766   9.393  10.520   2.929 -0.1226  0.0585  0.2528
14150W        W29767   8.821   5.206  13.533 -0.3059  0.0014 -0.2745
14151W        W29768  14.893  17.655   4.421 -0.0589 -0.2639  0.2142
14152W        W29769  13.607  15.152   2.153  0.4877 -0.2019  0.0522
14153W        W29770  14.721  18.042  14.456  0.0207 -0.2218  0.0945
14154W        W29771   8.106  12.638   0.892  0.1286  0.0065  0.0064
14155W        W29772  13.757   0.856  15.225  0.0646 -0.0967  0.1750
14156W        W29773   1.741   7.593  14.373  0.0101 -0.0539 -0.2118
14157W        W29774   2.751   9.723  16.569  0.0139 -0.2570  0.1838
14158W        W29775  15.760  14.716   2.397  0.1064  0.3732 -0.1212
14159W        W29776   6.380   9.342  16.745 -0.0924  0.1232 -0.0149
14160W        W29777   1.696   7.079  16.660  0.0447 -0.1912  0.2379
14161W        W29778   4.324  13.322  12.221 -0.1023  0.0510 -0.2544
14162W        W29779  12.033  13.209  16.664 -0.2448  0.2013 -0.0875
14163W        W29780  17.469  15.357  13.039  0.2011  0.0334  0.1588
14164W        W29781   8.093  11.245   0.988  0.1791 -0.0197 -0.0365
14165W        W29782   4.214   4.462   3.624 -0.0473 -0.4727  0.0138
14166W        W29783   4.497  16.775   0.072 -0.1191 -0.0206  0.0236
14167W        W29784   2.550  17.855  16.272  0.3258 -0.3141  0.0470
14168W        W29785   6.781   2.982  12.999 -0.3028  0.2205 -0.2394
14169W        W29786  12.429  16.185   0.019  0.0437 -0.0429  0.2861
14170W        W29787   0.083   3.915  13.252  0.0648 -0.1075 -0.1477
14171W        W29788   5.712   4.103  12.662 -0.0550 -0.2677 -0.1749
14172W        W29789   5.501   7.134  16.610 -0.0006 -0.1599 -0.1516
14173W        W29790   0.655  10.729  10.894 -0.2340 -0.1799  0.1067
14174W        W29791   3.812   5.893   3.287  0.1682  0.1941  0.0940
14175W        W29792   4.408   3.884  12.298 -0.0674 -0.0783 -0.2911
14176W        W29793   5.040  16.075   3.752  0.2950  0.0872 -0.0908
14177W        W29794   4.956   1.713   1.469 -0.1231 -0.1103  0.3231
14178W        W29795   0.553   0.832  14.460 -0.0206  0.3427  0.0711
14179W        W29796  10.396  10.964   0.543  0.0975  0.1180 -0.0823
14180W        W29797   6.371  15.110  13.441  0.1410 -0.2808  0.2582
14181W        W29798  10.957  10.195  11.184 -0.3177 -0.1385 -0.1919
14182W        W29799  10.551   3.749  16.803 -0.1380 -0.2278 -0.0164
14183W        W29800   1.724  17.539  14.163  0.2971 -0.0739  0.1081
14184W        W29801   8.399   4.300   5.446 -0.0333  0.0043 -0.0546
14185W        W29802   2.061   0.179  14.021 -0.0951  0.1941  0.4672
14186W        W29803   6.117   7.496   4.140  0.1347  0.0126  0.0114
14187W        W29804   6.394  16.375  14.902  0.1966 -0.2567  0.0070
14188W        W29805   3.712   2.024  10.522  0.0917  0.1874 -0.1841
14189W        W29806  16.151   5.184  15.024 -0.1339  0.1180 -0.1543
14190W        W29807  13.583   1.989  13.299  0.2581  0.1839  0.2976
14191W        W29808  14.639   5.191   1.378  0.0994 -0.0889  0.3100
14192W        W29809  16.570   2.004  16.368 -0.2682 -0.1899 -0.2478
14193W        W29810  12.358  15.096   2.834  0.0652  0.2141  0.1299
14194W        W29811   1.789  12.691  13.128  0.4385  0.0094  0.2175
14195W        W29812   5.957   6.189  14.875  0.1344  0.0122 -0.3930
14196W        W29813   5.844   0.845  16.682  0.0574 -0.0902  0.1993
14197W        W29814  16.478   6.483  13.125  0.1902  0.1425 -0.1245
14198W        W29815  12.843   5.820  12.754  0.2655 -0.1953  0.1270
14199W        W29816  12.514   8.586  15.500 -0.2782  0.2053 -0.1157
14200W        W29817  13.983   8.787   0.868  0.0098  0.1434 -0.0400
14201W        W29818  16.093   2.135  16.545 -0.0728 -0.0023  0.4421
14202W        W29819  15.783  13.876  15.500 -0.1128  0.0591  0.0173
14203W        W29820   4.879   8.521   2.779  0.1885 -0.1447  0.0619
14204W        W29821  16.118   6.833   1.045  0.0260  0.0112  0.1896
14205W        W29822   1.540   7.240   5.658 -0.2974 -0.2373  0.1434
14206W        W29823  13.008   2.201  11.830  0.0760 -0.2470  0.0286
14207W        W29824   1.195  16.661  13.605  0.0576 -0.3585 -0.0099
14208W        W29825   8.888  16.097  14.182 -0.0303 -0.2538  0.0996
14209W        W29826   6.990   3.912   5.143  0.1072 -0.5385  0.2146
14210W        W29827   4.418   0.718  11.735 -0.0560  0.0284  0.0283
14211W        W29828   2.389  13.851  16.004  0.0367 -0.1659 -0.1614
14212W        W29829  16.582  10.680  14.246  0.1406 -0.3023  0.1216
14213W        W29830  13.988  15.935   4.940  0.2639  0.1992  0.0735
14214W        W29831  15.264   8.283   0.214 -0.0086 -0.2864  0.1490
14215W        W29832  16.635   0.640   4.932 -0.2193  0.0422 -0.0499
14216W        W29833   0.134   2.021   1.440  0.2299 -0.1160 -0.3140
14217W        W29834  14.662   4.227   5.513  0.1446 -0.1785  0.1329
14218W        W29835  15.244  10.144  15.801  0.4029  0.0050 -0.1888
14219W        W29836  11.727   3.729  14.701 -0.2025  0.1465 -0.4344
14220W        W29837  14.463   1.514   0.100 -0.0264 -0.2061  0.0507
14221W        W29838  15.448   5.133   0.644 -0.0837  0.0822  0.3451
14222W        W29839   8.516  13.695  12.487  0.1096 -0.1636  0.0409
14223W        W29840  12.626  14.576   1.405  0.1880  0.1335  0.1003
14224W        W29841  13.756  13.706   4.006 -0.1964  0.1956 -0.3378
14225W        W29842  10.595  14.443   2.923 -0.0539  0.0436  0.2515
14226W        W29843   4.573   6.515   1.235 -0.0788  0.1693 -0.0797
14227W        W29844   1.656  14.890   5.274 -0.1359  0.0459 -0.1599
14228W        W29845   9.787   2.909   0.212  0.1402 -0.1834 -0.0643
14229W        W29846   1.422   9.026   0.973  0.2073  0.1383  0.1425
14230W        W29847  17.775   7.308   5.953  0.0563  0.0817  0.2864
14231W        W29848  15.588   5.673  14.276 -0.1787 -0.0407 -0.4307
14232W        W29849  16.659  14.181  12.450 -0.0359  0.0458  0.2263
14233W        W29850  16.988   3.468   1.766 -0.0434  0.1980  0.1723
14234W        W29851   2.702   6.804   5.161  0.0041  0.2812 -0.5003
14235W        W29852  12.348   2.675  11.768 -0.0788  0.4208 -0.2490
14236W        W29853   1.468  10.251  13.695 -0.0416  0.2049  0.0663
14237W        W29854   5.296  11.507  12.665 -0.3701 -0.2032 -0.0197
14238W        W29855  10.116   4.649  14.083  0.0046 -0.0954  0.6429
14239W        W29856   0.095  15.083  11.826  0.1615 -0.2441 -0.0513
14240W        W29857  15.577   9.059   5.679 -0.0693 -0.2530 -0.1706
14241W        W29858   2.159   5.737  12.829 -0.0062 -0.2182 -0.0154
14242W        W29859   9.584   8.436  11.951  0.1212 -0.1321  0.0017
14243W        W29860   5.049   4.037   3.989  0.2783 -0.1593 -0.0910
14244W        W29861  17.161   2.870  12.324  0.1661 -0.0853 -0.3883
14245W        W29862  12.569  16.230  12.193  0.0097  0.0822 -0.1786
14246W        W29863  14.902   6.391   0.657  0.0325  0.1034 -0.2757
14247W        W29864   2.592   0.447   1.789 -0.0610  0.2286  0.1143
14248W        W29865  12.353  10.361   2.634 -0.0675 -0.1742 -0.1140
14249W        W29866   6.870   2.877   3.339  0.0069  0.0143  0.2505
14250W        W29867  14.904   6.639   1.485 -0.0072  0.2288  0.1043
14251W        W29868   7.367   8.133   2.819 -0.0345 -0.0052  0.0798
14252W        W29869  17.698   4.103  10.960 -0.1054  0.2513  0.1830
14253W        W29870  13.139   4.607  14.404  0.0923 -0.0664 -0.1116
14254W        W29871   5.256  12.575  13.539  0.0143 -0.3815 -0.1786
14255W        W29872   8.110   5.277  14.831  0.2035  0.2269  0.1077
14256W        W29873  14.574  12.367   4.703  0.0804  0.4851 -0.1197
14257W        W29874  11.404  16.167   2.854 -0.2242 -0.4563 -0.2800
14258W        W29875  10.458  16.188   3.377  0.1023  0.0465  0.0436
14259W        W29876   2.515  14.235  12.883 -0.0062 -0.4133  0.1391
14260W        W29877   5.569   5.160   4.696  0.1136  0.1270 -0.2278
14261W        W29878   1.930  17.275   3.600  0.0629  0.0433 -0.4870
14262W        W29879   5.338  13.006  14.161  0.3007 -0.0630 -0.2569
14263W        W29880  16.349  14.078   4.987  0.0004  0.0042 -0.0540
14264W        W29881   5.602   5.802  11.440 -0.1498 -0.3409  0.0452
14265W        W29882  15.746  16.654   3.063  0.2093 -0.0517 -0.1704
14266W        W29883   8.817   6.241  15.954  0.1410 -0.0637  0.0296
14267W        W29884  11.722   5.336   5.183  0.2580  0.0296 -0.1333
14268W        W29885   9.331   3.390  13.513 -0.0918  0.1954  0.2194
14269W        W29886   6.253  13.124  12.777  0.1696 -0.4288  0.0598
14270W        W29887  15.976  17.591  14.340 -0.3848  0.3059 -0.0512
14271W        W29888   2.253  12.817  13.927 -0.3692  0.0188  0.1327
14272W        W29889   8.603  11.643   3.394  0.2894 -0.4636  0.1907
14273W        W29890   9.980  13.777   2.729 -0.0101 -0.0066 -0.3831
14274W        W29891   4.889  12.626   1.579 -0.0529 -0.4678 -0.0702
14275W        W29892   9.818  15.480   3.119 -0.0968 -0.1560  0.1164
14276W        W29893  15.223   4.596   6.481  0.3177 -0.0704  0.2316
14277W        W29894   4.952   3.338   4.210  0.2361 -0.0207  0.4454
14278W        W29895  12.036  16.658   2.414 -0.2349  0.3080 -0.0691
14279W        W29896  17.110   6.415  15.471 -0.1351  0.0522  0.0522
14280W        W29897   4.906  16.665   1.373  0.1501 -0.2525  0.2051
14281W        W29898   6.600   1.151  13.844 -0.2188  0.1951  0.0464
14282W        W29899  13.267   8.871   6.099 -0.0402 -0.1694  0.1718
14283W        W29900   6.177  14.006   2.780  0.3442  0.1353 -0.0634
14284W        W29901   7.350   6.056   0.767  0.1768  0.0557  0.1212
14285W        W29902   1.970  11.187   5.743  0.2531 -0.0095 -0.1306
14286W        W29903  16.315  11.958   1.012 -0.2054  0.2124 -0.1584
14287W        W29904   4.545   5.721  16.014 -0.1522  0.2009  0.3171
14288W        W29905   9.139  12.755  16.662 -0.3589 -0.2462  0.0400
14289W        W29906  10.072  13.396  12.255 -0.0306 -0.0306  0.2694
14290W        W29907  15.978   8.378   2.560 -0.2466 -0.0742  0.0092
14291W        W29908   4.505   0.591  12.617 -0.3121 -0.1186 -0.0593
14292W        W29909  11.661   2.776   2.382  0.0993  0.2686  0.0102
14293W        W29910   3.005   2.795   5.081  0.1529  0.1428  0.1146
14294W        W29911   7.220   7.924   3.376 -0.2395 -0.0352  0.1537
14295W        W29912   8.417   3.652  15.799  0.3289  0.1357  0.0218
14296W        W29913   2.410  16.766  12.262 -0.0591  0.0919  0.0677
14297W        W29914   7.301   3.377   0.870  0.0983 -0.1125  0.1794
14298W        W29915  12.049  16.571  15.802 -0.0360  0.2900  0.1473
14299W        W29916   7.677  16.858   4.099  0.1973 -0.0282 -0.0453
14300W        W29917   6.452  11.824  12.185  0.0993 -0.2508 -0.0086
14301W        W29918  10.732  16.531  11.912  0.0482 -0.0641  0.1804
14302W        W29919  11.122  16.398  16.434  0.0378 -0.1801 -0.4669
14303W        W29920   2.298   3.004  13.185 -0.2993 -0.1007 -0.2008
14304W        W29921  13.519  14.848   6.491  0.3496 -0.1658  0.3122
14305W        W29922  16.277  10.324   1.074  0.0285 -0.0893  0.0264
14306W        W29923   0.725   6.358   3.636  0.0440  0.1659 -0.0476
14307W        W29924  13.881   6.126   4.942  0.0098  0.2974  0.2388
14308W        W29925   6.738   3.852   3.865  0.2626 -0.1452 -0.5424
14309W        W29926   7.696   2.033   2.670 -0.2317 -0.3043  0.0236
14310W        W29927  13.973  13.053   4.087  0.1246 -0.2388  0.3356
14311W        W29928  13.843   1.386  16.118 -0.2132  0.2052  0.2113
14312W        W29929   4.787   2.064   2.476  0.0051  0.1857  0.0078
14313W        W29930  14.749  17.553   2.161  0.0617  0.1231  0.0203
14314W        W29931   0.150   5.868  13.515 -0.0895  0.1073  0.3729
14315W        W29932  15.420  16.405  14.380 -0.0240 -0.0129  0.0093
14316W        W29933   3.882  10.272   4.602 -0.0100  0.1718 -0.2414
14317W        W29934   9.779  10.270  15.983 -0.0057  0.0562  0.1070
14318W        W29935  10.105  10.189  16.391 -0.1404  0.1333  0.1260
14319W        W29936   5.164   8.892  13.731 -0.0148 -0.0818 -0.2170
14320W        W29937   7.984  13.485  11.524 -0.2378  0.1307  0.1167
14321W        W29938   0.792   2.535   2.480 -0.0955 -0.2074  0.3897
14322W        W29939   2.906   1.881   3.444 -0.2724  0.0067  0.0743
14323W        W29940   0.228   4.772  12.241  0.0177  0.0509  0.1161
14324W        W29941  10.483   6.240   2.184 -0.0156 -0.0544 -0.0128
14325W        W29942  15.143  12.281  15.048  0.0867  0.0463  0.0511
14326W        W29943   5.876  11.480  14.051 -0.0598  0.1086  0.3205
14327W        W29944  16.813   4.473   5.585 -0.0492 -0.1146  0.1455
14328W        W29945  10.755  12.663  15.516  0.0872 -0.0060  0.4399
14329W        W29946  16.186   0.026   3.406 -0.0648  0.0445  0.0408
14330W        W29947   5.121   9.345   0.225  0.0082 -0.1975 -0.1812
14331W        W29948   0.484  13.567  16.244  0.1231  0.0161 -0.2238
14332W        W29949   0.709  11.727   4.898 -0.2140  0.0173  0.0436
14333W        W29950   9.665  14.847   1.352 -0.0516 -0.1635  0.0668
14334W        W29951  10.815   9.076  15.173 -0.0112  0.1294 -0.1579
14335W        W29952  15.574  10.600  12.390 -0.1926  0.1176  0.0047
14336W        W29953   5.480  12.386  14.468 -0.0908 -0.4239 -0.1096
14337W        W29954  10.037  16.471   5.518  0.0322  0.3997 -0.0011
14338W        W29955  17.218  17.391  15.112 -0.2132 -0.5328 -0.0651
14339W        W29956   2.058   0.019   4.922  0.1993  0.2947 -0.3048
14340W        W29957  12.307   1.858   3.287  0.2462 -0.0005 -0.0740
14341W        W29958  11.099  12.200   4.985  0.0070  0.0132  0.2540
14342W        W29959  15.877   6.914   3.520 -0.0339 -0.1745  0.0213
14343W        W29960  15.628  14.967  11.346 -0.1484  0.1710 -0.0256
14344W        W29961  16.514  12.110   3.511 -0.0388 -0.3593  0.1183
14345W        W29962  15.909   3.471  13.794 -0.1360  0.3159 -0.1933
14346W        W29963  12.449  16.329  16.286 -0.0635  0.1664  0.1059
14347W        W29964   9.658   7.361  13.882 -0.1904 -0.0244  0.0167
14348W        W29965   6.027   7.249  13.620  0.2355 -0.1458 -0.1615
14349W        W29966   4.538   4.377   3.239  0.3511  0.1722 -0.0447
14350W        W29967   9.471  13.428   1.959  0.2095  0.1215 -0.0101
14351W        W29968   5.756   7.163   1.488 -0.4315 -0.0854  0.1021
14352W        W29969   4.094   8.690   2.045  0.1485 -0.2366 -0.0124
14353W        W29970   9.571   8.596   0.633 -0.1113 -0.0373 -0.2097
14354W        W29971  14.912   5.903   0.741  0.0761  0.1560  0.0537
14355W        W29972   8.049   1.812   2.947 -0.1389  0.1290 -0.3748
14356W        W29973  13.224   5.089   2.283 -0.0462 -0.1187  0.0057
14357W        W29974   1.212   2.213  15.936  0.3309  0.3111  0.3270
14358W        W29975  12.420   1.899   4.636  0.1016  0.0639 -0.0788
14359W        W29976  10.175   2.117  13.018 -0.1217  0.2459  0.1970
14360W        W29977  10.357  15.803  14.927  0.0380  0.0368  0.2385
14361W        W29978   5.807  16.049   1.209  0.0445 -0.4044 -0.0672
14362W        W29979   6.033  17.724  13.740 -0.0534 -0.1052  0.1539
14363W        W29980  14.900   8.543   3.278 -0.2445 -0.3658  0.2106
14364W        W29981   0.003   4.550   6.909 -0.1576  0.0596 -0.0421
14365W        W29982   3.136   3.973   4.206  0.0978 -0.0134 -0.1135
14366W        W29983  13.626  16.634  12.006 -0.3458  0.0668  0.4257
14367W        W29984  14.999   3.543   5.394  0.0047 -0.3199 -0.0297
14368W        W29985  14.920  13.335  15.741  0.0749  0.0166  0.0640
14369W        W29986  11.228  17.551  10.630  0.1387 -0.1564 -0.1935
14370W        W29987  17.822   6.632  14.175  0.3306 -0.0970 -0.2129
14371W        W29988   3.197   6.861   5.037 -0.2358 -0.0815 -0.5204
14372W        W29989  17.691  16.057   2.176  0.3767 -0.1952 -0.4201
14373W        W29990  18.014  11.145  16.465  0.2682  0.2848 -0.0767
14374W        W29991  15.765   4.915   0.303 -0.3052  0.1908  0.0728
14375W        W29992   9.559   5.758  12.905  0.1345 -0.2073 -0.4317
14376W        W29993  10.638   9.676  14.665 -0.2483  0.0053 -0.1103
14377W        W29994   6.142   2.034   2.604 -0.0437  0.0042  0.0302
14378W        W29995  12.287   9.497  15.160 -0.0852  0.0803  0.0779
14379W        W29996   7.347   2.661   1.775  0.1046  0.1001  0.2296
14380W        W29997   9.048   9.409  14.182  0.2429 -0.0400  0.1842
14381W        W29998  10.615  16.082   1.279 -0.0930 -0.1304 -0.2925
14382W        W29999   5.525   0.993   0.283  0.0259  0.1109 -0.0589
14383W        W30000   4.655   0.681   5.151  0.0916 -0.1573 -0.2319
14384W        W30001   8.689  15.619   5.569  0.1983 -0.0711  0.0552
14385W        W30002  10.760   5.349   2.467 -0.4250 -0.0498  0.0324
14386W        W30003  17.926   8.436  13.433 -0.2244 -0.0955 -0.1597
14387W        W30004  15.517   9.629  16.648  0.3567 -0.1318  0.0412
14388W        W30005   5.821  14.354   5.674  0.0494 -0.1237  0.0617
14389W        W30006   5.029  11.807   3.943 -0.0558 -0.1920  0.0078
14390W        W30007   3.019  17.168   5.866 -0.0874  0.1771 -0.0657
14391W        W30008  16.246  15.614  11.510  0.0670 -0.0500 -0.1519
14392W        W30009   9.688  12.157  16.114  0.3132 -0.3308  0.0726
14393W        W30010  10.879   6.998  14.415 -0.1673 -0.0875 -0.1410
14394W        W30011  15.662  12.906   1.521  0.0198  0.0700  0.0526
14395W        W30012  12.529   0.418  12.057  0.0085 -0.0993  0.0773
14396W        W30013   8.114  10.049  15.274 -0.0587 -0.1686  0.1184
14397W        W30014  11.764   9.367  15.199 -0.1903  0.0804 -0.3495
14398W        W30015   0.664  15.754  15.601 -0.2608  0.4086 -0.1231
14399W        W30016  14.221  16.380   0.620 -0.2342 -0.1335  0.2979
14400W        W30017   4.238  10.376  15.210 -0.0510 -0.2003 -0.2133
14401W        W30018  12.782  10.114   4.025 -0.1795  0.1118 -0.1293
14402W        W30019   6.797  16.762   1.592  0.3067 -0.1448 -0.0293
14403W        W30020  10.901   9.798   0.565  0.0189 -0.2535  0.1952
14404W        W30021  12.184  11.548   0.991 -0.2355  0.3216  0.0263
14405W        W30022  17.258   3.727  15.714 -0.1598 -0.1104  0.1509
14406W        W30023   0.721   3.054   0.574 -0.5719 -0.0123  0.0603
14407W        W30024   9.238  12.022  13.272 -0.0880 -0.0556  0.2813
14408W        W30025  10.150   6.595  13.293  0.1468 -0.4238  0.2894
14409W        W30026  17.922  15.511  11.548 -0.0585  0.1472 -0.2738
14410W        W30027   5.743   4.145  16.190 -0.1992  0.1320  0.1184
14411W        W30028  17.945   8.089  12.950 -0.1797  0.0445 -0.6890
14412W        W30029  17.752   1.763   4.421  0.2582 -0.2449 -0.0352
14413W        W30030   6.287  16.891   1.588  0.1505 -0.0841 -0.3426
14414W        W30031  13.336   7.399  13.622 -0.0837 -0.0320  0.0867
14415W        W30032  15.223  17.574   2.198 -0.3027 -0.0277  0.0756
14416W        W30033   3.474   9.460   0.901 -0.0183 -0.1389 -0.1014
14417W        W30034   8.838  13.269  10.650 -0.0680 -0.0047 -0.1091
14418W        W30035   4.962  12.199  13.287 -0.1883  0.1269  0.0021
14419W        W30036  12.267  17.351  12.933  0.3771  0.1920 -0.0157
14420W        W30037   0.281   8.891   3.325  0.0540  0.2040 -0.1175
14421W        W30038   1.123   8.273   1.992  0.1219 -0.0424  0.0737
14422W        W30039   9.977   3.992  14.103  0.0114 -0.2296  0.0983
14423W        W30040   1.045  15.259   1.506  0.1668 -0.3272  0.0412
14424W        W30041  16.785   1.010   4.555  0.0833 -0.2468  0.0144
14425W        W30042   7.084   5.730   5.183  0.2700  0.4661 -0.1887
14426W        W30043   8.660   5.536   6.342  0.1241 -0.2080 -0.0372
14427W        W30044   8.571  12.578  16.474 -0.1955 -0.0760  0.0112
14428W        W30045  17.284   7.040   5.238 -0.0235 -0.0445  0.0876
14429W        W30046  13.749   9.207   3.420 -0.3499  0.1763  0.3422
14430W        W30047  10.236   3.178  15.371 -0.3281 -0.1479  0.1076
14431W        W30048  10.359   5.352  16.350  0.2883  0.0521  0.0033
14432W        W30049  13.759   8.308   2.214  0.1314 -0.1840  0.2723
14433W        W30050   5.433  12.925  15.577  0.1721 -0.0617 -0.2678
14434W        W30051  15.350  15.596  14.535  0.2396 -0.1241 -0.0114
14435W        W30052  12.656   3.837  14.300  0.3646 -0.0777 -0.1035
14436W        W30053  15.415  11.132   1.915 -0.0221  0.0258  0.2206
14437W        W30054   1.931   1.287  15.796 -0.3589  0.0551 -0.2631
14438W        W30055  17.556  11.404  11.921  0.1198 -0.1057  0.1004
14439W        W30056   6.054  13.027   2.626  0.2139 -0.0923  0.1615
14440W        W30057  10.332   3.488   2.772  0.2776  0.0928 -0.0174
14441W        W30058  16.280   2.983  14.984  0.2050 -0.0108 -0.1098
14442W        W30059   3.614  16.034   3.286 -0.0255 -0.3198  0.0183
14443W        W30060   1.060  12.629   5.860  0.1117  0.2744 -0.2343
14444W        W30061  10.145   1.243   0.342  0.2317  0.1355 -0.3524
14445W        W30062   5.356  15.564  13.288  0.0598 -0.1649  0.2953
14446W        W30063  17.758   6.377   5.319 -0.2013 -0.0106 -0.1499
14447W        W30064  17.544  14.613   5.465  0.0563 -0.2060 -0.1771
14448W        W30065  17.489  17.114  14.749 -0.1101  0.1190 -0.1531
14449W        W30066   8.831   6.400   3.719  0.1617  0.3147  0.0768
14450W        W30067  11.860   7.096  14.698 -0.1622 -0.1915  0.0090
14451W        W30068  13.879   5.701  12.722  0.2538  0.1459  0.1013
14452W        W30069  14.301   5.829  15.923  0.0474  0.1332  0.0294
14453W        W30070   5.032   5.609  10.622 -0.3019 -0.3132 -0.3403
14454W        W30071  11.378  10.716   1.871  0.1651  0.0018 -0.4886
14455W        W30072  17.920   7.829   4.395 -0.3248  0.1702  0.1509
14456W        W30073   7.940   7.629  15.399 -0.1781  0.0047 -0.1994
14457W        W30074  13.059  11.780  14.985  0.5083 -0.1839 -0.0128
14458W        W30075   1.654  17.838  14.572 -0.1766  0.2874 -0.0091
14459W        W30076   8.715  10.563  13.139  0.0744 -0.0687 -0.3432
14460W        W30077   5.490   7.128  15.602 -0.2640 -0.2920  0.2796
14461W        W30078   5.755  13.544   3.510 -0.3647 -0.2750 -0.0516
14462W        W30079  16.995  10.874   1.400 -0.2737  0.0620  0.1435
14463W        W30080  14.224   4.739   0.463  0.1639  0.2222  0.0669
14464W        W30081   5.067   6.066   1.943 -0.0139  0.0379 -0.2153
14465W        W30082   3.952   8.068   2.762 -0.2392 -0.0131  0.2033
14466W        W30083   2.847   5.494  10.764  0.3329 -0.3667  0.4082
14467W        W30084   2.915  12.880  14.243  0.1951 -0.1466  0.0140
14468W        W30085  13.313  17.194  14.293 -0.0046 -0.1777  0.3071
14469W        W30086   6.525   7.761   0.648 -0.0556 -0.1812  0.1594
14470W        W30087  12.960  13.783   3.536 -0.0990  0.0552  0.3000
14471W        W30088   4.361  12.750   2.585 -0.1516  0.0072  0.1347
14472W        W30089   7.919  16.353   3.335  0.0594 -0.1238  0.4185
14473W        W30090  14.715  10.070   4.421  0.0200  0.2976 -0.0395
14474W        W30091  11.953   1.570  13.871  0.2128  0.0022  0.0254
14475W        W30092   0.117   5.771  12.833 -0.2381  0.0230 -0.3871
14476W        W30093   7.341  10.758   1.840  0.0532  0.0958 -0.1074
14477W        W30094   5.588   8.830  13.904 -0.0568  0.0109 -0.4571
14478W        W30095  14.423   1.257   2.810  0.0758  0.0548 -0.2289
14479W        W30096   6.330   3.494  15.734  0.0241  0.1397  0.1795
14480W        W30097   4.704  16.741   2.912 -0.4427 -0.0546  0.0925
14481W        W30098   1.361  14.946   2.438  0.0131  0.2025  0.0577
14482W        W30099  12.535   4.072  11.946  0.0442  0.0127 -0.0615
14483W        W30100  17.017   4.130   1.214 -0.0425  0.0194  0.2340
14484W        W30101   2.463  17.706  13.221 -0.0723 -0.1425 -0.1928
14485W        W30102   1.256  14.884  13.172 -0.0801  0.1773 -0.0095
14486W        W30103   7.245   7.903   5.549  0.3252  0.2023  0.2298
14487W        W30104   6.414  13.707   3.103  0.0043  0.2458 -0.1410
14488W        W30105   3.847   5.088  14.871  0.2651  0.1156  0.1756
14489W        W30106  13.835  11.979  16.063 -0.4267  0.0695  0.0546
14490W        W30107  15.456   2.812  16.016 -0.2879  0.2231 -0.2784
14491W        W30108   9.794   1.511  15.503  0.3895 -0.1219  0.1556
14492W        W30109  12.165  15.912   0.355 -0.0229  0.2210  0.0019
14493W        W30110  13.583   7.652   3.128 -0.0965 -0.0719 -0.0474
14494W        W30111  15.600  12.378  16.773  0.3236  0.1332 -0.2326
14495W        W30112  17.673   2.306  13.849 -0.0543 -0.0599 -0.3376
14496W        W30113   0.836   0.890  15.019 -0.2350 -0.1565 -0.0170
14497W        W30114   2.263  11.588   5.586 -0.1234 -0.0488  0.2010
14498W        W30115  16.010  14.319   2.627 -0.2933  0.0251  0.2671
14499W        W30116   1.355   2.878   4.871 -0.1185 -0.0277 -0.0830
14500W        W30117   0.785   3.328   2.893 -0.1612 -0.3207  0.1441
14501W        W30118   6.253   2.497   2.724 -0.1246 -0.1770  0.0652
14502W        W30119   3.730  17.751   5.552 -0.1413 -0.1009  0.0438
14503W        W30120  10.945   3.994   2.545  0.0187 -0.1845  0.1045
14504W        W30121   8.739   6.639  12.273 -0.0546 -0.0283  0.0789
14505W        W30122  11.581  17.610   1.316 -0.1171  0.1037 -0.0130
14506W        W30123   0.990  16.268  14.933 -0.0358  0.3056 -0.1614
14507W        W30124  17.315   3.184   4.396 -0.0946  0.2620  0.2329
14508W        W30125   5.126  11.652  15.104 -0.0142  0.0474 -0.0705
14509W        W30126  17.131   3.573   5.110 -0.0825 -0.0417  0.0167
14510W        W30127   6.848  12.448  11.543  0.1240  0.5347  0.0285
14511W        W30128  15.599   3.422  16.423  0.1678  0.2456 -0.1275
14512W        W30129   1.482  12.825  15.415  0.0836 -0.2415  0.1782
14513W        W30130   6.146  12.043   5.123  0.0253 -0.2126  0.1523
14514W        W30131   2.837   4.385   5.128  0.1349  0.0054 -0.1784
14515W        W30132   5.565  15.819   2.789  0.0960  0.4042 -0.0759
14516W        W30133   8.099   1.031  12.457  0.0054  0.0733 -0.0463
14517W        W30134   2.392  15.166  13.068 -0.0993  0.1504  0.1706
14518W        W30135  17.653  12.847  14.538 -0.1118 -0.0007 -0.1568
14519W        W30136   0.827  11.670  15.361 -0.2512 -0.2706 -0.1409
14520W        W30137   0.994  17.886  16.028  0.3220 -0.0862  0.0615
14521W        W30138  16.370   3.499   3.549  0.3690 -0.0235  0.1933
14522W        W30139  13.082  17.108   5.082  0.3918  0.0262 -0.1966
14523W        W30140   4.086   0.403  12.213 -0.0721  0.0869 -0.4004
14524W        W30141  13.392   3.986   4.664  0.1980 -0.0319  0.1137
14525W        W30142   9.763   8.570   3.142 -0.2175 -0.1948 -0.1834
14526W        W30143  11.801   0.909   0.379  0.0348  0.1061 -0.1224
14527W        W30144   5.883   8.145  16.183 -0.2079  0.1548  0.0410
14528W        W30145  10.859   6.861   3.513  0.2373  0.3520 -0.0003
14529W        W30146  17.120   9.824  12.831 -0.2125  0.2210  0.0067
14530W        W30147  17.339   5.943  14.615 -0.1707  0.0082  0.0731
14531W        W30148   7.737  14.634  12.990  0.0760 -0.3856 -0.0062
14532W        W30149   5.070   3.538   4.724  0.0218  0.2524 -0.0803
14533W        W30150   2.725   5.855  11.048  0.2966  0.0911 -0.4097
14534W        W30151   6.163  12.499   3.780 -0.2399 -0.0397 -0.3113
14535W        W30152   6.748   9.876   4.290 -0.0438  0.0495 -0.3008
14536W        W30153  15.879   2.412  15.748  0.1786  0.0337 -0.0188
14537W        W30154   6.642   8.849  15.879  0.3835  0.0702 -0.0048
14538W        W30155   3.444  11.350  14.559 -0.2380 -0.1163 -0.1067
14539W        W30156  15.354   4.140  15.400  0.3977  0.0782  0.4457
14540W        W30157   3.070   0.746  15.847 -0.0302 -0.1926 -0.0144
14541W        W30158   6.699  14.800   0.650  0.0941  0.0352 -0.0161
14542W        W30159  15.923  15.498   1.895  0.2535 -0.2563  0.1243
14543W        W30160   8.430   1.485   5.314  0.0150 -0.1207 -0.1161
14544W        W30161  12.128   7.098   3.516 -0.1785  0.1617 -0.1217
14545W        W30162  16.507  16.409   2.623  0.0936 -0.2508 -0.1297
14546W        W30163  11.155   2.829   0.994  0.1803 -0.1144 -0.0260
14547W        W30164  13.273   4.671   1.409  0.1306  0.2392 -0.2290
14548W        W30165  16.014   2.523   4.544 -0.1576 -0.2405 -0.1109
14549W        W30166   0.903  11.977  12.029  0.3184  0.0677 -0.0173
14550W        W30167   4.122  16.533  16.279  0.1463  0.2567  0.4094
14551W        W30168  11.856   7.424  13.552 -0.0031 -0.1296 -0.0762
14552W        W30169  13.193  11.623   0.865  0.0458 -0.2292 -0.2801
14553W        W30170   8.999  10.321   4.714  0.0964  0.0027 -0.1694
14554W        W30171   3.029  16.209   4.029 -0.2871  0.2330  0.1872
14555W        W30172   0.673  16.803  16.230 -0.1422 -0.1152 -0.0652
14556W        W30173   3.597   6.208   3.731  0.0246  0.0227 -0.1413
14557W        W30174   7.316  13.771  12.834  0.0334  0.0329  0.1942
14558W        W30175   3.128  15.305  12.585  0.0826 -0.0269  0.1686
14559W        W30176   5.570   3.628  11.121 -0.1643 -0.2651  0.0441
14560W        W30177   6.781  14.959   3.298  0.0101  0.1078  0.5776
14561W        W30178  17.482  16.293   5.470 -0.1116 -0.2428 -0.3930
14562W        W30179  14.705  13.066   0.401  0.0996 -0.0214 -0.1370
14563W        W30180  12.183  16.553   3.025 -0.0141 -0.1557 -0.0661
14564W        W30181   9.875   8.735  15.369 -0.2774 -0.2365 -0.0076
14565W        W30182   0.368   7.941  14.427 -0.2102 -0.0356 -0.1824
14566W        W30183   2.494  16.390   1.310 -0.1247 -0.1583  0.0617
14567W        W30184  10.321   9.652   2.558 -0.2477 -0.0245  0.0742
14568W        W30185  10.932   4.406   0.519 -0.0098  0.1103  0.2550
14569W        W30186   6.422  14.974  12.628 -0.0237  0.2379 -0.2314
14570W        W30187   1.321   6.753  11.902 -0.1783  0.0169  0.0093
14571W        W30188  16.161  10.475  13.514 -0.0885 -0.0027 -0.1496
14572W        W30189  13.537   4.228  13.235 -0.1663 -0.2488 -0.1461
14573W        W30190   4.169  10.066   2.374 -0.2588  0.2107 -0.2671
14574W        W30191   3.879   2.850  11.535  0.0907  0.2145 -0.3962
14575W        W30192  11.566  11.055   4.166 -0.1403  0.1790 -0.0325
14576W        W30193  16.925   3.409   4.165  0.1631 -0.1935  0.2297
14577W        W30194   0.456  15.515   0.938  0.1694 -0.3580  0.0262
14578W        W30195   0.163   1.884  12.654  0.0988  0.1613  0.2622
14579W        W30196   8.862  12.997   5.160  0.1673 -0.2479 -0.2278
14580W        W30197   8.267   2.813   4.431  0.0351  0.0434  0.0976
14581W        W30198  11.512  10.495   1.173 -0.1416 -0.0739 -0.1411
14582W        W30199   8.671   1.600  15.517  0.3043 -0.2316  0.0819
14583W        W30200   3.491  13.720  15.677 -0.0336  0.0220  0.2548
14584W        W30201   0.417  10.905   4.771  0.3084  0.0175  0.0918
14585W        W30202   9.786  16.942  13.382  0.1161  0.0089  0.0955
14586W        W30203  11.999   0.589   3.818 -0.0540  0.1571  0.1068
14587W        W30204  11.598  13.561   4.169  0.0803  0.0854 -0.0491
14588W        W30205   2.342  12.020  14.413 -0.3387 -0.0039  0.0338
14589W        W30206  14.647  10.582  14.870 -0.1240  0.3380 -0.0460
14590W        W30207  15.700   9.769   0.647  0.1132 -0.0254 -0.1661
14591W        W30208  12.306  12.858  12.254 -0.1998 -0.2228 -0.1164
14592W        W30209   5.908   5.444   1.787  0.0295 -0.0599  0.2518
14593W        W30210   2.201   0.592  15.429  0.1870 -0.3188 -0.0303
14594W        W30211   5.629   1.038  11.819 -0.1627  0.1296 -0.1886
14595W        W30212  12.318   4.151   3.679 -0.1975 -0.1906 -0.3531
14596W        W30213  13.011  14.020  14.736  0.1687  0.1790  0.2166
14597W        W30214  12.934  11.962   3.125  0.0201  0.1457  0.2054
14598W        W30215  14.755   2.228  14.163  0.2211 -0.0531  0.0274
14599W        W30216   9.950   9.104  14.016 -0.2364 -0.4752 -0.1520
14600W        W30217   5.048   1.841  12.390 -0.1363 -0.1199 -0.1383
14601W        W30218  10.405   3.971  14.948  0.0830 -0.0345 -0.5036
14602W        W30219  14.395   5.652   3.640  0.3409  0.0774  0.0712
14603W        W30220  10.049   5.080  13.193 -0.1172  0.2227 -0.0269
14604W        W30221  13.729  14.783   5.049  0.3947  0.1610 -0.0266
14605W        W30222   1.618  10.971  13.089  0.0540  0.0569  0.2757
14606W        W30223   1.563  12.926   3.608  0.5804  0.0063  0.1753
14607W        W30224  15.114   6.375  14.036 -0.1839  0.0274  0.0660
14608W        W30225   7.177   6.273   2.138 -0.3541  0.0148 -0.0580
14609W        W30226   2.349  17.852   4.454 -0.0928  0.0608  0.2502
14610W        W30227   4.136  14.610   5.552  0.0931 -0.1390 -0.3695
14611W        W30228   2.182   7.823  13.433  0.0013  0.3003  0.1310
14612W        W30229  13.758   0.690  14.079 -0.0236 -0.0144 -0.1882
14613W        W30230   7.692   7.649  12.988  0.1940 -0.1476 -0.0003
14614W        W30231   1.604   7.932   3.431  0.1878  0.1672 -0.1175
14615W        W30232   8.197   1.079   0.969  0.2894  0.0192  0.1128
14616W        W30233  11.734  15.178   0.096 -0.1247  0.0853 -0.1730
14617W        W30234   2.215   7.051   2.635 -0.3843  0.0693 -0.0166
14618W        W30235   9.380   5.593   4.726 -0.0170 -0.1230 -0.2240
14619W        W30236   9.360   0.243  15.333  0.1637  0.1260  0.3198
14620W        W30237  11.960   0.482  12.909  0.1388  0.0171  0.0381
14621W        W30238  16.521   6.604   2.904 -0.0660 -0.0835  0.1106
14622W        W30239  16.995  17.665  15.495 -0.0234 -0.0585  0.0894
14623W        W30240  17.665   6.906   0.280 -0.2077 -0.4825  0.0420
14624W        W30241  16.625   7.918   2.171  0.1981 -0.0549  0.1311
14625W        W30242  10.736  12.201  15.917 -0.0394 -0.2012  0.0647
14626W        W30243  17.349   5.310  12.464  0.2708 -0.4058 -0.0469
14627W        W30244  11.053   0.392  14.106  0.0796 -0.1639 -0.1625
14628W        W30245  10.157   0.503  12.368 -0.1633 -0.0759 -0.1230
14629W        W30246  15.097  15.736   0.658 -0.1204  0.0013 -0.1004
14630W        W30247   6.616  14.537  11.854  0.2683  0.3303  0.3373
14631W        W30248   0.523   0.075   3.281  0.0479 -0.0937  0.0879
14632W        W30249   3.361   5.595  12.451 -0.2189  0.0552  0.0820
14633W        W30250  17.147  17.451   3.620  0.0241  0.2359  0.0239
14634W        W30251   4.652   8.082   1.955  0.1395 -0.2084  0.1494
14635W        W30252  11.331   8.575  15.919 -0.1704  0.0014 -0.0940
14636W        W30253   8.038   5.934   4.910 -0.4457  0.2520 -0.1121
14637W        W30254   3.357  15.400   1.614 -0.0774 -0.1362  0.2774
14638W        W30255   5.073   8.333   3.978 -0.0944 -0.1980 -0.0181
14639W        W30256   8.873   1.295   0.012  0.0299  0.0333  0.4382
14640W        W30257   1.979   0.710  16.486  0.1361  0.2339 -0.0754
14641W        W30258  13.619   1.934   5.607 -0.2080 -0.2535 -0.1792
14642W        W30259  16.464  15.979  12.443 -0.2582 -0.0009  0.0055
14643W        W30260   4.595  11.075   1.015  0.5639  0.3820  0.0225
14644W        W30261  15.817  10.528   5.201 -0.2661 -0.4710  0.0204
14645W        W30262  17.901   1.600  12.347 -0.4172 -0.3396 -0.1431
14646W        W30263   0.696  13.847   3.454 -0.2390  0.1524 -0.1390
14647W        W30264   9.139   3.267  15.858 -0.1951  0.0578 -0.0787
14648W        W30265   0.115   4.962  16.718  0.0794  0.3772  0.1520
14649W        W30266   1.828   9.522   2.817 -0.1080 -0.1370 -0.1844
14650W        W30267  11.438   8.417   4.675 -0.2761 -0.0074 -0.4372
14651W        W30268  15.116   6.685   4.001 -0.0946 -0.0778 -0.0489
14652W        W30269   0.029  10.811   3.845  0.0486 -0.0130  0.3314
14653W        W30270   8.638  10.812   4.938  0.0034  0.0069 -0.2178
14654W        W30271   4.693   4.879  12.664 -0.1031 -0.0442  0.0611
14655W        W30272  17.323   8.558  11.981 -0.2829 -0.0849  0.1314
14656W        W30273  16.912  16.302   3.652 -0.3712 -0.0310  0.0829
14657W        W30274   4.212   2.692   4.433 -0.1770  0.2341  0.0421
14658W        W30275   2.868  11.038   3.065 -0.0745 -0.0682  0.0415
14659W        W30276   1.567  12.240  13.947  0.1188 -0.0988 -0.1703
14660W        W30277  16.370   2.504  14.892 -0.0349 -0.0030 -0.3966
14661W        W30278   2.092   5.028  14.317 -0.4462 -0.0424 -0.4722
14662W        W30279   9.984   0.957   1.486  0.1388  0.0701  0.0906
14663W        W30280   1.772  11.628   5.701 -0.0260  0.0450  0.0919
14664W        W30281   4.956   4.943  16.545 -0.1417 -0.3291  0.0819
14665W        W30282   8.532  16.299  14.848  0.0222  0.0704  0.2799
14666W        W30283   6.184   7.254   4.975 -0.2386 -0.0287 -0.0629
14667W        W30284  17.882   6.700  14.832 -0.1808  0.1491  0.0694
14668W        W30285  15.637  10.030   0.173  0.0457  0.2590  0.0533
14669W        W30286  10.739   8.993  16.196  0.2457  0.0837  0.2826
14670W        W30287  11.285  10.497  14.525  0.1095 -0.2663 -0.0467
14671W        W30288   1.801   3.104  14.566 -0.1053  0.0542 -0.3289
14672W        W30289   7.441  14.924  15.176 -0.0054 -0.2287  0.0814
14673W        W30290   4.286   3.188   5.299  0.0996 -0.0808 -0.2279
14674W        W30291  11.657  15.382  15.337 -0.2207  0.0579  0.2456
14675W        W30292   5.788   1.626   1.092  0.0954 -0.0343 -0.2677
14676W        W30293   6.011  14.991  12.901  0.2344  0.2120  0.1833
14677W        W30294  16.109   1.198   6.430  0.0217 -0.0237  0.0382
14678W        W30295  11.305   5.159  13.821 -0.1564  0.0463  0.0978
14679W        W30296  18.029   0.929   3.689 -0.1625  0.1022 -0.0331
14680W        W30297  15.329  10.465   0.022 -0.1284  0.1628 -0.0827
14681W        W30298  12.800   7.401   2.433  0.1804 -0.2513  0.0186
14682W        W30299   8.680   3.827  12.502 -0.2762  0.2388 -0.1052
14683W        W30300  15.668  13.379  12.428  0.0517  0.0009  0.1880
14684W        W30301  17.736   0.007   1.384 -0.0302  0.3958  0.0575
14685W        W30302   1.880  15.337   0.566  0.0450 -0.0928 -0.0418
14686W        W30303   9.422   7.502  10.050 -0.0956  0.0366 -0.0814
14687W        W30304  14.991   1.138   0.055  0.2253  0.2214  0.2618
14688W        W30305   5.309   0.614   0.018  0.1053 -0.1526  0.2879
14689W        W30306   7.745   6.663  11.304  0.0584  0.3021  0.0938
14690W        W30307   6.808  11.533   5.466 -0.2215  0.0404 -0.1431
14691W        W30308   4.898  17.139   3.846  0.1014  0.1673  0.1149
14692W        W30309  12.045   1.947   2.743  0.2268 -0.0370  0.1698
14693W        W30310   8.120  16.014   1.439  0.2967  0.0396  0.1395
14694W        W30311  15.348   2.592   4.910 -0.3901  0.0672  0.2907
14695W        W30312   3.743  18.046   3.540  0.0398 -0.0322  0.0186
14696W        W30313   6.754   6.000  16.582  0.3059  0.1401 -0.0245
14697W        W30314   6.655  16.105   2.144 -0.3127  0.3485  0.0825
14698W        W30315  14.582  16.767  16.688 -0.0818 -0.1582 -0.0188
14699W        W30316  10.247  14.695   1.030 -0.1441 -0.1093  0.1725
14700W        W30317  12.439   0.667   1.652 -0.2518 -0.0044  0.0127
14701W        W30318  15.515   4.733  16.645 -0.4064 -0.0201  0.0783
14702W        W30319   2.661   5.428   0.743 -0.1618  0.1973  0.1952
14703W        W30320  11.531  12.676   1.760  0.0470  0.3577 -0.2394
14704W        W30321   0.397  14.690   4.585  0.0990  0.1143  0.2846
14705W        W30322  15.919  16.857   6.203  0.1481  0.0145  0.2475
14706W        W30323  11.413   2.768  12.762  0.0843  0.0065  0.2260
14707W        W30324   1.594   8.034  14.540  0.1465  0.0339 -0.3826
14708W        W30325   7.220   0.142  11.912  0.0934 -0.0516 -0.5070
14709W        W30326  12.999   7.243   5.764 -0.1461  0.0076 -0.1821
14710W        W30327   5.826  14.267  13.460 -0.2003  0.0600  0.1512
14711W        W30328  15.414  12.358   0.526 -0.1147  0.2903 -0.2344
14712W        W30329   1.833   4.177  12.371  0.0019  0.2135  0.2732
14713W        W30330   2.442   0.901  14.331 -0.3191 -0.3855 -0.3689
14714W        W30331   7.060   4.296   6.229  0.1357  0.1002  0.2066
14715W        W30332   9.548  10.646  14.819  0.3936  0.3095 -0.0466
14716W        W30333   1.619  14.768  11.661 -0.5470 -0.0497  0.2949
14717W        W30334   3.375   2.024   3.952 -0.1546  0.0933 -0.5010
14718W        W30335  13.263  17.704  15.078  0.1136  0.1413 -0.1487
14719W        W30336  10.157   0.698   4.069 -0.0614 -0.0725 -0.1099
14720W        W30337  13.679  13.961   4.490  0.1407  0.1774 -0.0126
14721W        W30338   4.657   6.219  14.235  0.1704  0.0385  0.1326
14722W        W30339  10.906  14.494   3.440  0.0013  0.1439 -0.2027
14723W        W30340  17.681  12.002  14.087  0.0232  0.1687 -0.0660
14724W        W30341   4.160  16.039   2.469  0.3804  0.1022 -0.0699
14725W        W30342  17.408  14.559  12.941  0.0170  0.2221 -0.2377
14726W        W30343   9.608  17.098   5.101 -0.0411 -0.5060 -0.1093
14727W        W30344   6.347  15.931   5.542 -0.2260 -0.0496 -0.4650
14728W        W30345   4.179   1.660   4.505  0.1041  0.2022  0.0637
14729W        W30346  10.600   8.841   2.071 -0.2761 -0.0939 -0.1353
14730W        W30347   6.766   8.990  13.946  0.0197 -0.0240  0.1176
14731W        W30348   8.545   1.916   2.196  0.1795  0.0914 -0.0015
14732W        W30349   0.678   9.350   0.609 -0.1989 -0.1480 -0.1501
14733W        W30350   3.821   8.940   2.349  0.0254 -0.2812  0.1497
14734W        W30351   3.037  13.889   6.073  0.1405 -0.0009 -0.3027
14735W        W30352   2.844  11.922   4.721  0.1841  0.0208 -0.2602
14736W        W30353  17.574   5.968   1.531 -0.0980 -0.2043 -0.0691
14737W        W30354   3.199   4.972   5.790 -0.0668  0.1809 -0.2155
14738W        W30355  12.087  11.709   2.630 -0.3237  0.0840  0.0716
14739W        W30356   5.290   6.100  10.570 -0.0481 -0.0734 -0.1783
14740W        W30357   0.015  17.508  15.609  0.2927  0.2826  0.2438
14741W        W30358   9.015  13.433  12.463  0.1660  0.2797  0.1547
14742W        W30359  16.273   5.237  12.492 -0.1448  0.2004 -0.3695
14743W        W30360   1.340   3.155  14.389  0.4806  0.2959 -0.2971
14744W        W30361  15.901  16.980   4.813  0.0400 -0.1119 -0.2420
14745W        W30362  10.287  16.645  14.580 -0.2110  0.0158 -0.0262
14746W        W30363   7.917   6.126  11.273  0.0834 -0.1925 -0.1459
14747W        W30364   4.770   7.481  12.816 -0.0216 -0.0992 -0.1462
14748W        W30365   1.912   1.230  14.693  0.3007  0.0150  0.3299
14749W        W30366  17.558  12.584   4.212  0.1964  0.0331  0.4225
14750W        W30367   0.473  17.755   0.965 -0.0919  0.1681  0.2749
14751W        W30368  17.317   2.565   2.117 -0.3108 -0.4278  0.2728
14752W        W30369   4.806  17.813   4.301  0.1034 -0.2538 -0.1186
14753W        W30370  12.856  15.562  12.522 -0.1349  0.2716  0.3441
14754W        W30371   2.903  12.938   5.440  0.1530  0.0264  0.1335
14755W        W30372   6.447   3.037   5.114  0.3265  0.0868 -0.1164
14756W        W30373   8.592  10.193   0.395 -0.0663 -0.0681  0.0790
14757W        W30374   1.201   5.646   1.239  0.1332 -0.1258  0.0735
14758W        W30375   4.173  12.196   4.822  0.1898  0.0751  0.1177
14759W        W30376   9.638   9.774   5.881 -0.1074 -0.0902 -0.3677
14760W        W30377  15.785   5.408  16.653  0.0498  0.1639  0.2215
14761W        W30378  16.897  17.907  16.002  0.3129  0.1041 -0.2455
14762W        W30379   7.286  10.380   3.738  0.0833  0.0450 -0.2459
14763W        W30380   8.647   8.708   0.548  0.0672  0.0257 -0.1343
14764W        W30381   1.844  16.263  14.674 -0.3638 -0.2245  0.0144
14765W        W30382  17.187   3.111   5.339 -0.0603 -0.0327  0.0394
14766W        W30383   9.109   3.199   2.225 -0.0510 -0.0907  0.0259
14767W        W30384  15.731  10.608  11.792  0.2592  0.0957 -0.1476
14768W        W30385  11.699   3.465  13.837 -0.1140 -0.1823  0.1372
14769W        W30386  11.184   8.042   1.213 -0.0608  0.2400 -0.1043
14770W        W30387   3.835  17.343   4.520  0.3527  0.1509 -0.0228
14771W        W30388   3.271  12.521  12.197  0.0795 -0.1155 -0.2232
14772W        W30389   1.489   0.923  14.301 -0.0112  0.1380  0.0699
14773W        W30390   4.655  13.686  11.486 -0.1160  0.3424 -0.0218
14774W        W30391  14.948  12.214  11.700  0.2015 -0.0920  0.3290
14775W        W30392  14.893  11.873  12.372 -0.1337 -0.0192 -0.0774
14776W        W30393   6.611   9.300   1.557 -0.2503  0.2762  0.3460
14777W        W30394   5.080   5.700   3.324 -0.1926 -0.2792  0.5118
14778W        W30395  17.162   5.397   4.318 -0.1540  0.0932 -0.0105
14779W        W30396  17.306   0.259   1.125  0.0541  0.3003  0.2445
14780W        W30397  16.770   7.244   3.982 -0.0504 -0.1018  0.1829
14781W        W30398   6.533  14.629   2.396  0.1003  0.1399  0.3742
14782W        W30399  15.977   9.973  14.679  0.1099 -0.1408  0.2068
14783W        W30400  11.993  17.241   1.611 -0.0949 -0.3333 -0.1597
14784W        W30401  15.038   0.924   4.931  0.2902  0.0710 -0.2768
14785W        W30402  14.968  11.950  14.525  0.0565 -0.0705  0.0730
14786W        W30403  17.322  10.772   5.443 -0.1366  0.0090 -0.2744
14787W        W30404  12.843  13.080   2.514 -0.3757  0.2014 -0.0303
14788W        W30405  10.424   6.566  13.713 -0.2918  0.1132 -0.1537
14789W        W30406  13.766  10.646  13.061  0.3206 -0.2545 -0.1646
14790W        W30407  13.485   1.460   2.540 -0.0278 -0.1339  0.1163
14791W        W30408   6.691  18.023   3.001 -0.4201 -0.0023 -0.0346
14792W        W30409   2.719   6.388  16.326 -0.2016 -0.3568  0.0519
14793W        W30410  15.759   8.946  12.893  0.1332 -0.0775  0.0175
14794W        W30411  14.424   4.451  10.720  0.2166 -0.1040 -0.2038
14795W        W30412   0.813   1.554   2.547  0.3659 -0.0914  0.2230
14796W        W30413  11.301   5.107  15.926 -0.2923 -0.0206 -0.1487
14797W        W30414  16.325  14.198  15.847  0.0634 -0.1130  0.1446
14798W        W30415  11.781  14.329   4.391  0.3605 -0.0245 -0.0373
14799W        W30416   5.017   4.011  14.602  0.4622  0.1062  0.1828
14800W        W30417   8.459  11.058  13.248 -0.1666  0.1978 -0.3081
14801W        W30418  10.613  11.387  13.190 -0.1560  0.3345  0.0093
14802W        W30419   1.177  15.440   4.462 -0.1237  0.1362 -0.1802
14803W        W30420  11.934   9.466  13.650 -0.0129 -0.0181  0.0418
14804W        W30421  15.619   2.145   4.727  0.0067 -0.0831 -0.0652
14805W        W30422  12.092   7.833   4.174  0.2247  0.1514  0.1530
14806W        W30423   7.269   6.142  16.550  0.0847  0.2977 -0.0540
14807W        W30424   3.019   8.900  14.988 -0.0135 -0.3419  0.2147
14808W        W30425   6.159  17.781   5.288  0.0735  0.0515 -0.0746
14809W        W30426   1.327  16.308   2.263  0.1147 -0.2290  0.0826
14810W        W30427   1.139   8.503   5.452  0.3308 -0.0024 -0.2807
14811W        W30428   4.888  12.219   4.781 -0.0709  0.1472  0.3087
14812W        W30429  16.636   8.308   3.915  0.0358 -0.1429 -0.1552
14813W        W30430   4.037  11.951   2.832 -0.1701 -0.1686 -0.1368
14814W        W30431   8.504  16.595   4.659  0.0240  0.2777  0.0397
14815W        W30432  14.091  15.263  14.294  0.2118 -0.0726 -0.1325
14816W        W30433   9.757   5.229  11.197  0.2202  0.0124  0.0767
14817W        W30434  14.457   4.429   5.902 -0.0170  0.2391 -0.2113
14818W        W30435   0.165  15.564  11.106  0.0128  0.0707 -0.3538
14819W        W30436   0.601   0.620   5.834 -0.0888 -0.2200  0.1166
14820W        W30437   5.563   3.061   5.874 -0.3459 -0.1014 -0.1199
14821W        W30438  14.882   0.422  12.776  0.1922  0.0265  0.2798
14822W        W30439   3.353   2.489   2.824  0.0379  0.1062 -0.2680
14823W        W30440  12.129   2.403   0.686  0.0885  0.2747 -0.3562
14824W        W30441  16.158   3.900   4.670  0.2610  0.0895 -0.1408
14825W        W30442  16.644   2.436  15.273 -0.0022 -0.0858  0.0261
14826W        W30443   8.917  12.060   3.390 -0.0187 -0.2852 -0.4152
14827W        W30444   6.390  17.830  13.314  0.0751 -0.0489  0.3156
14828W        W30445   4.748   7.088   4.861  0.1882 -0.2296 -0.1954
14829W        W30446  13.420   0.023   5.732 -0.1302  0.2644  0.0755
14830W        W30447   7.591  12.475   4.584 -0.1446  0.1857 -0.0485
14831W        W30448   9.185   1.345  12.830 -0.0281 -0.0551  0.1952
14832W        W30449  13.367  17.732  16.486  0.3404 -0.0292 -0.1666
14833W        W30450   8.558   3.410  16.684  0.2108  0.0545 -0.4569
14834W        W30451  17.607  10.408   5.637 -0.2034  0.1540  0.2538
14835W        W30452  14.492   4.974  13.556  0.3671 -0.2009 -0.1312
14836W        W30453   0.347   6.216   3.290 -0.1122  0.0296  0.1253
14837W        W30454  15.364   6.296  15.482 -0.3587 -0.2403 -0.0980
14838W        W30455  16.955   5.511  11.948 -0.1361 -0.1593  0.3093
14839W        W30456  12.142   3.579  15.005 -0.0794 -0.2995 -0.2824
14840W        W30457   5.947   5.031  14.459 -0.0740  0.3510  0.0530
14841W        W30458   3.591   1.739  11.969 -0.1108 -0.1398 -0.1181
14842W        W30459   9.724  15.644  16.720 -0.0590  0.1606 -0.0712
14843W        W30460   4.324  13.800   4.417  0.2314 -0.0026  0.2336
14844W        W30461   1.992  17.541   4.022 -0.0952 -0.0775 -0.1382
14845W        W30462   8.262   2.253   4.253  0.3465 -0.1689  0.0410
14846W        W30463   1.021  11.821   3.977  0.0092  0.0944  0.0481
14847W        W30464  11.091  11.669   0.162  0.3179  0.0066  0.0434
14848W        W30465   0.669  16.931   0.370 -0.1236 -0.1891 -0.1238
14849W        W30466   3.754   7.650  16.004  0.1393  0.1618 -0.3275
14850W        W30467   7.302  10.831  12.480  0.0291 -0.1917 -0.3227
14851W        W30468  14.259   1.316   6.619  0.3140  0.0723  0.2972
14852W        W30469  15.582  13.042  14.966  0.2182  0.0493  0.1769
14853W        W30470   4.169   0.002   5.270 -0.0850 -0.0006  0.1854
14854W        W30471  17.857   5.811  15.376  0.1103 -0.1147  0.2976
14855W        W30472  12.201   9.027   4.474 -0.2821  0.0917 -0.2337
14856W        W30473   0.608   7.240  14.899  0.3037 -0.0330 -0.1903
14857W        W30474  15.224  15.058   2.465  0.0068 -0.3376 -0.0555
14858W        W30475   6.303  12.043  13.945 -0.1948  0.2574 -0.1127
14859W        W30476   7.996  16.000   0.434  0.2306 -0.3380 -0.2108
14860W        W30477  16.239   4.669   1.345  0.4846  0.1264 -0.0319
14861W        W30478  13.112   9.747  15.896  0.2429  0.1057 -0.4050
14862W        W30479   4.664   4.281   4.230 -0.1701  0.2902  0.0335
14863W        W30480  15.621  12.198  15.512  0.1704  0.2095  0.1494
14864W        W30481   2.950   4.390   1.538  0.1966  0.1123  0.1459
14865W        W30482   5.401  15.602  13.798  0.1271 -0.4525  0.1566
14866W        W30483   8.366  16.101   2.123 -0.1457 -0.2608 -0.1139
14867W        W30484   2.486  10.514  14.231 -0.1178  0.3109 -0.2528
14868W        W30485  15.611   1.338   1.961  0.3010  0.0779 -0.0091
14869W        W30486   5.906   2.279  11.995 -0.2241  0.0756  0.1473
14870W        W30487  13.293   6.653   5.765 -0.4388 -0.2887  0.1725
14871W        W30488  15.769   4.635  13.312 -0.0986 -0.1272 -0.1216
14872W        W30489  10.673   4.221  15.305 -0.4531  0.1574 -0.1334
14873W        W30490  16.548  13.608   4.414  0.0166 -0.0084 -0.0888
14874W        W30491   7.218   2.772  12.977  0.1860  0.0138  0.0309
14875W        W30492   5.674  15.301  15.200 -0.0734 -0.1786  0.1968
14876W        W30493   4.163  10.429  12.238 -0.1589 -0.4758  0.0149
14877W        W30494  14.054   8.860  16.407  0.1285  0.1403 -0.1537
14878W        W30495  11.802   0.919   3.551  0.0437  0.2421 -0.0140
14879W        W30496   5.341   6.285  13.227 -0.3485 -0.1416  0.1016
14880W        W30497   6.916   8.777  16.625 -0.2858 -0.5307  0.0098
14881W        W30498  14.623   4.681   1.172  0.1135  0.2507 -0.1973
14882W        W30499   5.530   5.478  12.893  0.0122 -0.0059 -0.1871
14883W        W30500  14.503   0.960   1.049 -0.2100  0.0518  0.1218
14884W        W30501   8.909   0.191  15.549 -0.1474 -0.0279 -0.0143
14885W        W30502  10.435   4.435  12.502 -0.1589  0.1083 -0.0608
14886W        W30503  11.905   3.317  11.929 -0.0893  0.1915 -0.2037
14887W        W30504  11.971   7.466   5.295 -0.2285 -0.0976  0.2249
14888W        W30505   2.641   5.117   2.896 -0.2527  0.2883 -0.1940
14889W        W30506  16.521   1.196  15.152 -0.1530  0.2188  0.2437
14890W        W30507  14.920   8.109  11.880 -0.3332 -0.0013  0.2440
14891W        W30508   5.842  16.026   2.240  0.2124 -0.3727  0.0001
14892W        W30509  16.035  17.473  16.399  0.2182 -0.2162  0.1457
14893W        W30510   2.811   8.612  13.513 -0.0491  0.1312  0.2091
14894W        W30511  13.570   6.694  15.196  0.2533 -0.0325 -0.2103
14895W        W30512   9.307   2.734   1.383  0.1830 -0.0441 -0.3740
14896W        W30513   8.427   8.052   0.820 -0.0032  0.0785 -0.0358
14897W        W30514  13.085   8.501  15.450 -0.0652  0.2069 -0.1218
14898W        W30515   5.602   4.290   1.359 -0.1185 -0.3227 -0.2464
14899W        W30516   5.389   5.484  16.347 -0.1802  0.2202 -0.0739
14900W        W30517   0.136   6.831  13.661  0.0534  0.1395 -0.0293
14901W        W30518  10.620  11.996   1.695  0.3371 -0.0531  0.1323
14902W        W30519   1.082  11.133   5.955 -0.0940  0.0846 -0.2143
14903W        W30520  13.767   1.900   3.725  0.2359 -0.5347 -0.1864
14904W        W30521  13.193   6.787  12.904  0.0573  0.0418  0.2660
14905W        W30522   2.668  10.904   2.035 -0.3914  0.2303  0.0702
14906W        W30523  17.135   6.351  16.446 -0.0293  0.0307  0.0003
14907W        W30524  13.781   2.435   4.221  0.1472  0.0579  0.1109
14908W        W30525  11.504  12.829  14.048  0.2734 -0.1657 -0.2010
14909W        W30526  16.132   2.099  12.463 -0.4904 -0.1305 -0.2578
14910W        W30527   2.486  15.854   1.496  0.0767 -0.1029  0.0080
14911W        W30528  13.946  15.253   3.513  0.3724 -0.1663  0.1816
14912W        W30529   3.125  13.780  14.578  0.0726  0.0896  0.0562
14913W        W30530   8.697  16.370  15.399  0.1408  0.1507 -0.4434
14914W        W30531   1.280   9.060   2.073 -0.0630 -0.0333 -0.0542
14915W        W30532   1.346  10.752   4.847  0.0610 -0.0511  0.3769
14916W        W30533  12.643   2.731   0.527  0.0040 -0.3281  0.1377
14917W        W30534  11.929   2.888  14.629 -0.0300 -0.3168 -0.0810
14918W        W30535   8.674   8.088   1.339  0.0133 -0.2165 -0.1073
14919W        W30536   1.288   3.059   0.553 -0.1003 -0.1452 -0.1259
14920W        W30537  14.995  16.137  12.459  0.1109  0.2123 -0.0365
14921W        W30538   8.520   2.395   0.285  0.0694 -0.0509 -0.1577
14922W        W30539   5.769  13.591  14.699 -0.2079  0.2760 -0.2340
14923W        W30540  10.374   1.267   1.908 -0.0028 -0.1899 -0.1951
14924W        W30541   2.744   7.744  16.111 -0.1383  0.1336 -0.0386
14925W        W30542  14.600   4.971  12.148 -0.4090  0.0402  0.2507
14926W        W30543   9.141   3.944  13.396 -0.1336  0.0455  0.0334
14927W        W30544  15.670  14.593   4.509 -0.2267  0.0585  0.1834
14928W        W30545   8.447   6.899   5.242  0.0225 -0.3131 -0.1647
14929W        W30546   2.013   7.180  13.889 -0.0554  0.1129 -0.3121
14930W        W30547  15.745   3.171   3.295  0.0424  0.2400  0.1080
14931W        W30548   3.148  12.933   2.795  0.1161 -0.0906  0.2743
14932W        W30549   6.039  13.979   3.391  0.2319 -0.0012  0.2090
14933W        W30550   5.952   8.260  15.406  0.4529  0.0134 -0.1960
14934W        W30551   9.492  12.727  15.953 -0.2446 -0.0235 -0.3867
14935W        W30552   7.805   6.551   5.324 -0.3875  0.0864  0.1987
14936W        W30553   3.157   7.963  11.947  0.1291  0.4005 -0.0784
14937W        W30554   2.805  15.439  13.396  0.1056  0.0629 -0.2286
14938W        W30555   6.345  10.988   3.008  0.1963  0.1407 -0.1378
14939W        W30556  13.589   7.698   2.234 -0.0343 -0.4474  0.1465
14940W        W30557  15.309  16.342   3.625 -0.0347 -0.0216  0.2248
14941W        W30558  12.563  15.749   0.636 -0.0301 -0.0928 -0.1561
14942W        W30559  15.847  11.616  12.163 -0.5196  0.1554  0.2330
14943W        W30560  12.840  15.089  15.083 -0.3174  0.4055  0.2368
14944W        W30561  14.809  17.118  10.950  0.4157  0.0574  0.3288
14945W        W30562   3.245   3.105  13.217 -0.1738 -0.2155  0.0700
14946W        W30563  14.708   1.652  12.945  0.1517 -0.0134  0.1552
14947W        W30564  11.634   0.853  13.429 -0.4153  0.2130 -0.3710
14948W        W30565   6.389   0.859  15.389 -0.0246 -0.0898 -0.0714
14949W        W30566  17.107  14.601   4.644  0.3089  0.0741  0.1661
14950W        W30567   4.871   3.637   3.755 -0.1116 -0.0124 -0.2251
14951W        W30568  13.403   6.241  15.929 -0.2720  0.0101  0.0777
14952W        W30569   6.820   7.987   1.611  0.1705 -0.0016 -0.1223
14953W        W30570  14.644   5.126  11.667 -0.0784 -0.4527  0.3728
14954W        W30571   9.568   3.988   2.111  0.2328 -0.0554 -0.0561
14955W        W30572  10.668   1.362   0.291  0.2356  0.0396 -0.4849
14956W        W30573   8.771   6.924   3.881  0.1318  0.0460 -0.1275
14957W        W30574   3.278  12.785  15.186 -0.1333  0.3481 -0.1588
14958W        W30575   4.021  15.153   4.565  0.1687 -0.0165  0.1888
14959W        W30576  14.960   4.869  16.580  0.1909 -0.1802  0.1140
14960W        W30577   7.125   3.056  12.161  0.0844  0.3992 -0.0877
14961W        W30578  11.748   9.264  14.657  0.3433  0.4050  0.2309
14962W        W30579  16.750  11.258  12.492  0.2015 -0.0023 -0.1137
14963W        W30580   7.885  14.242  12.674 -0.1261 -0.0075 -0.0053
14964W        W30581   0.489  11.999  15.198 -0.0755 -0.1848  0.1747
14965W        W30582  17.150  17.029   5.464  0.1913  0.0124  0.1507
14966W        W30583  17.853   8.709   3.222  0.0443 -0.2533  0.1151
14967W        W30584  13.757   4.574  15.908  0.1933  0.3744  0.1675
14968W        W30585   6.414   2.870   4.653  0.1871 -0.3311  0.0381
14969W        W30586   6.347   5.241  15.308 -0.2194 -0.0225 -0.2417
14970W        W30587  15.900  14.970   1.885 -0.0304 -0.0218  0.2313
14971W        W30588  10.684  14.486   0.798 -0.1369 -0.1158 -0.1574
14972W        W30589   1.138   8.910  16.634  0.1284  0.0548  0.0246
14973W        W30590   9.429  14.922   1.849  0.0552  0.1096  0.1422
14974W        W30591   5.298  12.625   3.538 -0.0832 -0.1949 -0.2427
14975W        W30592  15.623  11.148  13.182  0.0915  0.1689  0.2393
14976W        W30593  17.921   5.642   3.798  0.0285 -0.1722  0.0874
14977W        W30594   8.990  11.171   1.139 -0.2946  0.2395  0.2274
14978W        W30595  11.858   1.117   6.120  0.1841  0.2300  0.1102
14979W        W30596   1.966   3.130   6.163  0.0411  0.1268 -0.2869
14980W        W30597   4.522  16.970  12.322 -0.1640  0.3181 -0.2083
14981W        W30598  10.728   1.786   3.058 -0.3775  0.1143  0.0466
14982W        W30599   6.452   3.360   4.124 -0.2320 -0.2309 -0.2781
14983W        W30600  15.731   3.725  11.914  0.0905 -0.0892  0.1631
14984W        W30601  17.076   0.036   0.667  0.0047  0.1431 -0.3675
14985W        W30602  11.067  13.709  11.881  0.0839  0.3972 -0.1194
14986W        W30603  15.827   0.315   1.366 -0.3567 -0.0215  0.2833
14987W        W30604   3.047  16.793   0.217 -0.1536 -0.1677  0.2258
14988W        W30605   6.917   9.636   2.447  0.2503  0.0901 -0.3623
14989W        W30606   4.093   5.404  13.040 -0.2164 -0.2211 -0.2557
14990W        W30607   1.191   3.244  16.414 -0.0917  0.1015 -0.0213
14991W        W30608  15.605  10.914   1.503 -0.1505  0.0768  0.2027
14992W        W30609   2.024   0.501   2.851  0.0979  0.0132 -0.1442
14993W        W30610   9.636   4.864  13.591  0.1008 -0.1249  0.1669
14994W        W30611   2.847  17.689  16.693 -0.0317 -0.1267 -0.1504
14995W        W30612  13.352  14.274   0.509 -0.2239 -0.2204  0.3606
14996W        W30613  14.923  13.945  15.871  0.0925 -0.1693  0.0522
14997W        W30614  11.479  12.504   4.735  0.0699  0.4573 -0.2720
14998W        W30615   2.225  16.889   4.580  0.3970  0.3332  0.1858
14999W        W30616  14.213  14.495  13.014 -0.2934 -0.2920  0.2735
15000W        W30617   2.392   3.756  16.111 -0.1214 -0.2290 -0.1588
15001W        W30618   8.779   4.896  11.020 -0.1184  0.0766  0.2312
15002W        W30619  11.289  14.441   1.464  0.2790 -0.1221  0.0290
15003W        W30620  17.135   8.053   4.887 -0.0576 -0.0811 -0.0374
15004W        W30621  15.033   1.637  15.079 -0.0144  0.0036 -0.1001
15005W        W30622   8.243  17.954  11.784  0.0632  0.1101 -0.1604
15006W        W30623   4.690   4.596   4.892 -0.1392 -0.0468 -0.0982
15007W        W30624  14.002  10.737   3.264  0.0778 -0.1021 -0.1845
15008W        W30625  16.389  14.640  12.345  0.1469 -0.1484 -0.1693
15009W        W30626  15.465   8.469  13.715  0.0724 -0.2798 -0.1883
15010W        W30627  16.516  11.979   5.708 -0.1427 -0.1630  0.3532
15011W        W30628   3.500  17.527  11.486 -0.0202 -0.1452 -0.0748
15012W        W30629   2.407   2.077   0.588  0.0418  0.1409  0.0805
15013W        W30630   3.895   0.908   2.384 -0.3050  0.1255  0.0681
15014W        W30631   5.887   8.008  11.471 -0.3582  0.4383 -0.0485
15015W        W30632  11.327   6.517  15.097 -0.3676 -0.1630 -0.0012
15016W        W30633   0.540   5.038  14.954 -0.1605  0.1267  0.0271
15017W        W30634   7.268   4.535   1.269 -0.2584  0.1134  0.0564
15018W        W30635   5.617  12.283   4.029 -0.0788  0.0801  0.1533
15019W        W30636  13.289  11.664  11.476  0.0544 -0.1313 -0.1790
15020W        W30637  12.610   3.034   4.033  0.1707  0.1241 -0.2066
15021W        W30638   1.161  14.339   1.337 -0.0995 -0.1108  0.0303
15022W        W30639  17.746  16.351   3.904 -0.0285 -0.0351  0.0310
15023W        W30640  12.164   8.640   1.447 -0.3755  0.2046 -0.0430
15024W        W30641   2.720  15.681  14.482 -0.0717  0.0274 -0.1925
15025W        W30642  13.241  13.037  16.544  0.3612  0.0265  0.1275
15026W        W30643  16.458   9.977  12.160  0.0364  0.2549  0.1366
15027W        W30644   9.638   8.995  12.807  0.0779  0.2545  0.0341
15028W        W30645  15.276  11.329   2.400  0.1097  0.3453  0.0747
15029W        W30646   8.101   1.743  15.403 -0.0672 -0.3452  0.2608
15030W        W30647  15.293   9.044  13.035  0.0053 -0.0163 -0.1544
15031W        W30648  12.074   8.435   3.357 -0.2751  0.1088 -0.1182
15032W        W30649  16.273  14.390  14.004 -0.0268  0.2522 -0.0267
15033W        W30650  15.831  13.880   5.122 -0.0047  0.0651  0.1374
15034W        W30651   9.183  13.349   3.104  0.1305  0.0180  0.0976
15035W        W30652   5.314   8.758   2.134 -0.1765  0.2064  0.1921
15036W        W30653  11.946  11.539  11.621  0.0641 -0.1549  0.0822
15037W        W30654  12.235   8.873  12.479 -0.0992  0.2904 -0.1381
15038W        W30655   5.281  15.052   1.453 -0.3799 -0.1437 -0.1261
15039W        W30656   3.291  12.929   4.800 -0.1567 -0.1002  0.0951
15040W        W30657  10.166   4.437  13.064  0.1577 -0.1483 -0.1895
15041W        W30658  14.030   7.172   5.650  0.0107  0.3443  0.1979
15042W        W30659   5.712  14.427  16.196 -0.0617 -0.0061  0.0013
15043W        W30660   2.973  17.671  12.146  0.2878  0.1489  0.2057
15044W        W30661   1.835   3.622   5.350  0.1260  0.0578  0.3335
15045W        W30662   9.881  16.520  12.424 -0.0794 -0.1950 -0.0328
15046W        W30663   4.924   6.316  12.271 -0.3014 -0.1558  0.0835
15047W        W30664   6.063  10.070  14.412  0.2803  0.1623  0.0903
15048W        W30665  11.406   2.569   2.896  0.3971 -0.0360 -0.1135
15049W        W30666   9.606  10.218  13.436 -0.1245 -0.0244 -0.0140
15050W        W30667   2.500  14.593   0.295  0.1956 -0.0259  0.0185
15051W        W30668  15.222  11.961  14.058 -0.2103 -0.0177  0.1298
15052W        W30669  16.496  17.283   4.971 -0.1474 -0.1162 -0.0243
15053W        W30670   5.165   9.190   3.972  0.2897  0.1944  0.1522
15054W        W30671   6.785  14.023   1.629 -0.1651  0.1606  0.3239
15055W        W30672   9.724   9.594   2.832 -0.1811  0.2819 -0.2305
15056W        W30673   2.127   7.363   3.900 -0.0583  0.1487  0.1979
15057W        W30674  16.682   2.618   4.625  0.0074 -0.0562  0.1713
15058W        W30675   8.650   9.569  11.027  0.0405  0.0080 -0.0817
15059W        W30676  13.392   1.855   6.118 -0.0564  0.0233 -0.2949
15060W        W30677  17.878  13.773   1.072 -0.0338  0.1466 -0.1319
15061W        W30678  12.980  16.096  13.572  0.0886 -0.1807 -0.3935
15062W        W30679  12.496   0.112  11.595  0.2647  0.0106 -0.1985
15063W        W30680  13.945  13.917   5.377 -0.1578 -0.0718  0.1412
15064W        W30681   8.842  10.072   5.680  0.0515  0.0104  0.1756
15065W        W30682  13.960  11.160   0.577 -0.2807 -0.0346 -0.0468
15066W        W30683   7.911  16.351  14.986  0.3326 -0.1929 -0.0627
15067W        W30684  17.125  17.749  13.497  0.0533  0.0892 -0.1779
15068W        W30685  17.144   4.957  15.297  0.1470 -0.0231  0.0087
15069W        W30686  12.191  14.664  10.325  0.0022 -0.2540  0.0325
15070W        W30687  12.612  17.212  12.567  0.0385 -0.0185 -0.0105
15071W        W30688   8.829  11.991  16.525  0.1524 -0.0767 -0.4741
15072W        W30689   7.325  11.557   0.523  0.1362  0.0508  0.0943
15073W        W30690   2.399  11.238   3.852  0.1930 -0.0812 -0.1044
15074W        W30691   8.946  14.495   1.971 -0.0646 -0.1065  0.2404
15075W        W30692   3.054   8.072  11.220 -0.1599 -0.0158  0.0050
15076W        W30693  14.870   0.844   3.191 -0.0964 -0.2292 -0.2547
15077W        W30694   3.859  13.637   0.314  0.3288  0.2011 -0.0050
15078W        W30695  15.983  16.195  12.542 -0.1731  0.1079  0.2173
15079W        W30696   4.256  11.778  12.302  0.1934 -0.0720  0.2859
15080W        W30697  13.992  15.547  13.159  0.2914 -0.0031  0.0939
15081W        W30698  15.994   9.102  15.752  0.0671 -0.0939  0.0849
15082W        W30699  14.432  11.488  13.919 -0.0592  0.0911  0.3790
15083W        W30700  12.141  17.452   4.880  0.1861  0.0458  0.1565
15084W        W30701   7.016  13.043   4.138  0.1761 -0.0066 -0.1800
15085W        W30702  16.795   3.340   2.311  0.1246  0.1367 -0.2105
15086W        W30703  11.256   3.825  12.902 -0.0227  0.0313  0.0657
15087W        W30704  12.335  16.256  13.397  0.1675 -0.1113  0.0341
15088W        W30705  14.979   8.201  13.682 -0.2138 -0.0152 -0.1674
15089W        W30706  14.250   3.694   4.109  0.1981  0.2798 -0.0953
15090W        W30707  13.812  14.091  13.523  0.1272 -0.0877  0.1883
15091W        W30708   6.763  14.012  13.685  0.0345 -0.2314  0.0491
15092W        W30709  10.124  15.091  13.521 -0.0894  0.0826 -0.1263
15093W        W30710   9.746   7.856  14.432  0.0981 -0.0084 -0.2127
15094W        W30711   2.537  13.035   1.908  0.2016  0.0597  0.1285
15095W        W30712   6.798   9.318   4.177  0.2085 -0.1335 -0.3716
15096W        W30713   9.055  14.719   1.518 -0.1688  0.2489  0.0928
15097W        W30714   3.970   6.539   5.160  0.0067 -0.3028 -0.0829
15098W        W30715   3.513  13.846   3.772  0.1875  0.0049 -0.3622
15099W        W30716   6.440   1.142  13.367  0.0057  0.0240 -0.0492
15100W        W30717   8.819  10.228  15.596 -0.0271 -0.0147 -0.2084
15101W        W30718   5.887   6.006   0.002 -0.0884 -0.0293  0.3670
15102W        W30719   8.280  15.146   2.118  0.1924 -0.0694  0.3306
15103W        W30720   4.159   8.191   4.822 -0.3513  0.0272 -0.0037
15104W        W30721  15.380  12.269   2.271  0.1207 -0.2432 -0.0626
15105W        W30722   4.736   4.967  16.100  0.0794 -0.0276  0.2661
15106W        W30723   4.566  17.844  15.451  0.2591  0.0785 -0.1532
15107W        W30724   1.135   8.395  14.178 -0.0380 -0.1770  0.1185
15108W        W30725  12.295  13.585  12.992  0.1197  0.4975 -0.3425
15109W        W30726  12.308   3.857  13.894  0.0215  0.0905  0.0673
15110W        W30727   2.003   6.119   0.207  0.1371  0.0948  0.0923
15111W        W30728  11.383  13.934   1.534  0.3978  0.1440  0.3325
15112W        W30729  13.732   3.361   4.163 -0.0667  0.0673  0.2375
15113W        W30730   3.272  17.853  13.201  0.0967  0.1510  0.0020
15114W        W30731   5.052   9.411   2.615  0.2026 -0.1239  0.4263
15115W        W30732   0.560   8.787  12.388 -0.0340  0.3422 -0.0864
15116W        W30733   5.262   7.227  12.279 -0.0583 -0.0183 -0.1712
15117W        W30734  12.700  11.324   4.458 -0.3030 -0.1299  0.2426
15118W        W30735  14.633  17.667   1.667 -0.1206  0.1083 -0.1234
15119W        W30736  15.765  17.955  13.988  0.1532  0.1591  0.0910
15120W        W30737   1.628   9.103   1.611  0.0238  0.2995 -0.0377
15121W        W30738  14.875   8.784   5.467  0.3760 -0.0514  0.0317
15122W        W30739  13.344   6.969   1.666  0.0918  0.1029 -0.0720
15123W        W30740   3.747   1.657  15.423 -0.3359  0.1918 -0.1228
15124W        W30741  10.035  16.837  10.679 -0.0489  0.0775  0.0541
15125W        W30742   7.907   1.343  11.544 -0.0513 -0.1002  0.0130
15126W        W30743  17.076   2.838   0.086  0.2941  0.0900 -0.1405
15127W        W30744  15.130  10.384   2.357 -0.0223 -0.1510 -0.4129
15128W        W30745  11.165  13.021  13.001  0.1689 -0.0012 -0.0690
15129W        W30746  11.227  17.155   3.971 -0.4014  0.0208 -0.1372
15130W        W30747  16.194  17.915  15.277 -0.0934  0.2135  0.1164
15131W        W30748  14.577  14.645   1.139  0.0807 -0.0094  0.0198
15132W        W30749   9.041  14.574  14.488 -0.0647  0.2813 -0.1348
15133W        W30750   5.520   9.709  15.070  0.1843  0.0802  0.0707
15134W        W30751   0.768  10.467  12.768  0.1405  0.1129  0.4158
15135W        W30752  17.177  17.468   1.443  0.0985  0.1668 -0.0693
15136W        W30753  10.887   0.727  12.052 -0.1730 -0.1908  0.3152
15137W        W30754  11.948   3.688   0.450 -0.1667 -0.1473  0.0940
15138W        W30755  11.280  13.974  11.491 -0.1664 -0.0975  0.2831
15139W        W30756   1.689  11.215   1.823  0.2260  0.3104 -0.0358
15140W        W30757   3.373   9.415   4.478  0.0272 -0.3504 -0.2286
15141W        W30758   5.505  14.542   6.214 -0.0043  0.2647  0.1626
15142W        W30759   8.885   9.821   0.548 -0.3642  0.2155  0.2661
15143W        W30760   3.287  10.416   5.542  0.2077  0.0568  0.0073
15144W        W30761   2.004   4.419   5.598  0.2776  0.0495 -0.0815
15145W        W30762  13.846  13.856  12.694 -0.3428 -0.0596 -0.0718
15146W        W30763   8.343   6.582   4.728  0.0312  0.0115 -0.0284
15147W        W30764   1.324  14.073  13.753 -0.1823  0.0575  0.2368
15148W        W30765  10.403   7.780  13.689  0.0117  0.5447 -0.1498
15149W        W30766  13.466  14.737   2.918 -0.0751  0.0546 -0.0209
15150W        W30767   7.784   8.570   0.997  0.1039 -0.0272 -0.0937
15151W        W30768   2.755   2.842  12.017  0.0804 -0.0383  0.3332
15152W        W30769   8.156   1.020   2.117 -0.1535  0.2149 -0.0613
15153W        W30770  12.038   0.704   4.822 -0.2625 -0.2845  0.1045
15154W        W30771  15.915  17.120   0.980 -0.0096 -0.1672  0.0370
15155W        W30772  10.818   4.771  15.306 -0.0548  0.0306 -0.1104
15156W        W30773  10.573  14.511  11.122  0.2384 -0.1599 -0.1818
15157W        W30774   9.258   4.917   5.429 -0.2212  0.1786 -0.1807
15158W        W30775   4.687  10.614  16.132 -0.4380  0.0650 -0.1876
15159W        W30776  10.459  14.432  14.317 -0.2051 -0.1750  0.2062
15160W        W30777  10.353   8.495  15.383 -0.1317  0.0748 -0.1043
15161W        W30778  11.739   3.655  12.352  0.2443 -0.0553 -0.4510
15162W        W30779   3.402  14.884  16.190 -0.2104 -0.0389  0.2283
15163W        W30780   3.153  14.438  16.490  0.0320  0.0556  0.4165
15164W        W30781  15.140   2.036   4.067  0.5948  0.3773 -0.0040
15165W        W30782  13.158  14.552  15.923 -0.1110 -0.3048  0.1471
15166W        W30783  16.315  15.131   1.486 -0.1815  0.2499 -0.3090
15167W        W30784  13.644  16.803  16.390 -0.0346  0.0646  0.0934
15168W        W30785   4.307  14.910   0.892  0.0221 -0.0917  0.0215
15169W        W30786   1.503   3.218   3.526  0.0573  0.1136  0.0119
15170W        W30787  10.546  17.854  15.102 -0.1371  0.1127 -0.1074
15171W        W30788  16.597  17.599   2.192  0.0461 -0.0704  0.0764
15172W        W30789  13.723  11.518  16.265  0.2082  0.1703 -0.0378
15173W        W30790  15.332  14.521   1.354 -0.0058 -0.1267  0.1136
15174W        W30791   9.573  13.455  15.610 -0.0395 -0.0584  0.1641
15175W        W30792  12.221   5.664  14.582 -0.0136 -0.0476 -0.1804
15176W        W30793  13.633  12.612  12.303  0.2144  0.2250  0.3940
15177W        W30794  14.037   2.641  15.437 -0.0692 -0.0771 -0.3009
15178W        W30795  15.097  16.465   5.413  0.0873 -0.1282  0.4152
15179W        W30796   6.573   3.646   1.934 -0.1391  0.0726  0.2142
15180W        W30797  10.595  13.663  16.448  0.1305 -0.0281 -0.4447
15181W        W30798   8.102   5.498   4.529  0.0383  0.2655  0.1820
15182W        W30799   2.211   8.553  12.752 -0.2217 -0.1500  0.0257
15183W        W30800  17.147  13.659  12.695  0.1063  0.0556  0.0676
15184W        W30801   6.821  12.734  13.856  0.1597  0.4023 -0.0979
15185W        W30802  15.818   7.232  13.838  0.1227  0.0305  0.1748
15186W        W30803   8.790  14.873  13.895 -0.3458 -0.1581  0.0866
15187W        W30804  15.866  11.475  14.849 -0.0943  0.0890  0.2672
15188W        W30805   2.668   2.349   3.317  0.0072  0.0445  0.1130
15189W        W30806   2.805  15.597  15.506 -0.1039  0.0438  0.0247
15190W        W30807   6.893   4.571  14.808  0.0076 -0.1075  0.0333
15191W        W30808   5.528  10.818  14.273 -0.1302  0.0967 -0.0551
15192W        W30809   2.108  14.327   1.175  0.0810 -0.0275  0.3303
15193W        W30810   3.890  10.221  11.454  0.0487  0.2559  0.1812
15194W        W30811   0.303   9.069   5.620 -0.5278  0.0295  0.0529
15195W        W30812   1.073   7.746   3.460 -0.2405 -0.1524 -0.0806
15196W        W30813  17.855   2.625   3.221  0.1483 -0.1702  0.0676
15197W        W30814   2.244   5.887   1.917 -0.1315 -0.0778  0.4784
15198W        W30815   2.613  15.291  12.595 -0.1711  0.0184  0.0478
15199W        W30816  14.331   7.963  14.769  0.2162 -0.0905  0.1634
15200W        W30817   7.672   0.979  12.915 -0.0149  0.1023  0.0026
15201W        W30818   8.367  16.254   5.036 -0.0430  0.0233  0.1352
15202W        W30819  16.217   7.530  14.824  0.1499  0.3795 -0.1744
15203W        W30820  11.788  10.177  12.633 -0.0518 -0.0240  0.1067
15204W        W30821  13.131  17.322  12.651  0.1021 -0.1437 -0.2458
15205W        W30822   5.315  15.608  15.261 -0.2109 -0.1445 -0.0661
15206W        W30823   2.998   9.189  14.548  0.1383 -0.1700 -0.2632
15207W        W30824   8.328   6.922  14.194 -0.3303 -0.0857 -0.4539
15208W        W30825   2.369   2.226  16.412 -0.3126 -0.1964  0.0026
15209W        W30826   1.365  14.619  16.080  0.0698 -0.1161 -0.1266
15210W        W30827  15.330  13.195  16.462  0.0780 -0.0855  0.0043
15211W        W30828  15.515   6.510  16.116 -0.2489 -0.2138  0.2032
15212W        W30829   3.578  12.217   5.982 -0.3384 -0.1727  0.0049
15213W        W30830   3.631   7.612   2.782  0.1965 -0.4123 -0.0487
15214W        W30831   3.089   3.723   3.363  0.0008  0.1131 -0.1670
15215W        W30832  17.151   0.892   3.376 -0.1986  0.0094  0.2161
15216W        W30833   8.593   4.795   4.602 -0.1614  0.6301 -0.1763
15217W        W30834  15.992  10.969   0.065 -0.0397 -0.0084 -0.1594
15218W        W30835  11.456   1.356   0.769  0.1234  0.2492 -0.0200
15219W        W30836   0.600   8.722   2.981 -0.2193 -0.0351  0.1123
15220W        W30837   2.236  12.246   0.809  0.0518 -0.0723  0.0739
15221W        W30838  17.767   3.936   0.644  0.0432 -0.0029  0.2235
15222W        W30839  10.419   7.996   0.437 -0.0176  0.4191  0.1595
15223W        W30840   4.248   2.255   3.614 -0.0340  0.0470 -0.2003
15224W        W30841   3.808   7.854  15.038  0.0217 -0.0989 -0.1216
15225W        W30842  16.543  14.006   4.017  0.1976 -0.1525 -0.0269
15226W        W30843  14.771   5.101   0.242  0.0504  0.0260 -0.0976
15227W        W30844   7.846  17.357  12.717 -0.2072 -0.1692  0.0267
15228W        W30845   2.905  16.629   1.276  0.0779 -0.0660 -0.1916
15229W        W30846   2.481  10.206  15.584  0.1867  0.1442 -0.1699
15230W        W30847   2.671  11.348  13.359 -0.0419 -0.1092 -0.1804
15231W        W30848  15.056   4.598   5.107 -0.1444  0.4597  0.0926
15232W        W30849  18.005   2.486  11.802 -0.0021 -0.0050  0.0948
15233W        W30850   8.447   0.864   5.802 -0.0350  0.2961 -0.3107
15234W        W30851  10.587   3.263   5.160  0.1569  0.3303 -0.2224
15235W        W30852   8.453   6.510  13.155  0.1465  0.1373  0.1163
15236W        W30853  17.023   1.829  13.108  0.0596  0.1468 -0.1847
15237W        W30854  16.756   8.094   1.440  0.0405 -0.2415 -0.0468
15238W        W30855  15.994   6.541  13.979  0.1344 -0.1180 -0.0619
15239W        W30856  14.537  14.213  15.123 -0.1713  0.0489 -0.2220
15240W        W30857   5.721   6.499   3.957  0.0922  0.2093 -0.5504
15241W        W30858   9.079   0.942  12.492  0.2742  0.0734 -0.0902
15242W        W30859   6.938   1.060   1.280  0.3998  0.3018 -0.1976
15243W        W30860   3.137   5.355   0.994  0.2874  0.0987 -0.0505
15244W        W30861   5.649   1.854   2.008  0.0946  0.1526  0.1081
15245W        W30862   4.955   3.732   5.277  0.2504  0.0703 -0.0186
15246W        W30863   2.072  10.499  15.491 -0.0870 -0.1574  0.1635
15247W        W30864   6.061  15.308   4.228  0.0447  0.0375 -0.1213
15248W        W30865   8.282   9.892   5.691 -0.0545 -0.1855  0.0678
15249W        W30866  16.657   3.161   3.253  0.0323  0.1232  0.1148
15250W        W30867  14.051   8.708   1.405  0.1874 -0.0236  0.2349
15251W        W30868   3.678   0.955   5.032 -0.0608 -0.1087  0.1408
15252W        W30869  14.085  14.032  15.378  0.1187  0.1447 -0.1838
15253W        W30870   6.036  13.493   1.841  0.1484  0.0844 -0.0212
15254W        W30871   0.046   9.573   3.873  0.3234 -0.0421 -0.4236
15255W        W30872   4.508  13.903  14.490  0.0340  0.0553  0.1016
15256W        W30873   4.055  10.043  11.947 -0.2839  0.0660 -0.0513
15257W        W30874  13.479  13.325   1.574  0.0481 -0.0229  0.1200
15258W        W30875   0.430   8.274  12.777 -0.3673 -0.1879  0.1508
15259W        W30876  14.937   2.591   3.709  0.1976 -0.0558  0.0647
15260W        W30877  15.444   2.877  13.335  0.1885 -0.4414 -0.2817
15261W        W30878   8.769  17.528   3.403  0.1957  0.0645  0.1873
15262W        W30879  15.535   0.772   5.672 -0.1400  0.0788  0.1353
15263W        W30880  17.033   5.078  14.767  0.0638  0.1286  0.1168
15264W        W30881  10.003   7.368  12.874  0.1370  0.2493 -0.5966
15265W        W30882   6.955  14.612   2.908 -0.3586  0.0588  0.1532
15266W        W30883  17.484   4.925   5.908 -0.2245 -0.0287  0.1915
15267W        W30884   1.284  16.958   4.249 -0.1134 -0.1734 -0.1313
15268W        W30885  15.916   3.825  15.324 -0.2386  0.1635 -0.1466
15269W        W30886  17.019   9.934   1.021  0.4059 -0.1061 -0.2828
15270W        W30887   9.587  15.664   0.521  0.1015  0.1333  0.1916
15271W        W30888   9.914  10.557  14.235  0.0779 -0.2079  0.0175
15272W        W30889   2.665   4.181   1.158  0.1786 -0.0373 -0.1332
15273W        W30890   2.366   8.671  13.667 -0.1560  0.1338 -0.0148
15274W        W30891   3.021  10.772  10.906  0.1821 -0.1825 -0.2194
15275W        W30892  16.887   6.855  11.770  0.1030 -0.1821 -0.0411
15276W        W30893  10.226  14.647  13.320  0.2155  0.0153  0.2739
15277W        W30894   7.560   7.058  16.675 -0.1008  0.1890 -0.0894
15278W        W30895   9.194   0.625  15.636 -0.0321  0.3608 -0.1238
15279W        W30896   4.521   6.293   2.627  0.0114 -0.1950  0.2137
15280W        W30897  16.699   1.654  15.261  0.0498  0.2127  0.0342
15281W        W30898   7.676  16.100  12.923 -0.0660 -0.2360 -0.0778
15282W        W30899  17.265  15.558   1.952 -0.0670  0.0127 -0.1775
15283W        W30900  16.554  15.557   3.186 -0.2929  0.1287  0.2565
15284W        W30901   5.640  13.916   1.108  0.0072  0.1103  0.2506
15285W        W30902   0.054   7.771  16.443  0.2359  0.0575  0.0164
15286W        W30903  12.861  15.307   4.470  0.2062 -0.1808  0.0862
15287W        W30904   6.497  13.941   3.619  0.0066 -0.0116 -0.2858
15288W        W30905  16.005  11.774   4.923 -0.0129 -0.0747 -0.2576
15289W        W30906  13.713  11.566   2.753  0.1323  0.1202  0.1576
15290W        W30907  11.182  12.078  12.712  0.0450 -0.1262 -0.1795
15291W        W30908  11.735  10.391   3.404 -0.3077  0.3538  0.0982
15292W        W30909   8.751   7.309   4.513  0.1204 -0.3838  0.0497
15293W        W30910   4.910  16.409  13.353 -0.3557 -0.0376  0.1339
15294W        W30911   7.762   7.730   3.486 -0.2010  0.0881  0.2561
15295W        W30912   1.711   0.820   4.535  0.0706 -0.2078 -0.0466
15296W        W30913  13.182  10.840  13.874  0.1403 -0.0573  0.0953
15297W        W30914  14.686   1.494   5.717  0.1122 -0.0722 -0.3593
15298W        W30915  16.400   8.086  11.341 -0.0711 -0.0380 -0.1347
15299W        W30916  15.557   0.080  12.585  0.0114  0.4251  0.1614
15300W        W30917   8.055   9.158   3.601 -0.2694 -0.0316  0.2706
15301W        W30918  10.008  10.874   3.296 -0.2436  0.1451 -0.0664
15302W        W30919   8.548   6.394  11.832  0.1537  0.1803  0.2853
15303W        W30920  16.156   0.531  11.917  0.2891  0.2031  0.0636
15304W        W30921   9.466  15.537   2.618 -0.1274 -0.1186  0.1592
15305W        W30922   0.234   9.675  14.600  0.0663  0.0656  0.2791
15306W        W30923  10.148   2.260  11.312 -0.0133  0.1528 -0.1206
15307W        W30924   6.361  11.117  15.507 -0.0086  0.1508  0.2479
15308W        W30925  15.076  11.328  15.315  0.0719 -0.1212 -0.0164
15309W        W30926   7.265   2.922  11.696  0.0500 -0.3727 -0.1027
15310W        W30927   4.217   5.341   2.493 -0.4051  0.0593  0.0320
15311W        W30928   2.177  14.728   2.251 -0.1261 -0.0078  0.2672
15312W        W30929   5.525  17.239  16.540 -0.1666  0.1041 -0.1386
15313W        W30930  12.893  14.121   1.375 -0.2104  0.0401 -0.2817
15314W        W30931   4.353   3.280  12.411 -0.4026 -0.0163  0.3344
15315W        W30932  15.085   7.150   0.928  0.2901 -0.0990  0.2681
15316W        W30933  16.583  14.937   0.026 -0.1923 -0.0565  0.0161
15317W        W30934   3.218   6.717   2.766 -0.0363  0.0530 -0.1536
15318W        W30935   2.902   8.470  15.360  0.0657  0.4053  0.3246
15319W        W30936  15.231  14.891  13.256  0.5383 -0.1607  0.0561
15320W        W30937  11.850  15.356  13.237 -0.1599 -0.0285 -0.2144
15321W        W30938   4.922  16.758   1.931 -0.4128 -0.0090  0.0817
15322W        W30939   1.697  16.070   2.508  0.1649  0.0402 -0.1994
15323W        W30940  15.993   1.490   3.611  0.3798  0.1504 -0.5153
15324W        W30941  15.694  12.659   0.926  0.4173  0.1540 -0.1582
15325W        W30942  12.206   3.397  13.693  0.0400  0.1271  0.4021
15326W        W30943   9.929  13.719  16.371 -0.0509 -0.0334 -0.0386
15327W        W30944   2.924  12.838  12.528  0.2319 -0.1607 -0.1356
15328W        W30945  10.696   7.394  15.244 -0.2081 -0.2445 -0.1285
15329W        W30946  14.895   1.604  16.622 -0.0100  0.0849 -0.2385
15330W        W30947  13.382  16.241  11.683  0.1906  0.1812  0.0501
15331W        W30948   2.848  10.730   0.513 -0.3380  0.0042 -0.0087
15332W        W30949   1.783   4.346   6.131  0.1714 -0.1191  0.1606
15333W        W30950  16.602  15.848   6.543 -0.1846  0.2228 -0.1128
15334W        W30951   7.996   1.148   0.131 -0.3442  0.0342 -0.0548
15335W        W30952  10.798   0.199   0.747 -0.1348  0.0952  0.1831
15336W        W30953   2.063   0.999   1.983 -0.1109 -0.1426  0.0519
15337W        W30954  10.732  16.309   1.774 -0.1569 -0.1327  0.1995
15338W        W30955   5.916  12.755  14.188  0.1430  0.2260  0.0763
15339W        W30956  14.125  17.426   0.681  0.0458 -0.2723 -0.0164
15340W        W30957  10.660   0.610   4.175  0.0751 -0.4500  0.0510
15341W        W30958   0.252   7.084  16.516  0.1036  0.1136 -0.0799
15342W        W30959   8.018  11.263  10.969  0.1318 -0.2437  0.1692
15343W        W30960  12.552   5.531  13.502 -0.1536  0.2901 -0.1522
15344W        W30961  13.317  11.971  13.062  0.0652  0.1027 -0.0255
15345W        W30962  16.993  13.243  13.952 -0.0478  0.3620  0.1338
15346W        W30963   0.747  17.048  14.396  0.1370 -0.1104 -0.1995
15347W        W30964  17.316  17.410   4.680  0.1253 -0.3445  0.3053
15348W        W30965   5.084  11.383   4.241 -0.1981  0.1873  0.0512
15349W        W30966  17.748   3.706  13.696 -0.1629 -0.3628  0.1652
15350W        W30967   7.970  11.938  14.656 -0.0019 -0.1670  0.0541
15351W        W30968   1.162  12.335   4.272  0.2601 -0.0315  0.0233
15352W        W30969  15.761  12.696   3.247  0.1223  0.0756  0.1896
15353W        W30970   7.069   9.182   0.155  0.1734  0.1069 -0.0331
15354W        W30971  12.351   3.117   2.243  0.0012  0.2143 -0.3759
15355W        W30972  15.754   6.708   5.851  0.3171 -0.2491 -0.0046
15356W        W30973   6.589  11.777   4.937 -0.0764 -0.1596 -0.1753
15357W        W30974   2.506  15.997  14.145  0.1087  0.2923  0.1108
15358W        W30975   5.492  16.232   4.782 -0.3823 -0.0629  0.3229
15359W        W30976   2.756   6.086  15.891 -0.0864  0.1932  0.0293
15360W        W30977  11.136  12.173  16.741  0.3070 -0.0637  0.1273
15361W        W30978   9.008  14.386   2.493 -0.2160  0.0051  0.2104
15362W        W30979  17.480   3.230   1.775  0.2267 -0.1588  0.1434
15363W        W30980   7.947   4.034  13.622  0.3382 -0.1898 -0.0871
15364W        W30981   6.851   2.538   5.275 -0.1146  0.1063  0.0627
15365W        W30982  10.743   3.000  13.999  0.2722  0.1008 -0.0234
15366W        W30983   3.627   8.030   4.878 -0.1279  0.2881 -0.5323
15367W        W30984   6.162  14.066  12.534 -0.0296  0.1295  0.3192
15368W        W30985   8.782  11.060   4.432 -0.0075 -0.4187 -0.2360
15369W        W30986  13.653  10.885   1.302  0.1098  0.1377 -0.0158
15370W        W30987   4.674  17.923   0.068 -0.2579  0.3763  0.2272
15371W        W30988  12.981  11.558   4.772 -0.5778 -0.1424 -0.1436
15372W        W30989  14.883   3.727  13.995  0.2536 -0.2111  0.2183
15373W        W30990   7.078   3.349   4.802  0.1451 -0.0893 -0.1114
15374W        W30991  17.007   8.536  10.817 -0.0455  0.0772  0.0003
15375W        W30992   0.889   3.021  12.059 -0.2274  0.1263 -0.3672
15376W        W30993   3.840  17.385   0.588  0.1766 -0.0428 -0.1916
15377W        W30994   8.668  17.724  12.725 -0.2116 -0.1813  0.1810
15378W        W30995   6.018  10.474   1.596  0.1392 -0.2617 -0.2758
15379W        W30996   1.358  12.348  12.457 -0.1518  0.1192 -0.0985
15380W        W30997  10.718   7.608   4.192  0.1397 -0.4405 -0.0622
15381W        W30998   3.994  12.019  13.436 -0.1027  0.1239  0.2282
15382W        W30999  11.326   4.058  14.359  0.0202 -0.3350 -0.1202
15383W        W31000  16.015   4.646   6.087 -0.0505 -0.1439 -0.1425
15384W        W31001   4.636  14.549  11.999 -0.0333 -0.0937  0.1990
15385W        W31002  16.153   7.133   1.701 -0.1001  0.1355 -0.2386
15386W        W31003  17.907   5.774   4.753  0.2113 -0.0827 -0.1412
15387W        W31004   9.279  13.161   0.218 -0.2420  0.1604 -0.0962
15388W        W31005   3.360   2.829  16.144  0.0801 -0.2189 -0.0289
15389W        W31006   3.848   2.209   1.932  0.1787  0.4785  0.2006
15390W        W31007   8.416  11.295   4.729  0.0926  0.0597  0.1732
15391W        W31008   5.269   0.077   5.165  0.4298  0.1326  0.2977
15392W        W31009  13.757  15.026   4.003  0.2816 -0.3258  0.3613
15393W        W31010   8.354  12.414  12.644 -0.0646 -0.1506 -0.2200
15394W        W31011   4.341   8.605  12.058 -0.2456 -0.2523  0.1615
15395W        W31012  12.170   2.714   1.068 -0.1461 -0.1666 -0.3014
15396W        W31013  11.044   4.463  11.327 -0.1662 -0.2110  0.0815
15397W        W31014   9.413  17.277   4.365  0.2064 -0.3222 -0.4260
15398W        W31015  17.373  11.936   0.825 -0.1239 -0.2793 -0.0126
15399W        W31016   6.385   4.475   1.235  0.0762  0.1850 -0.0125
15400W        W31017   0.341   0.673   5.341  0.2099  0.0248  0.2205
15401W        W31018   8.009  10.199  14.392 -0.0937  0.1066  0.0383
15402W        W31019   5.965   7.505   3.134  0.0117 -0.2704 -0.1233
15403W        W31020   1.652  14.110   2.578 -0.0675  0.0998  0.1533
15404W        W31021   9.516   1.773   0.741 -0.1593  0.1917 -0.1356
15405W        W31022  12.287  10.055   5.162 -0.0284  0.1546 -0.3616
15406W        W31023  14.350   8.197   1.578 -0.1906 -0.0192 -0.0884
15407W        W31024   3.573  10.187   1.454  0.1183 -0.2006 -0.1537
15408W        W31025   3.150   8.404  11.650  0.1383 -0.0766  0.0718
15409W        W31026   3.825  11.195  14.843  0.0383 -0.2168  0.1693
15410W        W31027  14.960  16.629   6.254  0.0422  0.1690 -0.2900
15411W        W31028  12.155   6.162   5.007 -0.1388  0.0182  0.1570
15412W        W31029  16.818   8.687   4.255 -0.1007 -0.2197 -0.0461
15413W        W31030  16.108   8.880  16.327 -0.1447  0.2396  0.2269
15414W        W31031   6.429  17.997   0.662  0.1559 -0.2826 -0.0504
15415W        W31032  14.887   7.863  16.250 -0.0263  0.1307  0.1169
15416W        W31033  12.576   3.986   3.306 -0.0403  0.0078 -0.1574
15417W        W31034   0.330   5.908  14.538  0.3175  0.0041 -0.2097
15418W        W31035  12.889   8.559   4.776  0.0624 -0.2382 -0.0994
15419W        W31036  10.051  10.164   3.743  0.0517  0.2169 -0.1188
15420W        W31037  16.010  15.349  15.348 -0.1829  0.1241  0.0002
15421W        W31038  12.536  13.816  15.257  0.0735 -0.2354  0.1956
15422W        W31039  11.446   7.913  13.485  0.0439 -0.0335  0.1588
15423W        W31040  16.598  11.180   1.068 -0.4836 -0.3457  0.2563
15424W        W31041  15.598  10.810   4.840 -0.3622  0.0129  0.0438
15425W        W31042  10.086   7.299  11.259  0.1628  0.0840 -0.0950
15426W        W31043   7.879  16.558   5.042  0.0863  0.1830  0.6980
15427W        W31044  10.865  15.788  14.608 -0.0232 -0.2457  0.0409
15428W        W31045  14.738   0.298  14.025 -0.4070 -0.0005 -0.1786
15429W        W31046   2.233   5.540   4.108  0.1451  0.0049  0.0240
15430W        W31047  13.386   1.126   4.593  0.0495  0.1675 -0.1398
15431W        W31048   2.940  12.158   5.171 -0.4953  0.0657  0.1891
15432W        W31049   1.232   9.758  11.978  0.6955  0.1290 -0.0151
15433W        W31050  10.990   9.401   0.231  0.0547 -0.3345 -0.4665
15434W        W31051   3.845  10.179   4.080 -0.0246  0.0049  0.2456
15435W        W31052   9.941   2.046   0.895  0.3282 -0.0801  0.2159
15436W        W31053  12.580   7.449   1.912 -0.0953 -0.0432 -0.0584
15437W        W31054   0.433   9.045   1.042 -0.1078 -0.1846 -0.1379
15438W        W31055  13.502  10.962  15.205  0.0809  0.1569  0.0177
15439W        W31056  11.163   8.790   6.448 -0.0087 -0.4249 -0.1517
15440W        W31057  10.990   8.589   4.887 -0.2338 -0.1738 -0.0850
15441W        W31058   3.720   1.186  15.186 -0.0937 -0.2514 -0.0362
15442W        W31059  11.806   5.893  15.297 -0.3841 -0.2313 -0.3711
15443W        W31060  17.609  10.429   3.794  0.1784 -0.0707  0.0332
15444W        W31061   0.685  16.444   5.827 -0.2433  0.1468 -0.1057
15445W        W31062   1.375   9.741   4.314  0.0429  0.1560  0.2476
15446W        W31063  11.080  12.674  14.976 -0.1180  0.0258 -0.3325
15447W        W31064   0.175   3.338   3.947 -0.1682  0.0710  0.0321
15448W        W31065   2.762   6.058   3.797  0.1693  0.0514 -0.1324
15449W        W31066  11.443   9.850  12.413  0.1509 -0.0651  0.0205
15450W        W31067  10.930  15.136  13.259 -0.1052 -0.3967 -0.1637
15451W        W31068   4.953   4.163   5.030 -0.0672  0.0616  0.0747
15452W        W31069  17.055  10.746   2.388 -0.2176 -0.1857 -0.2998
15453W        W31070   1.743   5.535   0.646  0.1261 -0.1579  0.1996
15454W        W31071   4.795   8.476  12.258 -0.3192  0.2425  0.2532
15455W        W31072  17.002  16.803   1.974  0.0446 -0.0327 -0.2297
15456W        W31073   4.858   1.166   4.458 -0.2760  0.0803 -0.0763
15457W        W31074   0.191  13.300  15.238  0.2137  0.0028 -0.0667
15458W        W31075   3.827  12.364   4.525 -0.0161 -0.0148 -0.0152
15459W        W31076  11.743   8.266  16.112  0.0972  0.1924 -0.0166
15460W        W31077  10.054  11.970  13.033 -0.0137  0.1638  0.1747
15461W        W31078  12.584  14.671  14.721 -0.3088 -0.2037 -0.0999
15462W        W31079  17.236   2.280  15.587 -0.0653  0.1888 -0.2270
15463W        W31080  11.178   1.568   4.624  0.0556  0.0799  0.2446
15464W        W31081   1.090   2.916   3.343  0.1657 -0.3016  0.5165
15465W        W31082  16.302   4.856   4.383 -0.0139 -0.1146  0.2279
15466W        W31083   9.444   0.858  14.555  0.0101  0.3580 -0.1577
15467W        W31084  10.787   8.357   5.345  0.0942 -0.1016 -0.0185
15468W        W31085   9.979   8.064   1.762 -0.1004 -0.0803  0.0870
15469W        W31086   7.331   2.922   5.149 -0.1237  0.0253 -0.0601
15470W        W31087  18.004  12.100  12.206  0.0621  0.0218 -0.0189
15471W        W31088   5.429   4.733   1.727 -0.1076 -0.0965  0.0097
15472W        W31089  13.555   6.547   1.706 -0.0752  0.0322 -0.3766
15473W        W31090   0.598   7.027  11.350  0.2244 -0.0019 -0.1431
15474W        W31091  11.887   0.580   0.013  0.1906  0.4211 -0.0012
15475W        W31092   7.753   9.572  12.969 -0.2636 -0.1080 -0.1804
15476W        W31093  17.661   6.145  11.851  0.0855 -0.3223  0.2679
15477W        W31094  11.337  10.757   3.343 -0.0632 -0.3721 -0.2532
15478W        W31095  15.149   8.533   1.366  0.3561  0.1248  0.1006
15479W        W31096  13.071   3.653  15.220  0.3533  0.2655  0.2315
15480W        W31097  14.179  15.479   2.148  0.3185 -0.1808 -0.0365
15481W        W31098   5.345   6.334  10.997 -0.2910  0.1026  0.2408
15482W        W31099  10.338   3.877  12.473 -0.1392 -0.1109  0.2675
15483W        W31100  15.555   4.887   5.324  0.0610 -0.0086 -0.3374
15484W        W31101   4.276   6.015  15.071  0.0694 -0.2045 -0.0189
15485W        W31102  13.966   1.786  14.223 -0.0097 -0.1190 -0.3141
15486W        W31103  14.686   8.563   5.076  0.2599  0.0124  0.1097
15487W        W31104  11.461  16.270   0.943 -0.4435  0.0093 -0.0329
15488W        W31105  10.437   9.863  10.066 -0.1400 -0.1224 -0.0140
15489W        W31106  11.855  10.631   6.008  0.1917  0.2723  0.1326
15490W        W31107   4.244   9.170   2.256 -0.0165 -0.1279 -0.4092
15491W        W31108   9.134  14.890   1.008 -0.1193 -0.2371  0.0075
15492W        W31109   8.645  14.280  14.665 -0.0635 -0.0648  0.1264
15493W        W31110  10.703  10.948  12.114 -0.0462  0.2223  0.2880
15494W        W31111   3.593   3.066  12.641  0.1346 -0.2566 -0.2649
15495W        W31112   2.596  14.619  11.537  0.1942  0.3394  0.0748
15496W        W31113  13.397   6.069   2.620  0.1431 -0.0768  0.3945
15497W        W31114  11.571   2.150   3.692  0.2160  0.3513 -0.1061
15498W        W31115   7.872  11.564   2.588 -0.0663 -0.0945 -0.2372
15499W        W31116  16.592  16.211   4.017 -0.0483 -0.1860  0.0062
15500W        W31117   0.126  16.317  13.961 -0.1565 -0.2377  0.1471
15501W        W31118  15.476  10.617   2.968  0.0343  0.1099  0.0155
15502W        W31119   0.493  13.079   2.341  0.3696 -0.2484  0.2236
15503W        W31120   7.718  17.192   2.023  0.2400 -0.2321 -0.2960
15504W        W31121  11.247   3.874  15.457 -0.2310 -0.0512  0.3227
15505W        W31122   6.432  13.670   0.966 -0.3403  0.0497 -0.1250
15506W        W31123   4.438  17.105  15.843  0.1377 -0.3105  0.0118
15507W        W31124   9.442   3.247   3.757 -0.0479  0.0141 -0.1328
15508W        W31125  14.814   3.801   5.038  0.0523  0.2065 -0.2487
15509W        W31126   5.089  14.153   0.091  0.0219  0.3380 -0.2237
15510W        W31127   4.826  10.194  16.411  0.2928  0.2766 -0.1625
15511W        W31128   4.331   6.100  12.407 -0.0063 -0.1351 -0.1291
15512W        W31129  17.299   0.596  14.114 -0.0484 -0.3132  0.3676
15513W        W31130  11.459   3.793   5.570 -0.0188 -0.0128  0.1634
15514W        W31131   1.618   3.251   5.047 -0.2403  0.0365  0.1503
15515W        W31132  14.745  16.080  14.794  0.2739 -0.0171  0.0569
15516W        W31133   4.910   2.684  15.020  0.1595 -0.2210  0.1372
15517W        W31134   8.225   5.536  15.376 -0.0440  0.2196 -0.1626
15518W        W31135   8.367  16.021   3.146 -0.2854  0.0199 -0.2657
15519W        W31136   4.676   3.256  10.511  0.3307  0.3153 -0.0124
15520W        W31137  15.541  11.560   1.681  0.0185 -0.0477 -0.1525
15521W        W31138  12.109  14.100   3.126  0.1118  0.0176  0.0998
15522W        W31139   7.719   8.646   3.094 -0.1841  0.0061  0.0470
15523W        W31140  11.028   2.367   1.418 -0.2543 -0.3411 -0.0145
15524W        W31141   4.463   7.885   0.933 -0.2166 -0.1692  0.0651
15525W        W31142   1.399  14.993  15.157 -0.0320  0.1385 -0.2032
15526W        W31143   1.044  14.488   5.847 -0.2498 -0.1093  0.1916
15527W        W31144  13.031   0.003  12.874 -0.0573 -0.1567  0.1422
15528W        W31145  15.739  15.746   1.385 -0.0191 -0.2095  0.3690
15529W        W31146   0.716   1.888   5.624 -0.1467  0.2449  0.3773
15530W        W31147   1.182   0.460  12.463 -0.0450 -0.4161  0.4992
15531W        W31148   3.739  13.373   1.645 -0.1477  0.2022 -0.1799
15532W        W31149  17.738  10.259  12.290  0.0680  0.0393  0.0579
15533W        W31150  15.259   4.921   0.275 -0.1800 -0.1944 -0.2165
15534W        W31151  16.310   6.060   0.753 -0.2469  0.1607  0.2645
15535W        W31152  14.987   4.669  14.283  0.1163  0.1699  0.4030
15536W        W31153   2.985   0.875   1.877  0.0947 -0.1337  0.1552
15537W        W31154   5.492   9.061  11.626 -0.3521 -0.1962  0.0874
15538W        W31155  11.947   9.508   1.482 -0.0898 -0.1643 -0.0671
15539W        W31156  12.813  10.778  14.183  0.0151 -0.0552  0.0315
15540W        W31157   2.462   1.939   0.075  0.0578 -0.1270  0.0051
15541W        W31158  16.337   5.631   2.488  0.1655  0.2645 -0.0601
15542W        W31159  13.469   0.119  12.123 -0.0610 -0.1610 -0.2907
15543W        W31160   0.161  14.623  14.165 -0.2170  0.0807  0.0078
15544W        W31161   0.931  10.385   0.645  0.1332  0.5080  0.0543
15545W        W31162   3.266   9.993  12.626  0.0772 -0.0411 -0.0921
15546W        W31163   4.685   9.257   3.973 -0.2457  0.2332 -0.0934
15547W        W31164  16.333   6.830  15.715  0.2161 -0.2270  0.0394
15548W        W31165  16.881  17.091  16.720  0.2249  0.1155 -0.0372
15549W        W31166  17.976   3.665  14.500 -0.1445  0.1362 -0.0423
15550W        W31167   9.804  11.214  10.831 -0.0153 -0.2190 -0.2674
15551W        W31168  17.808  17.810   4.226 -0.0667  0.0495  0.3100
15552W        W31169  13.940   1.656  13.652  0.2337  0.0396  0.0083
15553W        W31170  15.062   2.690  16.354 -0.1668 -0.2300 -0.0098
15554W        W31171   5.387   0.956  13.239 -0.0849 -0.0392 -0.2530
15555W        W31172   2.046   2.008  15.233  0.0525 -0.4457 -0.2297
15556W        W31173   4.892   0.441  15.379 -0.0523  0.1455 -0.0454
15557W        W31174  12.395  10.260   1.683 -0.0033  0.0246  0.2125
15558W        W31175  17.431   2.417   3.453  0.2805  0.3408 -0.1283
15559W        W31176   6.248   1.874  11.389  0.1057 -0.1899 -0.1188
15560W        W31177   8.385  15.052  11.780 -0.0837  0.0799 -0.0368
15561W        W31178  11.510   3.196  13.423  0.0741 -0.0710 -0.1665
15562W        W31179   4.882  11.096  12.385 -0.1858  0.0616 -0.0721
15563W        W31180   8.539   2.407  16.262 -0.2107  0.1428  0.2480
15564W        W31181   0.721   4.860   0.684 -0.3180  0.2969  0.0527
15565W        W31182  17.152   0.117   4.322  0.0257 -0.0885  0.1321
15566W        W31183   8.088   3.993  15.745 -0.2238 -0.0093  0.1100
15567W        W31184   2.398  12.578  14.801  0.1475 -0.4810 -0.0270
15568W        W31185   3.346  12.381   1.723  0.0261  0.4172 -0.2083
15569W        W31186   5.693   8.507  11.504  0.2143 -0.0687  0.1760
15570W        W31187   1.566  15.492   1.340  0.1594 -0.0130 -0.3264
15571W        W31188  17.617   9.483  11.846  0.0346 -0.1505  0.2990
15572W        W31189   8.429  18.023   3.802 -0.2167 -0.0389 -0.1750
15573W        W31190   2.937   0.772   2.930 -0.0857  0.0071  0.0325
15574W        W31191   3.938   3.889   2.882 -0.4399  0.1143  0.3520
15575W        W31192   5.726  11.939   1.167  0.1503 -0.1018  0.1040
15576W        W31193  11.947   5.591  12.295  0.4050  0.0673  0.0411
15577W        W31194   6.038  13.492  11.747 -0.0421  0.1364 -0.0304
15578W        W31195  14.476   3.463  14.975 -0.1318 -0.2166  0.1450
15579W        W31196  13.397   9.055   4.834 -0.0194  0.0044  0.1349
15580W        W31197   0.676   3.189  11.539  0.0618  0.0744  0.2314
15581W        W31198   9.853   0.331   1.670  0.1120  0.3561 -0.2856
15582W        W31199   6.374   3.166   0.466  0.1870 -0.0198 -0.0717
15583W        W31200  17.115   2.626   5.798  0.0683  0.2483 -0.2790
15584W        W31201   7.481   1.938  13.270 -0.2396  0.0724  0.0212
15585W        W31202  10.618  14.894  14.364 -0.0831  0.2401 -0.3262
15586W        W31203  16.149  16.314   2.189  0.0220  0.0416 -0.3193
15587W        W31204  12.348  12.772  15.473 -0.0485  0.1722 -0.1079
15588W        W31205  14.751   2.186  16.323  0.1922  0.0645 -0.2256
15589W        W31206  13.065  11.205  12.512  0.1695 -0.1200 -0.0140
15590W        W31207   0.282   2.291   4.752  0.1288 -0.2068  0.0280
15591W        W31208  14.379  12.763   0.637 -0.0826 -0.0284  0.1864
15592W        W31209   0.423  16.221  15.416 -0.0323  0.1205 -0.1145
15593W        W31210   2.582  12.604   6.520 -0.3115 -0.2412 -0.2166
15594W        W31211   1.205   1.496   1.512 -0.1133 -0.0643 -0.3924
15595W        W31212  15.607  16.173   1.558  0.0665  0.0241 -0.2415
15596W        W31213  13.433  12.838   0.827 -0.0832  0.0821 -0.3388
15597W        W31214   9.303  15.808   0.062 -0.0494 -0.4672 -0.3318
15598W        W31215  17.879   2.083   4.756 -0.0899  0.2554  0.2000
15599W        W31216   0.092  10.618  14.289  0.1975  0.3019  0.3099
15600W        W31217  10.032   1.361  14.293 -0.4232  0.0096 -0.1528
15601W        W31218   6.825  15.419  15.103  0.2695 -0.2802  0.0179
15602W        W31219   7.555   5.664   4.938 -0.3388  0.1701 -0.0020
15603W        W31220  17.281   8.610  12.734  0.0611  0.0243 -0.2066
15604W        W31221   3.348   9.682   4.898 -0.2199 -0.4564  0.2181
15605W        W31222  14.645   5.882  15.165 -0.1633  0.1445  0.1135
15606W        W31223   0.959   0.071   3.047 -0.0708  0.2268  0.0147
15607W        W31224   4.499   1.017   0.180 -0.1163 -0.1868 -0.0635
15608W        W31225  15.446   4.809  12.795 -0.4128  0.2798 -0.1153
15609W        W31226  15.308  15.989  15.634 -0.3079  0.0591  0.0550
15610W        W31227   5.147   1.472   3.174 -0.1081  0.2382 -0.0684
15611W        W31228  12.688   2.536   4.134  0.2829  0.3936  0.2170
15612W        W31229  13.337  15.154  16.177  0.1312 -0.4723  0.0380
15613W        W31230  12.518   2.277  14.575  0.0453 -0.2840  0.1301
15614W        W31231  10.348  15.299   3.185  0.0482 -0.0577  0.2133
15615W        W31232   3.576  15.718   0.939  0.0738  0.2258 -0.0622
15616W        W31233   9.019   4.765   4.933 -0.0463 -0.2161  0.0004
15617W        W31234  15.351  17.010   3.134  0.2408  0.0405 -0.2739
15618W        W31235  14.468  13.675  13.278  0.0509 -0.0512 -0.1033
15619W        W31236   5.002   0.280   4.237  0.0120 -0.0363  0.1305
15620W        W31237   2.756   9.696   2.648 -0.2378 -0.0604 -0.0656
15621W        W31238   6.087   0.946  15.783  0.2921  0.2749  0.2860
15622W        W31239   2.906   3.401   0.502 -0.0344  0.1906  0.1001
15623W        W31240  13.053   1.785  16.117 -0.0668 -0.0074  0.2617
15624W        W31241  16.493   6.593  14.286 -0.3861  0.1050  0.0803
15625W        W31242   2.140  17.489   2.051  0.2412 -0.3488  0.0427
15626W        W31243   0.720  16.476   1.107  0.0481  0.0053 -0.0619
15627W        W31244   6.189   8.753   3.174  0.1419 -0.1959  0.0411
15628W        W31245   3.718   8.720  16.618 -0.1762  0.1112  0.3702
15629W        W31246   6.791   9.875   3.689 -0.3451  0.4231  0.1927
15630W        W31247  17.395  13.603  15.541  0.1894 -0.0979  0.2499
15631W        W31248   4.767   4.095   0.381  0.0830 -0.0525  0.0229
15632W        W31249  16.477  10.306  13.911  0.0724  0.1542  0.0455
15633W        W31250   5.713   5.836  15.878  0.1587 -0.1271  0.1131
15634W        W31251  13.166   9.507   4.865 -0.1496 -0.0751  0.1956
15635W        W31252   9.608  11.126   0.088  0.3192 -0.2015  0.2871
15636W        W31253   4.562   8.430  14.367 -0.1283  0.2064  0.0812
15637W        W31254   1.302  14.465   2.719 -0.2508 -0.3603 -0.1861
15638W        W31255  15.182  11.798  12.811 -0.1139 -0.1855  0.1566
15639W        W31256  14.597   2.212   3.626 -0.1426  0.2714 -0.1167
15640W        W31257  12.152   3.033   3.769 -0.2136  0.0202 -0.0073
15641W        W31258  10.680   8.478   0.459  0.0163 -0.0537  0.0932
15642W        W31259   7.688  15.286  13.666 -0.0590 -0.2055 -0.0617
15643W        W31260   5.831   1.956  13.256 -0.0992 -0.0807  0.3374
15644W        W31261   3.913   7.112  11.509  0.3553 -0.0637  0.0708
15645W        W31262  13.781  15.711   1.992 -0.0505  0.2836 -0.2157
15646W        W31263  14.554  13.540  15.998  0.2340  0.1633  0.2203
15647W        W31264  14.350   2.768   5.314 -0.1199  0.0514  0.2501
15648W        W31265  15.687  11.984  11.784  0.2588 -0.1510 -0.1197
15649W        W31266  12.584  14.788   3.822  0.2490 -0.2127  0.2280
15650W        W31267   3.363   7.832  13.180 -0.4049  0.1206  0.1640
15651W        W31268  17.358   1.542   2.939  0.0982  0.4173 -0.0480
15652W        W31269  16.981  11.841   4.419 -0.0929 -0.3907 -0.3154
15653W        W31270  16.883   2.348  16.668 -0.3715 -0.0516 -0.0703
15654W        W31271   6.978   1.894   2.127  0.3110 -0.0748  0.3354
15655W        W31272   7.602   0.181   1.146 -0.0270  0.2369 -0.1377
15656W        W31273   4.067   6.013  11.286  0.0192 -0.2306 -0.2929
15657W        W31274   4.525  12.154  16.180  0.2375 -0.1258  0.1547
15658W        W31275   1.927   2.660  13.194 -0.2291 -0.2315 -0.0170
15659W        W31276   1.244   0.640   3.400  0.3387  0.0718  0.0302
15660W        W31277   2.084   2.965  13.670  0.2817 -0.2998 -0.0347
15661W        W31278   2.896  16.096   1.247 -0.1391  0.1355  0.0291
15662W        W31279  18.004  17.331   4.053  0.2152 -0.3092  0.2146
15663W        W31280   8.655   9.389   4.594 -0.1938  0.2859 -0.1934
15664W        W31281   4.995   1.029  14.815 -0.1079 -0.2175 -0.0185
15665W        W31282  13.148   6.436  16.443  0.0650  0.0475  0.0970
15666W        W31283  14.672   9.947   1.243  0.0751  0.0023  0.0838
15667W        W31284   5.935   8.533  15.805  0.0216  0.1381  0.3154
15668W        W31285  17.361   9.321   2.867  0.0794 -0.0100 -0.1507
15669W        W31286  13.033   5.950  14.818 -0.0428  0.1414 -0.0227
15670W        W31287  11.734   2.759   3.735  0.0596  0.3704 -0.2974
15671W        W31288   7.483  16.250   1.939  0.0384 -0.2360 -0.3590
15672W        W31289   3.909   8.810  14.563 -0.0455  0.2786 -0.2605
15673W        W31290   4.592   9.228  16.165 -0.3676  0.2480  0.2326
15674W        W31291  13.154  17.508   0.950  0.2998 -0.0738  0.3001
15675W        W31292   0.164   4.583   4.186  0.0695 -0.0459  0.2187
15676W        W31293   6.821   1.983   5.301  0.0365 -0.1328 -0.0886
15677W        W31294   0.110  10.306   2.565 -0.0600 -0.1223  0.0530
15678W        W31295   1.447   9.322  14.489 -0.1559  0.1647  0.3576
15679W        W31296   1.585   6.220  11.922 -0.1876 -0.1525  0.0403
15680W        W31297  16.964   1.421   5.416 -0.3645 -0.1497 -0.0632
15681W        W31298  13.887  17.362   5.525 -0.0104  0.1295  0.5878
15682W        W31299  11.430   4.012  14.962  0.1840  0.1558  0.0281
15683W        W31300  13.516   6.487  13.145 -0.3195  0.0317 -0.1222
15684W        W31301   2.783   5.776   1.572  0.0340 -0.0302 -0.2034
15685W        W31302  15.912   8.753  14.764 -0.0703 -0.0943  0.0153
15686W        W31303  14.325  10.648   2.353  0.1675 -0.1112 -0.2849
15687W        W31304  17.663  15.636  12.566  0.1999 -0.3230  0.0446
15688W        W31305  14.815   2.705   5.543 -0.1391  0.1266 -0.1983
15689W        W31306  17.766   9.796   1.736  0.0100 -0.0037 -0.0285
15690W        W31307  17.890   4.594   1.639  0.0110 -0.0717 -0.1732
15691W        W31308   5.349   8.653   5.002 -0.0901 -0.2577  0.1471
15692W        W31309   1.106   2.913  11.502  0.0317 -0.2817 -0.3127
15693W        W31310   2.505  12.015   1.134 -0.0802  0.0577  0.1789
15694W        W31311  10.779  16.947   3.973 -0.0453 -0.0084 -0.1094
15695W        W31312  16.229  10.461   3.602  0.0663 -0.0648  0.1763
15696W        W31313  10.051   9.558   0.799 -0.2061  0.0206 -0.0453
15697W        W31314  17.905   5.753  14.712  0.0703 -0.1743  0.0361
15698W        W31315   9.352  10.391   2.038  0.0534 -0.3441 -0.0445
15699W        W31316   7.797  12.424  15.348  0.3057 -0.0153  0.0408
15700W        W31317  14.550   4.419  15.131 -0.1384 -0.0954  0.1967
15701W        W31318   7.344   4.600   4.124  0.0554  0.1323 -0.0623
15702W        W31319  12.479   9.785  16.574 -0.1108 -0.1971  0.0962
15703W        W31320   7.503  17.610  12.425 -0.4555  0.0037  0.0556
15704W        W31321   0.877  12.492  12.378 -0.0242  0.4084 -0.3069
15705W        W31322   2.683  14.999   0.117 -0.0695 -0.0664  0.1925
15706W        W31323  15.035   7.744  13.610  0.1774  0.1158  0.2682
15707W        W31324   7.875   2.569   2.642 -0.0508  0.3045 -0.0217
15708W        W31325   9.276   0.050  11.529 -0.1285 -0.0048  0.2673
15709W        W31326   1.530  16.335  16.648  0.0802  0.2395  0.1400
15710W        W31327  10.798   1.226  14.884  0.0724 -0.1907  0.0765
15711W        W31328   1.150   1.283  12.113  0.0802  0.1886 -0.1977
15712W        W31329   3.116  16.719   2.047  0.3408 -0.1057  0.4450
15713W        W31330   5.871  13.959  11.843  0.1236 -0.2952 -0.1758
15714W        W31331  13.873  16.193   0.270 -0.3299 -0.0506  0.0197
15715W        W31332  13.053  15.765  15.308  0.0973  0.5164  0.3178
15716W        W31333   7.274   8.060   1.370  0.0429  0.1522  0.1139
15717W        W31334   6.633  15.070  14.760  0.2420  0.1817  0.0123
15718W        W31335   0.559  15.349   3.680  0.1726  0.1426 -0.1434
15719W        W31336  12.051  13.351   1.725  0.1679 -0.0000 -0.0602
15720W        W31337  15.102   2.692  14.354  0.0255 -0.1368  0.1772
15721W        W31338   5.614   9.781   5.313  0.0911  0.2093 -0.0841
15722W        W31339   6.265  14.474   4.880  0.1959 -0.1225  0.1471
15723W        W31340   2.941   0.330   1.390 -0.0194  0.1571  0.2339
15724W        W31341  14.304   2.292  16.510 -0.2448  0.0181  0.1682
15725W        W31342  14.453   3.173   4.392 -0.1391  0.2594  0.0660
15726W        W31343  17.726   0.125  11.602 -0.1656  0.2326 -0.0823
15727W        W31344  10.981  15.316   2.546 -0.0599 -0.2103  0.2224
15728W        W31345  12.645   3.997  13.438 -0.0084 -0.3636  0.0752
15729W        W31346  10.014   8.960  11.698 -0.0835 -0.0915  0.0665
15730W        W31347   5.843   3.402   4.053  0.1569 -0.3089 -0.2337
15731W        W31348   2.044   8.284   2.134 -0.2604 -0.0430  0.0395
15732W        W31349  15.668  17.177   6.606  0.0609 -0.2615 -0.0176
15733W        W31350  14.900   6.848   0.490  0.0445  0.1104  0.3793
15734W        W31351   9.998   5.556  16.646  0.3725  0.2861 -0.2399
15735W        W31352   8.788   7.516  15.973 -0.2342  0.1498  0.1064
15736W        W31353   8.299   6.590  11.362  0.1895  0.0285 -0.1115
15737W        W31354  10.254  15.590   6.256  0.0188 -0.1817  0.0242
15738W        W31355  15.342   3.191   2.994 -0.1101  0.2713  0.3440
15739W        W31356   9.622   3.750   3.495  0.0618 -0.2524 -0.0822
15740W        W31357  14.251  12.767   2.606 -0.2032 -0.0826  0.1882
15741W        W31358   1.941   6.466  13.547 -0.2652  0.0900  0.1389
15742W        W31359   0.079   8.284   3.088  0.0547  0.0303 -0.0354
15743W        W31360  14.839  16.220   3.182 -0.1551 -0.0767 -0.3377
15744W        W31361  12.905   5.572   4.449  0.0249 -0.1235  0.0940
15745W        W31362   7.280  13.071  11.222 -0.1100  0.3389  0.1831
15746W        W31363  10.093  12.798  11.847 -0.4314  0.0594  0.0161
15747W        W31364   9.801  12.546  10.381 -0.1900 -0.1924 -0.0696
15748W        W31365   0.582  11.565   3.103 -0.3812  0.0912 -0.2216
15749W        W31366   5.623  10.840   1.691 -0.2316 -0.2299 -0.1829
15750W        W31367   4.279   1.207  13.941 -0.3048  0.0662 -0.2384
15751W        W31368   2.499   0.272  12.911 -0.2449  0.0196 -0.0151
15752W        W31369  12.394   6.640   2.548 -0.1594  0.4140 -0.3311
15753W        W31370   5.122   2.066   1.792 -0.1573 -0.0096 -0.0088
15754W        W31371   3.902   1.674  11.620  0.3651 -0.2704 -0.0967
15755W        W31372  15.319   7.418  13.964 -0.1920 -0.2857  0.0235
15756W        W31373   2.225   7.315   0.031  0.2068  0.3407  0.2560
15757W        W31374  14.372  17.433   5.626 -0.1487 -0.1594  0.0641
15758W        W31375   1.508   1.940  15.159 -0.2727 -0.3002  0.2346
15759W        W31376  12.955  13.345  12.256 -0.1348  0.1189 -0.1803
15760W        W31377  17.184  16.993  12.973 -0.1995 -0.3447  0.0071
15761W        W31378   5.925  15.631   4.656 -0.0367  0.1977 -0.1705
15762W        W31379  15.824   2.707  14.391  0.3271 -0.2267 -0.4155
15763W        W31380   1.426  13.056   2.497 -0.1524  0.0957 -0.0225
15764W        W31381   7.685   2.607  16.487  0.1832  0.0431  0.0976
15765W        W31382  10.624   0.701   1.744  0.0934 -0.0530 -0.1792
15766W        W31383  15.028  16.113   0.010 -0.1284  0.2178  0.1481
15767W        W31384   8.195   3.467  14.356 -0.0378 -0.0542  0.1425
15768W        W31385  17.398   0.816  15.243  0.5435  0.1317  0.3306
15769W        W31386   5.722   6.822  13.679 -0.1770 -0.5842  0.1306
15770W        W31387   8.817   1.013  16.371 -0.0689 -0.0708  0.0266
15771W        W31388  13.760  17.249   2.774  0.1355 -0.0509 -0.0720
15772W        W31389  13.660   5.190   2.420 -0.0570  0.1066 -0.2216
15773W        W31390  15.454  13.002   4.545 -0.2297  0.1113  0.3697
15774W        W31391  10.524  15.729   5.194  0.1830 -0.0035 -0.1253
15775W        W31392   7.236  14.425  16.290 -0.0979 -0.2098 -0.2756
15776W        W31393   8.387   7.052   0.009 -0.4639 -0.0110  0.1227
15777W        W31394  14.895   9.368   2.496 -0.1002 -0.2374 -0.1586
15778W        W31395  12.907   5.736   3.976 -0.2614  0.3369 -0.2789
15779W        W31396   8.112  13.223   4.751 -0.0700 -0.1402 -0.1072
15780W        W31397   5.629  16.380   0.213  0.0437 -0.0994  0.0106
15781W        W31398  15.168   6.476   4.424  0.0306 -0.0978 -0.2599
15782W        W31399  14.962  15.046   1.845 -0.1438 -0.1089 -0.1783
15783W        W31400   6.175   3.598   1.239 -0.1076 -0.3066  0.0364
15784W        W31401   4.465   5.062  10.980  0.1634  0.0251  0.0402
15785W        W31402   7.137   1.806   3.491 -0.2187 -0.0596  0.2446
15786W        W31403   8.782   3.204   6.033  0.1175  0.2468 -0.0504
15787W        W31404   6.438   3.342   5.578  0.2611 -0.4611  0.0054
15788W        W31405  15.428  17.361  14.201 -0.1591  0.1750 -0.2384
15789W        W31406   2.857   3.711   1.011  0.0746  0.1659  0.2980
15790W        W31407   9.250  12.378  11.925 -0.1455  0.0279 -0.3277
15791W        W31408  10.774  16.395   0.945 -0.3085 -0.2559  0.0798
15792W        W31409  17.997   7.936  12.190 -0.0951 -0.0629 -0.4128
15793W        W31410  13.337  14.756  12.552 -0.0862  0.2453  0.0189
15794W        W31411  10.193  13.235   5.346 -0.2836 -0.4278 -0.2095
15795W        W31412   3.804  15.618   2.259  0.0169 -0.1273 -0.0956
15796W        W31413  16.923  15.573  13.164 -0.2040  0.1232  0.0296
15797W        W31414  10.939  12.401  14.554  0.2116  0.0633 -0.1732
15798W        W31415  12.086   6.995   0.040 -0.0063 -0.1245  0.4073
15799W        W31416  12.938  16.387   3.546  0.3064  0.0162  0.1318
15800W        W31417   9.881   6.370  15.991 -0.1361 -0.0285  0.2387
15801W        W31418   0.266   0.152   0.836 -0.2626 -0.1241 -0.1308
15802W        W31419  11.275   3.042  15.825  0.1040  0.1367  0.4040
15803W        W31420   1.485  17.084   2.606 -0.0006 -0.2125  0.0889
15804W        W31421   1.008  12.966   2.238  0.1988 -0.0475 -0.0437
15805W        W31422   1.262   7.756  14.132  0.1937 -0.2664  0.0179
15806W        W31423   3.496   9.881   4.480 -0.1264 -0.1937  0.1216
15807W        W31424  10.790  12.558  12.805 -0.1066 -0.2364  0.0581
15808W        W31425  10.487  12.702  16.558 -0.1431  0.1686 -0.0153
15809W        W31426   3.763   3.958  15.986 -0.1634 -0.0227 -0.2702
15810W        W31427   8.854   3.263  16.310  0.0208 -0.0532 -0.0639
15811W        W31428  13.013   3.586   2.103 -0.0947  0.1005 -0.1143
15812W        W31429   4.722   3.523  14.585  0.2102  0.1112  0.2412
15813W        W31430  16.817   3.260   1.386  0.1816 -0.3985  0.0193
15814W        W31431   9.266  16.746  14.697 -0.4252 -0.2710  0.0941
15815W        W31432   7.710   9.604   1.214 -0.1223 -0.1487  0.1220
15816W        W31433   1.268  11.894   4.449  0.0266  0.2035  0.1196
15817W        W31434   5.530  11.118  15.714  0.3383  0.1206 -0.0955
15818W        W31435   5.525   1.035   4.938 -0.0345 -0.1554  0.0931
15819W        W31436   8.773  17.357   0.817  0.0661 -0.1028  0.1244
15820W        W31437   1.425   5.005  12.843 -0.2448 -0.1070  0.1565
15821W        W31438   8.836   1.730   3.060  0.0123  0.0449  0.0526
15822W        W31439  15.965   6.609  15.051  0.0830 -0.0036 -0.1302
15823W        W31440   9.677  11.729   0.061  0.1943  0.2131 -0.2413
15824W        W31441   7.761  10.758   0.369 -0.2741  0.2027  0.2823
15825W        W31442  10.254   3.233  13.911 -0.2270  0.0415  0.1659
15826W        W31443  14.692   1.681   1.994 -0.2634  0.2578  0.2060
15827W        W31444   2.667   3.745   3.044  0.0176 -0.3683 -0.0948
15828W        W31445  10.187   7.744   4.842  0.1701  0.1926  0.1980
15829W        W31446   4.860  14.993   0.904  0.1903 -0.2216  0.1514
15830W        W31447  10.836   6.586   5.309  0.2937  0.0737  0.0806
15831W        W31448   1.566   7.945  13.316 -0.1592 -0.2141  0.1120
15832W        W31449  10.730  11.399   3.389  0.0203  0.0906 -0.0376
15833W        W31450  14.618  17.800   5.321 -0.0160  0.3802 -0.1291
15834W        W31451   9.124   0.838   1.750 -0.1067  0.0280  0.0718
15835W        W31452   5.723  16.027  14.568 -0.2231 -0.1679 -0.1223
15836W        W31453   5.957  14.656   0.120 -0.0533 -0.0114 -0.1547
15837W        W31454  14.724   9.224  12.131 -0.4607  0.2274  0.0602
15838W        W31455   8.911  11.419  15.416 -0.2961  0.1423 -0.2298
15839W        W31456   0.199  11.532   4.163 -0.1208 -0.2308  0.0958
15840W        W31457   4.810   1.048   1.061 -0.0652 -0.0889 -0.0827
15841W        W31458   8.052  12.014   0.421  0.1620 -0.1061  0.1470
15842W        W31459  16.184  10.835  11.737 -0.0108 -0.0646 -0.0021
15843W        W31460  17.738  16.395   1.842 -0.2356  0.1188  0.3902
15844W        W31461  12.637  12.426   0.800  0.2420 -0.3911  0.2992
15845W        W31462   6.340   3.934  13.268 -0.1463  0.0744  0.2623
15846W        W31463   2.065   9.321   0.503 -0.0370  0.0416 -0.0803
15847W        W31464   0.858   9.607   0.104 -0.0368  0.0444 -0.2401
15848W        W31465   3.179   5.926   1.828 -0.2174 -0.0857  0.1345
15849W        W31466  10.617  12.992   3.926 -0.2991 -0.0295 -0.3363
15850W        W31467  17.171  11.447   6.743 -0.0267 -0.1611  0.0675
15851W        W31468  13.433  16.143   3.606 -0.1777 -0.1286  0.2547
15852W        W31469  16.838  17.161  11.735  0.4055  0.0035 -0.2655
15853W        W31470   9.649   5.554  14.807 -0.2462 -0.0636  0.2295
15854W        W31471  16.993   5.509  15.899 -0.2216 -0.1206 -0.0791
15855W        W31472   5.387   2.294  16.399  0.0739 -0.1793 -0.1389
15856W        W31473   4.462   3.896  16.750 -0.0832  0.1393 -0.3923
15857W        W31474   7.198   7.872  12.044 -0.0370  0.3405  0.0525
15858W        W31475   0.138   5.385  16.513  0.1490  0.0378  0.2109
15859W        W31476   8.969   8.013   0.938  0.0293  0.1402  0.3577
15860W        W31477   5.435  11.842   3.659 -0.0894 -0.0457 -0.1790
15861W        W31478  13.980   8.150  12.183  0.1760 -0.4395  0.1536
15862W        W31479   8.609  12.978  11.788  0.3119  0.0114 -0.3254
15863W        W31480   8.250  15.109  16.654 -0.0496  0.1428 -0.1580
15864W        W31481   8.322  17.384  12.438  0.2936 -0.3600 -0.0308
15865W        W31482   7.424   8.206   3.687 -0.1270 -0.2609 -0.0062
15866W        W31483   0.522  13.703  11.990 -0.0393 -0.2376  0.3709
15867W        W31484  16.341  11.656  15.367 -0.1716 -0.1289  0.2661
15868W        W31485  17.939   5.566   1.608  0.0754 -0.1194  0.1951
15869W        W31486   4.652   8.130   4.861 -0.0866 -0.0097 -0.0718
15870W        W31487  17.994  14.796   4.640  0.0390  0.4288  0.0808
15871W        W31488   8.342  14.693  10.248 -0.3509 -0.1511  0.1313
15872W        W31489  11.041  11.896   9.895 -0.0581 -0.1030 -0.1187
15873W        W31490  12.037   1.256  12.265  0.0310  0.0196 -0.1040
15874W        W31491  11.823   2.204   6.002  0.0198  0.2269  0.0409
15875W        W31492   7.306  13.803  16.185  0.0355 -0.0064  0.0376
15876W        W31493   1.743   2.555   4.094  0.0073  0.1265  0.0325
15877W        W31494  17.659   4.612   3.832  0.0824 -0.1896 -0.1169
15878W        W31495   9.316  12.849   4.052 -0.1494 -0.0356 -0.0441
15879W        W31496  13.127   6.626  14.358 -0.0893  0.1263 -0.0169
15880W        W31497  13.737   9.744   1.639  0.0737  0.0307  0.0194
15881W        W31498   8.737   6.552  14.505  0.1370 -0.2580 -0.3915
15882W        W31499   0.616   8.055  14.838 -0.3935  0.2488  0.0246
15883W        W31500  17.058  12.886   0.003 -0.1225 -0.1375  0.1022
15884W        W31501  12.554   6.985   0.244  0.1034 -0.0286 -0.1660
15885W        W31502  14.428  16.388   4.872 -0.1561 -0.1117  0.4138
15886W        W31503   1.937  16.832  14.736  0.1928 -0.1456  0.0559
15887W        W31504  13.763   4.337  12.551 -0.1158  0.0398  0.3680
15888W        W31505   8.727  15.466   0.804  0.2403 -0.2669 -0.2453
15889W        W31506   9.216   2.574  13.308  0.0965  0.0222  0.2247
15890W        W31507   2.162  17.950  12.977  0.3407 -0.2180 -0.0780
15891W        W31508  16.615  14.911   1.075  0.0938  0.0948  0.0753
15892W        W31509   4.973   0.329   4.755 -0.0030 -0.2556 -0.0456
15893W        W31510  14.519   7.517  11.691 -0.3696  0.1665  0.1432
15894W        W31511  16.992  17.129  12.398 -0.0638 -0.3057 -0.1549
15895W        W31512  10.287   1.727   0.420  0.2125 -0.0209  0.4796
15896W        W31513   4.260  13.968  14.029  0.1318  0.0622 -0.1365
15897W        W31514  14.360   2.941   4.801 -0.0332  0.2005 -0.1128
15898W        W31515  12.096  10.993   3.485  0.2056  0.0435  0.0750
15899W        W31516  16.811  14.879  11.621 -0.2299  0.0092 -0.0391
15900W        W31517   9.955   7.297  10.721  0.1648 -0.1424  0.2562
15901W        W31518   8.465  10.722  15.789 -0.1232  0.1437 -0.0807
15902W        W31519  16.707  14.437   2.509  0.1710  0.2183  0.0303
15903W        W31520   0.219  13.675  15.670  0.1510  0.1068 -0.1345
15904W        W31521   7.104  17.809   1.087 -0.1791 -0.0327  0.1388
15905W        W31522   7.398  16.403   0.984  0.1835 -0.0883  0.0553
15906W        W31523   8.475   7.451  14.020  0.2204 -0.2680 -0.2000
15907W        W31524  14.414  15.139   1.813  0.0430  0.2123 -0.0373
15908W        W31525   3.088   6.343  13.310  0.3839  0.3174 -0.1286
15909W        W31526   4.106   2.604  14.109  0.0308 -0.0819 -0.1214
15910W        W31527   0.770   0.396  16.371  0.0508  0.1772 -0.0895
15911W        W31528  11.735  15.832  12.017 -0.0108 -0.0415 -0.1345
15912W        W31529   3.716  14.569   5.997  0.0730  0.0466  0.1433
15913W        W31530   5.410  14.824   4.374  0.3871  0.2281  0.1537
15914W        W31531   0.260  15.171   0.077  0.0159  0.5914  0.1835
15915W        W31532   7.753  13.428  15.301  0.0751 -0.2213  0.1473
15916W        W31533   4.619   8.725   1.226 -0.1360 -0.0904 -0.0421
15917W        W31534   3.850  12.525   2.992 -0.0820  0.1088 -0.2544
15918W        W31535  11.600   4.328   3.337  0.0063 -0.2305  0.0226
15919W        W31536   8.151  16.691   4.289  0.3134  0.0651  0.0615
15920W        W31537   4.339  17.463  12.399  0.0138  0.0154 -0.1478
15921W        W31538  16.829   9.504   6.423  0.0238  0.1437  0.2398
15922W        W31539   6.992  15.838  11.716  0.0228 -0.1652  0.0505
15923W        W31540   2.706  14.747   4.694  0.2000 -0.2340 -0.1433
15924W        W31541  10.870  14.938  16.785 -0.0415  0.1587  0.2559
15925W        W31542   9.933   2.916   0.709 -0.2697  0.2271 -0.1781
15926W        W31543  12.339   4.856  11.877  0.2182 -0.1272  0.0912
15927W        W31544  14.537   1.768  13.999 -0.1005  0.2509  0.2858
15928W        W31545  17.115   4.135   3.476  0.0251  0.1402  0.2109
15929W        W31546  12.101  14.864   2.519  0.1218  0.0952  0.2069
15930W        W31547  15.940  16.549   5.061 -0.0430 -0.2210 -0.1770
15931W        W31548  16.936   9.170   4.721  0.2261 -0.0156  0.0302
15932W        W31549  13.723   5.249  11.658 -0.1063 -0.0767  0.0932
15933W        W31550  13.920   2.742  15.913  0.1193  0.4043 -0.0037
15934W        W31551   8.174   7.010  15.786  0.1189  0.0453  0.0379
15935W        W31552  11.376  14.895   6.046  0.0729  0.3193  0.1085
15936W        W31553   3.962   3.093   0.416  0.4041  0.1585  0.1011
15937W        W31554   5.601  11.880  16.304 -0.0881 -0.2824 -0.0562
15938W        W31555  17.595   4.073  15.732 -0.1107 -0.0561  0.2624
15939W        W31556  10.193   3.130  11.863 -0.0420 -0.0514 -0.0150
15940W        W31557   3.684   7.302   3.326 -0.1758 -0.3148 -0.0710
15941W        W31558   5.468   0.190   3.755  0.1343  0.1504 -0.1889
15942W        W31559   5.743   8.306   3.137 -0.2106 -0.0370 -0.0351
15943W        W31560   5.232  13.667  11.680 -0.0627 -0.3856 -0.1175
15944W        W31561   1.626   4.192   2.995  0.0760 -0.0448  0.1943
15945W        W31562   6.085   3.087  12.299 -0.0631 -0.0693 -0.3020
15946W        W31563  11.669  16.182   6.367  0.1401 -0.0298 -0.2105
15947W        W31564   5.235  10.950  13.808 -0.0185 -0.0963  0.3482
15948W        W31565   8.190   4.882  10.988 -0.0213  0.4742  0.2070
15949W        W31566  14.907  16.313  12.928 -0.1058 -0.2415 -0.1494
15950W        W31567  16.326   9.250   1.971 -0.2620  0.1744 -0.3694
15951W        W31568   6.602   3.525   5.100  0.2022  0.3547  0.1827
15952W        W31569   5.901   2.089  14.207  0.2611 -0.0423 -0.0681
15953W        W31570   2.913   0.446  14.186  0.0100 -0.2453  0.1134
15954W        W31571   4.004  14.665   1.807  0.0284  0.1875  0.2679
15955W        W31572   7.096  15.518  14.199 -0.1746  0.2348  0.0312
15956W        W31573   6.714  11.118  15.138 -0.0597 -0.5096  0.1021
15957W        W31574   5.145  17.681   0.810  0.1569  0.0637  0.0824
15958W        W31575   8.083   0.304   0.285 -0.2013  0.1055 -0.1745
15959W        W31576   3.143   9.415  11.853  0.2895 -0.1626  0.0536
15960W        W31577   9.816  17.612   2.252 -0.0018 -0.0786 -0.0505
15961W        W31578   9.037  13.084   1.942 -0.0287 -0.3787 -0.2370
15962W        W31579   6.965   3.365   1.785 -0.0713  0.0382  0.3062
15963W        W31580  15.174   6.065  16.215 -0.0715  0.0682 -0.0578
15964W        W31581  14.097   6.713   1.946  0.1869 -0.1005  0.2323
15965W        W31582   9.723   5.442   3.120 -0.3583 -0.0114  0.3215
15966W        W31583   8.638   5.792  15.789  0.0939  0.0994 -0.0582
15967W        W31584   1.331   8.205   4.521  0.1712  0.1915  0.0809
15968W        W31585  10.443  16.632   4.233  0.0582 -0.0751  0.0167
15969W        W31586   6.340  10.962  14.651  0.3018 -0.2399 -0.4356
15970W        W31587   5.084   5.527   4.045  0.0947 -0.2241  0.5576
15971W        W31588   5.887  16.963   3.570  0.2090 -0.3065  0.3709
15972W        W31589   0.215  15.713  12.223  0.1093  0.4717  0.0735
15973W        W31590   3.820   9.096   0.616  0.1934  0.1143  0.0486
15974W        W31591   3.083  13.646   0.861 -0.0354 -0.2904  0.1425
15975W        W31592  15.792   4.458   5.625 -0.2297  0.1839  0.2295
15976W        W31593   8.655   2.360  11.920 -0.0922 -0.0354  0.0357
15977W        W31594   5.413   2.145   5.729 -0.3353  0.2581  0.0483
15978W        W31595  15.802   2.482   0.706 -0.2713  0.1110  0.0215
15979W        W31596   4.770  10.228   3.723 -0.0020  0.3060  0.1255
15980W        W31597  15.821   2.917   4.815  0.2162  0.2645  0.1168
15981W        W31598   5.264  17.723   1.952 -0.2600  0.2229 -0.1088
15982W        W31599   2.739  12.322  15.867 -0.0963 -0.2971 -0.1397
15983W        W31600   9.704   2.741   4.980 -0.0469 -0.0512  0.1182
15984W        W31601   4.741   4.187  12.657 -0.0827 -0.1109 -0.3363
15985W        W31602  17.347  17.911  15.178 -0.2229  0.0741  0.1245
15986W        W31603  10.891   2.482  11.911 -0.1518  0.0221 -0.2588
15987W        W31604  10.946   3.473   2.842  0.3065 -0.0453  0.2106
15988W        W31605   6.902  13.769   3.434 -0.1918 -0.1177 -0.0170
15989W        W31606  17.153  16.665  12.545 -0.0347  0.1928 -0.0867
15990W        W31607   0.912  13.322   2.566 -0.1776  0.1193 -0.3071
15991W        W31608  11.739  14.567  12.185 -0.0696 -0.2684  0.2459
15992W        W31609  16.009   4.601  12.889 -0.0216 -0.0136 -0.2135
15993W        W31610   0.539   6.349   2.624  0.1396 -0.1132 -0.2821
15994W        W31611  13.542   5.568   3.527 -0.1057  0.0652  0.1127
15995W        W31612  15.214   6.748  12.224 -0.1193 -0.0581 -0.0314
15996W        W31613  14.316  15.045  15.024 -0.0017  0.2784  0.3485
15997W        W31614   8.415  13.389  13.308  0.2894 -0.3848 -0.0463
15998W        W31615   8.692  13.433   4.327  0.0438 -0.2237 -0.1367
15999W        W31616  17.236  17.557   0.465  0.1517  0.2167  0.2417
16000W        W31617   0.215   7.962  16.019 -0.2912 -0.0019  0.4034
16001W        W31618  17.578  14.472  12.511 -0.2352  0.1513  0.1781
16002W        W31619  10.337   2.815   6.088  0.1629 -0.2168  0.0240
16003W        W31620   2.409  12.532  11.944  0.1006  0.3835 -0.0295
16004W        W31621   4.083   0.567   1.148  0.1632 -0.1079 -0.0283
16005W        W31622  17.893  14.850   1.710  0.4103 -0.2066  0.2970
16006W        W31623  18.005  11.101   1.098 -0.0428  0.3360 -0.1484
16007W        W31624  16.129   7.220  16.803 -0.2649 -0.0333  0.2256
16008W        W31625   4.201  16.872  14.439  0.2300  0.1586  0.3817
16009W        W31626  16.026   4.793  12.409  0.2931  0.0203 -0.1765
16010W        W31627   0.432   0.194   3.790  0.0029  0.3755  0.2013
16011W        W31628  16.946   8.258  16.417  0.2007 -0.2948  0.1308
16012W        W31629  12.648   1.826  14.556 -0.3512 -0.1988 -0.0892
16013W        W31630  15.483   7.276   2.136 -0.0803 -0.1441  0.0931
16014W        W31631  11.642   4.480  14.267 -0.2375 -0.0282 -0.1249
16015W        W31632  10.368  16.283  16.681 -0.0762  0.3891 -0.1303
16016W        W31633  10.011  14.766  10.913  0.0846 -0.0312 -0.3075
16017W        W31634   5.099   9.550  14.582 -0.4364 -0.0356 -0.1620
16018W        W31635   3.754   0.861   5.604 -0.2926 -0.0894  0.1194
16019W        W31636   9.462  15.443  15.522 -0.0555 -0.1479 -0.3347
16020W        W31637  17.211   8.194   2.040  0.2389 -0.3481 -0.0882
16021W        W31638  17.065  14.249   4.050  0.1878  0.1134  0.1149
16022W        W31639   2.960  10.727  14.791  0.0842  0.3270 -0.3190
16023W        W31640   2.921   6.215  11.847 -0.0065  0.2998  0.1455
16024W        W31641  11.424   6.506  13.450  0.1026 -0.0480  0.0752
16025W        W31642   5.359   6.760   2.285 -0.2361  0.1452  0.0103
16026W        W31643   8.448  14.845   6.021  0.2060 -0.0303  0.1086
16027W        W31644   9.355   5.916   2.969 -0.1393 -0.3409 -0.2883
16028W        W31645  13.864   7.151  12.489  0.0791 -0.3289  0.1584
16029W        W31646   2.034   9.576  11.806  0.0552  0.2264  0.0558
16030W        W31647  17.505  13.927   2.974 -0.1726  0.1187  0.0133
16031W        W31648  10.179  11.443   0.337 -0.1346 -0.0845 -0.1039
16032W        W31649   2.001   2.412   4.551 -0.0213 -0.1139 -0.4881
16033W        W31650   1.867  15.590  13.121  0.0759 -0.1984  0.3033
16034W        W31651  12.984   3.795  13.048  0.0940 -0.1378 -0.1071
16035W        W31652  10.606  11.676  16.763 -0.2932 -0.3288 -0.3556
16036W        W31653   6.503  14.168  14.689  0.0363  0.4697 -0.0540
16037W        W31654   5.078   9.685  10.919 -0.0694 -0.3257 -0.1651
16038W        W31655   8.263   1.943   1.782  0.0142 -0.3902 -0.1501
16039W        W31656   0.406  10.666   5.226  0.2441  0.0331  0.0021
16040W        W31657   3.583  11.399   2.981 -0.4662 -0.0290  0.1968
16041W        W31658  12.270   7.301  16.095 -0.1132  0.1423  0.3794
16042W        W31659   2.012   8.236   1.225 -0.2604 -0.1620 -0.2140
16043W        W31660   3.608   9.797   3.553  0.1737  0.0666 -0.0640
16044W        W31661   0.529  13.027   3.804  0.2876  0.1038 -0.3562
16045W        W31662   1.144   2.695  14.121  0.1220 -0.0456 -0.3137
16046W        W31663   3.657  12.530   4.013  0.3273 -0.1452  0.2750
16047W        W31664  16.151   8.870   2.193  0.5348 -0.0491 -0.1643
16048W        W31665   3.308  16.413   1.039  0.1394 -0.1744 -0.1756
16049W        W31666  11.178  12.763   2.083  0.1868 -0.0977  0.0051
16050W        W31667   5.823  13.125   4.459 -0.2429 -0.0651  0.2186
16051W        W31668  10.827  10.741   4.740 -0.0270  0.3271 -0.0047
16052W        W31669   1.707  16.013   3.700 -0.0847  0.3719 -0.1145
16053W        W31670  11.337   1.888   4.273 -0.0655 -0.1782 -0.4504
16054W        W31671   2.906   8.154  13.318  0.1551  0.1846 -0.2185
16055W        W31672   4.600   9.252   2.722  0.0838 -0.1678 -0.1211
16056W        W31673   7.682   8.519  11.243  0.0833 -0.2305 -0.2419
16057W        W31674  11.731  17.802   2.250  0.0260 -0.3533 -0.2936
16058W        W31675  16.650   2.014   1.015 -0.1817  0.0143  0.0107
16059W        W31676   3.623  15.284   6.048 -0.0446 -0.2081  0.2395
16060W        W31677   4.863  17.197  16.133 -0.0821 -0.2645 -0.0327
16061W        W31678   1.902   3.956  11.874  0.2877 -0.2485 -0.0645
16062W        W31679   3.930   7.191  15.871 -0.3178 -0.0959  0.1591
16063W        W31680  10.083   9.650   4.533 -0.1644  0.0495  0.2336
16064W        W31681  16.730   1.971   4.047 -0.3210  0.2152  0.0706
16065W        W31682  14.166  14.974   4.412  0.4144  0.0039 -0.0303
16066W        W31683   4.241   9.119   3.107 -0.0976 -0.0003 -0.1749
16067W        W31684  14.414  10.650  15.868 -0.0940 -0.1241 -0.0349
16068W        W31685  16.823   2.622   2.187 -0.1609 -0.1373  0.0750
16069W        W31686   4.757  12.141   4.276  0.0509  0.0294  0.1001
16070W        W31687  14.895  12.872  12.975  0.0378  0.1034  0.2082
16071W        W31688  10.231   0.021  16.311  0.0916  0.1330  0.2549
16072W        W31689   4.549  15.575  12.607  0.1174 -0.0303 -0.0691
16073W        W31690   1.597   0.092   2.938  0.2168 -0.1443 -0.2639
16074W        W31691  17.588   1.952   5.310  0.2981 -0.0032  0.1941
16075W        W31692  10.788   0.141   0.174  0.3773 -0.1280  0.2091
16076W        W31693  15.690   8.015   3.461  0.4216 -0.1376 -0.1291
16077W        W31694   7.345   9.776  14.849 -0.3383  0.0550 -0.2379
16078W        W31695  14.751   6.744   5.090  0.0638  0.3378 -0.2228
16079W        W31696   3.139   8.846  15.693 -0.0354 -0.0484  0.0684
16080W        W31697   0.368  11.855   4.479  0.0187 -0.2029 -0.2734
16081W        W31698  16.145   4.119   0.933  0.3684  0.2528 -0.1224
16082W        W31699   3.018  15.868   0.767  0.0072  0.0302  0.0992
16083W        W31700   9.007   8.176   2.772 -0.0091  0.1184  0.1697
16084W        W31701  15.419   9.117   3.849 -0.0900 -0.1022  0.1154
16085W        W31702   5.515   5.612  15.490  0.0516  0.1639  0.1510
16086W        W31703   5.622   4.151  15.682 -0.0059  0.0222 -0.3421
16087W        W31704   5.167   4.196  15.469  0.1754  0.0733  0.2659
16088W        W31705  15.454   0.638  15.634 -0.1494  0.0805 -0.0754
16089W        W31706   0.170  11.662   4.930  0.1866  0.0523  0.0776
16090W        W31707  10.795   4.244  12.256 -0.0986  0.2813  0.1354
16091W        W31708   7.649  13.026   2.011 -0.2756  0.0988  0.0605
16092W        W31709   8.843  11.907  15.213 -0.0127  0.1392  0.2383
16093W        W31710   3.157   4.362   3.867  0.2304 -0.1747  0.3497
16094W        W31711  11.159   0.081   6.315  0.0406 -0.1032 -0.3486
16095W        W31712   0.797   3.997   3.607 -0.0450  0.1315 -0.2414
16096W        W31713  10.499  16.029  13.895 -0.1866  0.2044 -0.3454
16097W        W31714  15.840   7.916  16.194 -0.0558 -0.3355 -0.1619
16098W        W31715   7.678  11.333  13.546  0.7018  0.1289  0.1771
16099W        W31716   9.490  11.172   2.458  0.3336  0.0592  0.1619
16100W        W31717   4.688  17.643  14.072 -0.2087 -0.0967  0.0612
16101W        W31718  14.643   1.399  14.887 -0.1396  0.1857 -0.1140
16102W        W31719  10.263  16.744  12.731  0.0589 -0.0724  0.1656
16103W        W31720   8.222  16.871   0.004 -0.0942 -0.0577 -0.3658
16104W        W31721   5.283   0.313  12.797  0.1114  0.1767  0.0628
16105W        W31722   3.052  10.942  15.820 -0.2176 -0.2126  0.3381
16106W        W31723  16.926   5.631  13.378 -0.2611 -0.2812  0.2257
16107W        W31724   0.234  13.105   3.266 -0.0304  0.0466  0.3748
16108W        W31725  15.047  17.695  14.328  0.1035  0.1421  0.2203
16109W        W31726   8.905   8.664   2.585  0.0660 -0.0438 -0.0797
16110W        W31727   4.308   2.178   2.319  0.0960 -0.0106  0.2755
16111W        W31728  12.881  13.957   3.993  0.0073 -0.0166 -0.1891
16112W        W31729  15.927   1.453  13.639 -0.0469 -0.1928 -0.2855
16113W        W31730   7.906   3.145  15.188 -0.1077  0.0472 -0.1153
16114W        W31731   0.391  16.088   0.609  0.0669 -0.0353 -0.1534
16115W        W31732   2.636   5.256   1.293 -0.2322  0.2458 -0.1570
16116W        W31733   8.129   8.850   9.857  0.0449 -0.2828 -0.1149
16117W        W31734   2.106  11.526  13.014 -0.3723  0.0903 -0.4141
16118W        W31735  17.638   4.174   1.535  0.0341 -0.1576  0.1925
16119W        W31736   0.612   5.951  12.638 -0.1371 -0.2632  0.2724
16120W        W31737   4.362   8.907   4.155  0.3543  0.1332  0.2059
16121W        W31738   4.743   0.509   0.173 -0.1580 -0.1877  0.1433
16122W        W31739  15.605   3.984   1.162  0.0315  0.4496 -0.1901
16123W        W31740   4.242   8.636  13.957  0.0445 -0.1444 -0.2911
16124W        W31741   3.664   4.317   4.643  0.3393  0.0251  0.2141
16125W        W31742  15.345  15.870   1.846 -0.2292 -0.2098  0.1133
16126W        W31743   7.732   7.615   3.991 -0.2878 -0.0524 -0.1606
16127W        W31744   6.312   6.911  13.916  0.0582 -0.2792  0.3255
16128W        W31745   8.003  17.790  12.455  0.0119  0.1196  0.1613
16129W        W31746  12.604   1.975  12.209 -0.1360 -0.3586  0.0565
16130W        W31747   8.817  15.933   2.095 -0.0170  0.0289 -0.0497
16131W        W31748  16.784  17.844   5.703 -0.1856 -0.2027  0.1620
16132W        W31749   2.406  14.620  14.357  0.1635 -0.0034  0.1625
16133W        W31750  17.667   6.280   6.035  0.2630  0.0952 -0.4115
16134W        W31751  13.338   1.323   0.502 -0.0351  0.1834 -0.0100
16135W        W31752   1.532   8.210  12.200 -0.3627 -0.1385  0.3804
16136W        W31753   3.199   3.666   2.858 -0.0261 -0.1046  0.0856
16137W        W31754   8.931  15.085   0.477  0.0156  0.1976 -0.2292
16138W        W31755   8.369  10.101  13.223  0.1397 -0.1420  0.1331
16139W        W31756   3.233   2.848  15.673  0.0018  0.1436  0.4136
16140W        W31757   2.543  14.753  12.883  0.0602 -0.0159 -0.1542
16141W        W31758   2.444   8.876  11.315  0.2589 -0.2315  0.2938
16142W        W31759   1.398  11.547   5.193 -0.1994  0.0533  0.3134
16143W        W31760  17.478   7.290  16.044  0.1075 -0.3783  0.1258
16144W        W31761   5.558  16.812   2.293 -0.0380 -0.2475  0.0643
16145W        W31762  13.121   6.491  15.535  0.1461  0.1580 -0.0567
16146W        W31763   9.422   0.232   2.131  0.2810 -0.1280  0.1552
16147W        W31764   6.169  17.966  16.548 -0.3063 -0.0770 -0.0572
16148W        W31765   9.586   5.749  15.277  0.3028 -0.0256  0.3732
16149W        W31766  17.716   1.085   4.759 -0.0461  0.0291 -0.1816
16150W        W31767   0.927  16.987  13.337 -0.2842  0.0166 -0.1761
16151W        W31768  16.198  15.802   2.244  0.2889 -0.2955  0.2454
16152W        W31769   2.610   1.610   0.496  0.0802  0.1806  0.3280
16153W        W31770  17.544  14.715  16.610  0.1145  0.0655 -0.1776
16154W        W31771   9.848   7.810  13.008 -0.1767 -0.1769 -0.3046
16155W        W31772  16.139  15.499   3.661 -0.1329  0.3448  0.2329
16156W        W31773   8.213  11.238   1.463  0.1949  0.2099  0.1635
16157W        W31774  16.863   3.793  16.492  0.1615 -0.0322  0.0130
16158W        W31775  12.202  13.644  15.746  0.1894 -0.1866  0.0436
16159W        W31776  17.038   3.671   4.639  0.0356  0.1845  0.0813
16160W        W31777   6.111   1.754   3.356  0.1647 -0.1184  0.1166
16161W        W31778  14.649   3.608   2.051 -0.1366  0.2325 -0.1542
16162W        W31779   6.517   7.200  13.233  0.0141  0.0605 -0.0788
16163W        W31780  15.331   2.244  12.316 -0.2220 -0.0489  0.0797
16164W        W31781  10.551   6.999  16.781  0.1153  0.0227  0.2778
16165W        W31782   9.405   9.193   2.639  0.0143  0.3118 -0.2066
16166W        W31783   3.506  15.157  13.472 -0.0089 -0.1129  0.0533
16167W        W31784   9.415   6.162  14.251 -0.0795 -0.3892  0.0110
16168W        W31785  10.281  13.270  14.306 -0.0955  0.1950  0.1447
16169W        W31786   6.081   0.519  12.635 -0.1411  0.1273  0.0570
16170W        W31787  11.969   5.903  16.144 -0.1845  0.1233  0.0882
16171W        W31788   0.896  17.405   4.934  0.0679 -0.0141 -0.1745
16172W        W31789   0.357   3.246   4.834 -0.2015 -0.2523  0.1685
16173W        W31790   0.216  13.335  11.974  0.0162  0.0560  0.2498
16174W        W31791   4.859   5.362   5.288 -0.0125 -0.0485 -0.0483
16175W        W31792  13.056   3.225  13.849 -0.2392  0.2265 -0.1106
16176W        W31793   2.650   2.296   4.284  0.0615  0.1509 -0.1911
16177W        W31794  17.453   7.331   0.309  0.0982 -0.3733  0.3103
16178W        W31795   6.400   7.108  15.690 -0.0318 -0.0910 -0.3336
16179W        W31796  14.075  10.982  12.849 -0.0782  0.1132  0.2791
16180W        W31797   5.588   1.966  16.808 -0.0968  0.2735 -0.0051
16181W        W31798  17.781  10.988   5.626  0.2270 -0.2296 -0.2177
16182W        W31799   1.149  11.112   5.147 -0.1493 -0.0653  0.3329
16183W        W31800  12.248  12.498   3.575 -0.0936  0.0197  0.2039
16184W        W31801  10.393   4.661  15.569  0.0088  0.1052  0.1556
16185W        W31802   5.608   7.618  13.783 -0.1621  0.1213 -0.1830
16186W        W31803  16.719  11.265   4.956  0.0724 -0.0121  0.1050
16187W        W31804  14.142   1.322   1.384  0.1517 -0.1230 -0.2616
16188W        W31805   6.681  16.219  13.046  0.1759  0.0224  0.1988
16189W        W31806   4.969   5.449   2.603  0.1249  0.2515  0.1865
16190W        W31807   4.223   4.612  12.671 -0.4006 -0.2968  0.2980
16191W        W31808  13.138  12.844  14.375 -0.0409 -0.1212 -0.2113
16192W        W31809   3.185  16.256   5.388  0.3924 -0.0624 -0.0607
16193W        W31810  13.198  10.869  16.558 -0.2682 -0.2313 -0.1622
16194W        W31811   1.388  10.712  14.405  0.0291  0.1733 -0.0185
16195W        W31812   3.385   2.770   3.277  0.0847 -0.2481 -0.1801
16196W        W31813  13.999   3.474  15.153  0.3355  0.0242 -0.2018
16197W        W31814  11.632  14.383  15.181  0.0750 -0.1695 -0.0628
16198W        W31815  11.779   6.594   5.203 -0.2240 -0.1637 -0.1402
16199W        W31816   3.811   9.119   0.035  0.0714  0.1878  0.3336
16200W        W31817   2.842  12.154  14.672  0.2059 -0.0263  0.0163
16201W        W31818  10.527  17.088   4.512 -0.1153 -0.0467 -0.0222
16202W        W31819  15.732   9.090   3.404  0.2588 -0.1045  0.0047
16203W        W31820  15.623   5.226   1.089  0.1696  0.3445  0.0480
16204W        W31821  13.245   6.965  11.816  0.0661 -0.0912 -0.1423
16205W        W31822   1.624  17.431   2.284 -0.1128 -0.0044  0.0721
16206W        W31823   0.660  10.073  12.018 -0.2450 -0.2034  0.4284
16207W        W31824  14.416  12.821   1.849  0.1441 -0.0215  0.1128
16208W        W31825   4.154  17.714  12.885  0.0551 -0.1090 -0.3587
16209W        W31826   5.958   1.049   0.465  0.0879  0.0361 -0.2345
16210W        W31827  13.642   5.814   2.236  0.1668 -0.2257  0.0636
16211W        W31828  14.319   6.033  13.002 -0.1393 -0.0099  0.1058
16212W        W31829  11.508  16.387  14.189 -0.0144 -0.0295  0.1049
16213W        W31830   0.838  11.623   4.422 -0.0239 -0.2715  0.1609
16214W        W31831  17.235   8.576  15.971 -0.0057  0.3041 -0.1501
16215W        W31832  11.679   2.328  15.266  0.3667  0.1826  0.0629
16216W        W31833  17.506   4.546   6.370  0.0008 -0.2667  0.1409
16217W        W31834   2.451  11.908  16.104 -0.3058  0.1768  0.0256
16218W        W31835   6.774   9.144  15.499 -0.0810 -0.2597  0.1481
16219W        W31836  12.372  11.455  15.701 -0.1009  0.1676  0.0662
16220W        W31837   7.553   5.273  15.820  0.0148  0.2459  0.1711
16221W        W31838  17.576   7.166  14.869 -0.4432 -0.0760 -0.0796
16222W        W31839   8.660  16.420  16.187 -0.1152  0.0405  0.1301
16223W        W31840  10.417   1.275  13.326 -0.1813 -0.0169  0.0254
16224W        W31841  11.218   3.853   1.757  0.0616 -0.2286 -0.0968
16225W        W31842   3.685   1.724  13.115 -0.5450  0.0673  0.3067
16226W        W31843   0.751  16.003   0.950 -0.3893  0.0250 -0.1091
16227W        W31844   5.630   1.688   4.219  0.0488  0.0901  0.1606
16228W        W31845   9.778   9.225   4.043  0.1018 -0.2229  0.1277
16229W        W31846   3.412  10.003  15.174  0.2469 -0.1132  0.2931
16230W        W31847  12.013   7.022   5.003 -0.0724  0.0737 -0.1117
16231W        W31848   2.728  16.709  13.534  0.5832  0.1943  0.1353
16232W        W31849   9.341  10.861   3.361  0.0831 -0.1891 -0.0397
16233W        W31850   7.179  15.374   0.044 -0.0222  0.5259 -0.3681
16234W        W31851   6.598   7.510  16.585  0.1939  0.2687 -0.0937
16235W        W31852  16.956  17.093   4.914  0.2330  0.1788  0.0531
16236W        W31853   3.179  17.611  15.627  0.2908 -0.1924  0.2153
16237W        W31854  11.482  16.501  15.518 -0.1384 -0.0235 -0.2082
16238W        W31855  14.400   4.291   4.731 -0.3504  0.3287  0.2621
16239W        W31856  12.266   1.091  11.754  0.0352 -0.1998 -0.0530
16240W        W31857   1.045   1.020  12.658  0.0598  0.1915  0.0723
16241W        W31858  12.748  17.712  15.131 -0.3762  0.1326 -0.1492
16242W        W31859  11.135   4.939   4.008 -0.0417  0.2399  0.3006
16243W        W31860   4.788  11.325  11.938 -0.2059  0.3309 -0.2562
16244W        W31861  15.636  13.614   0.682 -0.0429 -0.1599 -0.1079
16245W        W31862  13.796   2.825  12.939  0.0156 -0.0107  0.4312
16246W        W31863   9.601   0.584  16.588  0.0125 -0.2371 -0.0730
16247W        W31864   4.542   6.138  13.365 -0.0805  0.0139 -0.1431
16248W        W31865   9.453  13.037  16.386 -0.0662 -0.2031 -0.3924
16249W        W31866  17.489   9.103  16.169 -0.0891  0.2015 -0.3610
16250W        W31867  14.725  15.058   1.375 -0.5595 -0.3720 -0.0328
16251W        W31868  15.802   3.043  13.645  0.2754  0.1138 -0.0488
16252W        W31869  10.649  13.279   2.208 -0.1657  0.0248  0.0504
16253W        W31870   0.973  15.821   4.792 -0.0753  0.0536 -0.0012
16254W        W31871  15.823  14.691   0.609  0.0943  0.1419 -0.1298
16255W        W31872  10.951   1.286   3.165  0.2957 -0.1124 -0.0597
16256W        W31873   3.023   0.726  13.728  0.1465 -0.1347  0.1233
16257W        W31874  11.652   9.254   4.836 -0.2561  0.0091 -0.0344
16258W        W31875  13.507   0.413   2.566  0.0136 -0.2399  0.1262
16259W        W31876  13.010   1.432  12.662 -0.0976  0.0139 -0.0817
16260W        W31877  13.147   8.682  15.916 -0.1818 -0.1633 -0.2181
16261W        W31878  14.109   6.518   3.659  0.1016 -0.0327 -0.0137
16262W        W31879  10.824   4.597   0.999 -0.1809 -0.0502  0.0878
16263W        W31880  17.044  14.951   4.272 -0.0319  0.1236 -0.1091
16264W        W31881   5.808  14.517   4.616  0.2369 -0.3339 -0.0430
16265W        W31882   7.726  15.323   0.069 -0.2293 -0.2345  0.1836
16266W        W31883   3.616   0.310  12.074 -0.3166  0.2300 -0.1362
16267W        W31884   4.325   7.306   1.572  0.0633  0.1206 -0.5163
16268W        W31885   9.984   4.585   1.730 -0.2103 -0.0094 -0.2757
16269W        W31886  12.801   8.206  12.079  0.0321 -0.0521 -0.3514
16270W        W31887   7.136  12.622   2.899  0.2127  0.0947 -0.2168
16271W        W31888   6.314  14.645   1.127 -0.2383  0.0472  0.0074
16272W        W31889  14.144   1.499   0.471 -0.3137 -0.1789 -0.0338
16273W        W31890  13.247   3.712   3.752  0.0687  0.1392  0.3109
16274W        W31891  12.299  15.697   4.000 -0.0461 -0.0297 -0.1655
16275W        W31892  11.398   8.685  13.985 -0.0814  0.0268 -0.3552
16276W        W31893   6.662   2.410   0.020  0.2023 -0.2168  0.2360
16277W        W31894  17.841  14.592   6.004 -0.0401  0.1438  0.1401
16278W        W31895  16.909  12.563   0.407 -0.2529 -0.0896  0.0954
16279W        W31896  17.538   9.104  13.532 -0.0804  0.3417  0.0738
16280W        W31897  10.824  15.701  15.267  0.2096 -0.1268 -0.0165
16281W        W31898   0.389   9.253  12.343  0.0185 -0.0979 -0.0395
16282W        W31899  16.295   7.458  13.725  0.1765  0.2277 -0.0377
16283W        W31900  11.366  15.753   0.947  0.0124 -0.0484 -0.0507
16284W        W31901   4.212   7.154  13.500 -0.0548 -0.0560 -0.0266
16285W        W31902   5.164   4.055   1.558 -0.4199 -0.0319 -0.1238
16286W        W31903  11.416   3.843   4.940 -0.1400  0.0966 -0.0176
16287W        W31904   2.379  13.940   1.417  0.0142 -0.4809 -0.1664
16288W        W31905  12.917  11.127   3.611  0.3669 -0.2634  0.0719
16289W        W31906   4.273  12.237   0.285 -0.1263  0.1804 -0.0269
16290W        W31907   3.846  15.990   1.901 -0.1527 -0.1748 -0.3031
16291W        W31908  13.459  12.509   1.841 -0.2762 -0.2193  0.0732
16292W        W31909  13.961   6.996  13.902 -0.1328 -0.1021  0.1574
16293W        W31910  10.898   2.863  12.674 -0.0140 -0.1621  0.1580
16294W        W31911   9.644   9.711  13.609 -0.3549  0.0720 -0.0942
16295W        W31912  16.204   1.604   0.817 -0.4836  0.1089  0.0983
16296W        W31913  17.783   1.417  14.320 -0.0757 -0.2450 -0.2000
16297W        W31914   3.978   9.754  11.497  0.2582 -0.0235  0.0477
16298W        W31915  11.690  15.597  14.454 -0.1217  0.1305  0.2489
16299W        W31916  15.390   3.671   0.846  0.1241  0.2428  0.0929
16300W        W31917   3.319   8.851   2.642  0.1819  0.1836 -0.1328
16301W        W31918   4.247   3.783  10.478 -0.4508  0.0909  0.1335
16302W        W31919  16.242  13.708   3.624 -0.1507  0.1369  0.0066
16303W        W31920  17.942  10.065  15.348 -0.2463 -0.0548 -0.1709
16304W        W31921   3.647   8.465   3.550  0.1645  0.3793 -0.0034
16305W        W31922  15.009   3.756   5.925 -0.2419  0.2593  0.0437
16306W        W31923   6.447  10.714  15.829 -0.0995 -0.3703 -0.0293
16307W        W31924   8.605   1.492  12.040  0.1290 -0.1949  0.0553
16308W        W31925   2.452   8.661  10.796  0.0142  0.3847 -0.0642
16309W        W31926   3.027   6.688  12.003  0.1208  0.2362  0.1817
16310W        W31927   0.636   4.189   5.315  0.0604 -0.1116  0.0856
16311W        W31928   6.824  10.302   4.568 -0.2842 -0.0358 -0.0972
16312W        W31929   7.514  15.398   5.197  0.1114  0.1095  0.1935
16313W        W31930   9.647  16.396  11.597 -0.1342 -0.1769  0.1265
16314W        W31931   8.004   5.662   1.742 -0.0272 -0.0739 -0.1788
16315W        W31932  16.809   9.623   5.496 -0.0131  0.1254 -0.2573
16316W        W31933   0.688  15.787   2.279  0.0853  0.0277  0.1749
16317W        W31934   2.214   2.345  10.901 -0.0675  0.1753 -0.0217
16318W        W31935  16.577   0.839   5.362  0.1320  0.2619 -0.0689
16319W        W31936  17.681  16.116   0.515  0.3405  0.3467  0.1691
16320W        W31937  14.766  15.683   1.042 -0.0785 -0.0743  0.1869
16321W        W31938  13.137   7.484  14.408 -0.3995 -0.2140  0.1897
16322W        W31939  15.138  13.625   2.701 -0.1134 -0.0508  0.0072
16323W        W31940  15.512   7.933   4.435 -0.0377 -0.1377  0.4400
16324W        W31941   7.709  14.264   1.329  0.2420  0.1762 -0.2196
16325W        W31942   8.006  17.006   3.418 -0.2278 -0.0852  0.1594
16326W        W31943   2.158  14.990   3.325 -0.0379 -0.0322  0.1798
16327W        W31944  15.918   6.492  12.463  0.1387  0.3272  0.1950
16328W        W31945   1.137  10.729  12.421  0.0635  0.0119  0.2021
16329W        W31946   5.755   0.326   3.300  0.3377 -0.1238 -0.3531
16330W        W31947   2.696  14.366   1.312  0.2295  0.0997 -0.2015
16331W        W31948  13.385   2.758  15.955  0.1155 -0.3099  0.0060
16332W        W31949   9.484   0.761   1.451  0.1168  0.2198 -0.0387
16333W        W31950   9.430   1.707   1.675 -0.0052  0.1108  0.2263
16334W        W31951   1.357   0.702  12.922  0.3066 -0.0509 -0.1034
16335W        W31952  15.724  11.291   3.557 -0.1613 -0.1063 -0.0273
16336W        W31953   3.995  14.992  15.527  0.0192  0.2087 -0.1021
16337W        W31954   4.650   3.641   4.444  0.1528 -0.0534 -0.1312
16338W        W31955   4.465  11.012  15.137 -0.1290  0.0950  0.0677
16339W        W31956   9.641   9.423  14.759  0.3737 -0.1120  0.1677
16340W        W31957   5.699   7.091   4.830  0.0680 -0.0860  0.0693
16341W        W31958  13.625  14.604   1.132  0.0665 -0.0511 -0.2318
16342W        W31959   2.295  15.473   3.585  0.0783 -0.0222 -0.2043
16343W        W31960  12.544   6.632   1.919 -0.1542 -0.0840 -0.0428
16344W        W31961  16.350   4.201   1.816 -0.1068 -0.0737  0.2162
16345W        W31962  17.574  11.441  13.234 -0.0765  0.0580  0.0497
16346W        W31963  18.039  13.460   1.952  0.1757  0.1464 -0.1669
16347W        W31964  13.601  13.292  13.710 -0.0122 -0.1131  0.0287
16348W        W31965  13.449  14.238  11.916  0.0970  0.2087  0.0101
16349W        W31966   2.757   1.088   0.936 -0.2374 -0.0814 -0.1593
16350W        W31967  16.960   3.131   4.728  0.1546  0.1085  0.0636
16351W        W31968   6.688   9.935  11.607  0.0645  0.3691 -0.0866
16352W        W31969   8.951   7.065  13.661  0.0169 -0.0235  0.0939
16353W        W31970  15.862   2.959  16.394 -0.0628 -0.1141  0.1451
16354W        W31971  12.493   0.080  16.548 -0.0785 -0.3870 -0.1315
16355W        W31972   6.580  16.310   0.662 -0.1403 -0.1308  0.0648
16356W        W31973  12.044   6.989  13.931  0.0870 -0.0354  0.0022
16357W        W31974  15.090  14.080  13.486  0.1582  0.1993  0.0068
16358W        W31975  11.799   3.795  12.814 -0.0044 -0.1321 -0.1707
16359W        W31976   0.321   2.667   2.958  0.1615 -0.2480 -0.0120
16360W        W31977  14.914   1.820   1.565 -0.0522  0.2077  0.3825
16361W        W31978  10.894  17.521  11.745 -0.1910  0.0585  0.2950
16362W        W31979  12.507   2.439   1.463 -0.3137  0.1882 -0.2691
16363W        W31980  10.810   0.171  12.279 -0.0537  0.0466 -0.0823
16364W        W31981  11.153   7.074   1.232  0.0426  0.0315  0.2147
16365W        W31982  17.817  12.957  12.886 -0.1313  0.0085 -0.1252
16366W        W31983  11.676   8.409   3.005 -0.0251  0.0961 -0.1668
16367W        W31984   3.500  17.222  13.892 -0.1268  0.1971 -0.2989
16368W        W31985   7.392  17.645   4.589 -0.1227  0.1712 -0.0643
16369W        W31986  15.423   4.457   1.340 -0.0479 -0.0901  0.2013
16370W        W31987  12.316   5.827   1.743 -0.1616  0.0942  0.0552
16371W        W31988   1.905   3.439   3.752 -0.1390 -0.0064  0.2462
16372W        W31989   9.226   1.941   4.916  0.0545 -0.4413 -0.3462
16373W        W31990   0.585   6.104   5.224 -0.0806 -0.4605  0.2026
16374W        W31991   5.550   3.612  13.353  0.0856 -0.1536 -0.2067
16375W        W31992   5.671   1.882  16.247 -0.0479  0.0044  0.0423
16376W        W31993   0.621   1.558  13.766 -0.1964  0.1449 -0.1530
16377W        W31994  15.997  10.557   1.528 -0.0125 -0.2095  0.0539
16378W        W31995   3.489  11.666   5.369  0.2075 -0.0284  0.2973
16379W        W31996  10.945   9.192  11.875  0.4869 -0.3138  0.2282
16380W        W31997  16.741  14.536  13.403  0.1272 -0.3257  0.2529
16381W        W31998   1.540   9.857   5.755  0.0159 -0.2284  0.0734
16382W        W31999   9.708  13.114  14.328  0.0275  0.0904 -0.3051
16383W        W32000  13.377   2.526   0.021  0.1909  0.1386  0.0082
16384W        W32001  15.569   6.331  14.896 -0.0287 -0.1414  0.1100
16385W        W32002   1.928   1.138  11.564  0.0409 -0.1708 -0.0236
16386W        W32003  13.581   9.507   0.798 -0.0697  0.1932  0.0692
16387W        W32004   2.825  14.999   0.597  0.0693 -0.0292 -0.2675
16388W        W32005  16.080  11.651   5.665  0.0925  0.1992 -0.0513
16389W        W32006  13.195   8.313  13.732  0.1364  0.0479  0.1362
16390W        W32007  11.922   6.266  16.545 -0.1301  0.1349  0.0936
16391W        W32008   2.143   5.471  14.572  0.0258 -0.0445 -0.0312
16392W        W32009  12.761   0.771  15.824  0.2786 -0.0139 -0.1679
16393W        W32010   0.779   0.299   0.124  0.0309 -0.0235  0.1158
16394W        W32011   2.833  13.224   1.567  0.2826 -0.3903 -0.2334
16395W        W32012   9.026   9.126  11.103  0.0354  0.0292 -0.0719
16396W        W32013  10.847  15.040   4.004 -0.2721  0.0409  0.2691
16397W        W32014  10.232   2.108   5.517  0.3056  0.3033  0.0692
16398W        W32015   6.062  17.671   0.529 -0.0093 -0.0116 -0.0827
16399W        W32016   7.658   1.441  13.105 -0.2294 -0.2046  0.1776
16400W        W32017   9.252  13.873   3.341  0.0636 -0.0751  0.2458
16401W        W32018   5.167   0.947   3.069  0.0923  0.1571  0.3659
16402W        W32019   9.317  14.137  10.674 -0.2266  0.1170 -0.1199
16403W        W32020  13.910  16.501   1.455  0.1519  0.0108 -0.0929
16404W        W32021   6.482  11.680  13.452  0.4759  0.1462  0.1356
16405W        W32022  11.607  13.182   1.911  0.1454  0.0088 -0.0717
16406W        W32023  12.744   1.762  14.043  0.1578 -0.3782 -0.1069
16407W        W32024  17.365   2.329   2.937  0.1405 -0.1149  0.1017
16408W        W32025   1.610  13.564  15.426  0.0858  0.1364  0.1203
16409W        W32026  16.601   0.640  16.228  0.2331  0.5234  0.1328
16410W        W32027  17.648   3.303   6.184  0.1264 -0.0321  0.4006
16411W        W32028  12.073   7.306   1.080 -0.0918 -0.1611 -0.2042
16412W        W32029   9.532   9.850   1.480 -0.0995 -0.1949 -0.2281
16413W        W32030   9.607   6.688   2.135  0.2003  0.1947 -0.0517
16414W        W32031  16.492   7.549   3.497  0.0456  0.1665 -0.2590
16415W        W32032  14.293  14.565   2.432  0.0782  0.2989 -0.0675
16416W        W32033  10.344   0.956  12.172 -0.2813 -0.0804  0.0766
16417W        W32034  14.295   2.449  15.817 -0.0304 -0.1018  0.1870
16418W        W32035  10.087   3.139  14.784 -0.3485 -0.1537 -0.0877
16419W        W32036   4.792   5.431  11.796  0.2222  0.1449 -0.3363
16420W        W32037   3.265   7.391  13.254 -0.4136  0.4364 -0.0194
16421W        W32038  15.438   7.615  16.218 -0.1275 -0.0027  0.0223
16422W        W32039   8.626   9.633   3.995  0.0657  0.0027 -0.0436
16423W        W32040   3.132  12.292  14.083  0.0317  0.1650 -0.0855
16424W        W32041  13.706  17.606   3.556 -0.0149  0.2096 -0.1613
16425W        W32042   0.648  10.086  13.998 -0.0979  0.3093 -0.1503
16426W        W32043   5.310   8.894   2.646  0.0423 -0.0815  0.1112
16427W        W32044   9.191  14.910   5.387  0.2214 -0.1312  0.0307
16428W        W32045  17.976   3.463   4.369 -0.1235 -0.1362 -0.3391
16429W        W32046  17.545  14.072   4.222  0.0475 -0.0886 -0.1286
16430W        W32047  10.089   4.321   2.152  0.1830  0.2018  0.3037
16431W        W32048   1.199   1.560   0.167 -0.2245  0.1797 -0.0044
16432W        W32049   9.213   5.955   4.283 -0.0280  0.2814  0.2027
16433W        W32050   5.256   4.381  14.967  0.0602  0.1112  0.2667
16434W        W32051  12.698   7.943  13.755 -0.0683 -0.3125  0.0454
16435W        W32052  15.255  12.949   0.614 -0.1110 -0.3311 -0.0950
16436W        W32053  14.891   7.589   0.781 -0.1267 -0.0614 -0.3960
16437W        W32054   5.491  12.634   2.793 -0.1674 -0.1001 -0.0148
16438W        W32055  10.598  12.158   4.953  0.0768  0.1696  0.0417
16439W        W32056  13.445   9.979   0.145 -0.1026  0.2282 -0.0369
16440W        W32057   8.674  10.540   1.140  0.0564 -0.1470 -0.3719
16441W        W32058  15.444   8.612  15.055 -0.0633  0.1225 -0.1500
16442W        W32059  11.763   8.874   3.218  0.0635 -0.0127  0.0600
16443W        W32060  16.658   7.250  10.875 -0.2393 -0.0504 -0.0090
16444W        W32061  12.468   8.792   2.432  0.0038 -0.1245  0.3513
16445W        W32062   5.989  10.653  13.155 -0.1940 -0.0939  0.3719
16446W        W32063  17.471   2.635  13.150  0.2971 -0.0313 -0.2083
16447W        W32064   5.057  18.024  16.225 -0.0845  0.0082  0.0567
16448W        W32065  15.867   2.261   5.496 -0.1831 -0.0108  0.2561
16449W        W32066  15.279  17.434   6.972 -0.1130 -0.1971  0.0005
16450W        W32067   2.748   2.836  15.847  0.1406 -0.0111 -0.0379
16451W        W32068   5.861   8.062  14.836  0.1479  0.1739 -0.1446
16452W        W32069  15.985   7.476   3.737 -0.0322 -0.4089  0.1608
16453W        W32070  13.843   7.542  13.021 -0.0943  0.1610  0.0866
16454W        W32071  17.393  11.769   2.062  0.0030 -0.3019  0.0259
16455W        W32072  13.149   7.598   0.211 -0.2186 -0.0703 -0.4101
16456W        W32073   1.200   0.446   2.884 -0.0162 -0.1711  0.0169
16457W        W32074   6.688  16.274   5.338  0.4242 -0.3218  0.0460
16458W        W32075   0.729  11.515  12.458  0.0325  0.3842 -0.1605
16459W        W32076  17.864  12.531   0.120  0.2793 -0.1189 -0.0960
16460W        W32077  12.556   3.559  13.225  0.2418  0.0392  0.2165
16461W        W32078   6.862   3.822  12.786 -0.1246 -0.0470  0.2430
16462W        W32079   8.145  16.260   4.566  0.0734 -0.2980 -0.3392
16463W        W32080   0.139  11.188  11.948 -0.4875 -0.2608 -0.1387
16464W        W32081  12.727   4.429   3.549 -0.1581  0.1880  0.0323
16465W        W32082   9.138   0.152  11.053  0.1711 -0.1712  0.0915
16466W        W32083  14.300  17.897   2.006  0.2731  0.0545  0.0279
16467W        W32084   6.332   5.406  14.644  0.0873 -0.2981  0.1928
16468W        W32085  17.351  10.743  11.052 -0.2932  0.0553 -0.0572
16469W        W32086  11.732  13.818   2.398  0.2708 -0.2454 -0.1830
16470W        W32087   0.744   2.250   6.531  0.0386 -0.0203  0.1208
16471W        W32088   6.006   7.761   0.942  0.0089 -0.0590  0.2359
16472W        W32089  17.267  10.457   1.562  0.2813  0.0066 -0.3358
16473W        W32090   0.901   5.398   5.598 -0.0713  0.3858 -0.0524
16474W        W32091   3.969   1.421   2.598 -0.4766 -0.2418 -0.1627
16475W        W32092   8.853  14.553   5.527  0.0222 -0.0943 -0.2374
16476W        W32093   8.834  11.075   1.959 -0.1687  0.0235  0.0166
16477W        W32094   8.438  17.016   0.422  0.3016  0.0241  0.0018
16478W        W32095   7.456  16.767   2.255  0.3108  0.2313 -0.3243
16479W        W32096  13.790  11.876  15.102  0.0549 -0.2580  0.3582
16480W        W32097   8.789   4.735  13.347  0.6565  0.0541 -0.2822
16481W        W32098   0.945   0.095   1.752 -0.0535  0.1877 -0.1430
16482W        W32099   2.515   8.133  15.339  0.0976  0.0808  0.0017
16483W        W32100   0.101   7.513   0.925 -0.1221 -0.1378  0.3090
16484W        W32101  17.494  13.320   0.583  0.2425 -0.0713  0.2956
16485W        W32102   5.442   8.321  12.839  0.1554 -0.1694 -0.1010
16486W        W32103   3.209  10.656   1.015  0.0574 -0.0148 -0.1272
16487W        W32104  13.657  14.889  12.926 -0.0419  0.1568 -0.2944
16488W        W32105   9.202   4.621  15.475 -0.1568  0.3179  0.3063
16489W        W32106   0.263   5.661   5.143  0.1833 -0.4798  0.3906
16490W        W32107   9.412   4.071   1.068  0.1768  0.0177 -0.0462
16491W        W32108   4.960   9.715  13.139 -0.1598 -0.0484  0.3373
16492W        W32109   8.760   9.999   4.384  0.0726 -0.1968  0.2258
16493W        W32110  14.219  17.326   1.815 -0.1318  0.3135 -0.1243
16494W        W32111  14.602  13.247  11.258  0.1790  0.1422  0.0605
16495W        W32112  13.897  15.304   1.725 -0.0209  0.2242 -0.0014
16496W        W32113   8.949   1.329   5.728  0.0480 -0.1178 -0.2406
16497W        W32114  10.452   6.368   1.363 -0.0526  0.5406 -0.0067
16498W        W32115   7.273  12.666   5.662 -0.3218  0.2851  0.1984
16499W        W32116  12.751   1.310  14.853  0.0070 -0.2116 -0.1724
16500W        W32117   9.786   5.201   5.197 -0.1842 -0.0984  0.2062
16501W        W32118   0.699  13.348   1.961 -0.2826  0.1093 -0.2836
16502W        W32119  17.008  14.315  13.059 -0.2354 -0.0602  0.2538
16503W        W32120   3.709  11.637   0.672  0.0424 -0.1553  0.1702
16504W        W32121   3.815  10.707  13.964  0.5476 -0.0452  0.1127
16505W        W32122  13.353  11.459  12.846  0.3380 -0.1284  0.2387
16506W        W32123  15.963   6.922   6.795  0.0084 -0.1681 -0.2651
16507W        W32124  14.388  11.008   3.475 -0.0411 -0.1119  0.2725
16508W        W32125   4.208   4.929   0.200 -0.0056  0.0556  0.1394
16509W        W32126  17.835   5.909   1.982 -0.0463  0.0701 -0.1167
16510W        W32127   6.035   0.015   2.950 -0.1904 -0.0302  0.1349
16511W        W32128   5.869   5.976  14.358  0.2048  0.0782 -0.0845
16512W        W32129  17.045   7.381  11.669  0.0445 -0.5151  0.0791
16513W        W32130   7.729   6.651  10.801  0.2034  0.2394 -0.0308
16514W        W32131  10.245   8.648  11.202  0.1642 -0.0084 -0.0672
16515W        W32132   2.159  13.261   0.785 -0.1987 -0.1297  0.1222
16516W        W32133  13.946  10.154   3.889  0.1932 -0.0315 -0.0729
16517W        W32134  15.444   9.964  13.335 -0.3474  0.1058 -0.0816
16518W        W32135  16.034   6.800   3.017 -0.1342 -0.0129 -0.1758
16519W        W32136   0.374   2.761  14.356  0.2522  0.2986 -0.0050
16520W        W32137  10.570  12.949  13.054 -0.2098 -0.0453 -0.0162
16521W        W32138   5.215   7.333   4.512 -0.0768 -0.3071 -0.1090
16522W        W32139   0.253   9.022   3.865  0.4829  0.0189 -0.1248
16523W        W32140  11.914  12.679  12.509  0.3229  0.1146  0.0476
16524W        W32141   2.171  15.534   5.523  0.0787 -0.2136  0.2674
16525W        W32142  17.757   6.374  10.901 -0.3298  0.0466  0.1262
16526W        W32143  12.311   1.446   0.986  0.0490 -0.2472 -0.1692
16527W        W32144   2.548   0.557   0.210  0.2622  0.2008  0.2473
16528W        W32145  17.871  11.162   0.550  0.1185 -0.0841  0.0752
16529W        W32146  16.664   7.291  14.981  0.1567 -0.1203 -0.1120
16530W        W32147   3.398   1.047  13.956  0.0280  0.1368 -0.3136
16531W        W32148  13.369   1.337  16.008 -0.0633 -0.5895 -0.0592
16532W        W32149   7.536   9.381   3.725 -0.0713  0.0541 -0.2822
16533W        W32150  11.081  17.314  12.159 -0.0290 -0.1263 -0.2280
16534W        W32151  15.087  11.192   3.825  0.0493  0.3213  0.3497
16535W        W32152   7.300   3.761   3.926 -0.6392  0.1874 -0.0066
16536W        W32153  12.872   2.830   5.098 -0.2943  0.0571  0.0416
16537W        W32154   4.417   2.774   3.630  0.1357  0.2482  0.1231
16538W        W32155   4.685  12.935   1.260 -0.1227  0.0345  0.0962
16539W        W32156   7.814   5.526  12.141 -0.2695 -0.1198 -0.0830
16540W        W32157  16.443  17.425  14.538  0.0810  0.2824 -0.1390
16541W        W32158   0.410  14.620  16.396 -0.1905  0.2524 -0.1710
16542W        W32159   5.636   2.761  15.700 -0.2707  0.3564  0.1011
16543W        W32160   3.242  14.171   2.978 -0.1659 -0.3184  0.0335
16544W        W32161   7.144   8.124  15.328  0.0022 -0.0857  0.0219
16545W        W32162   1.800  14.694   3.139 -0.0774 -0.2366  0.0400
16546W        W32163   6.107   0.595   0.602 -0.2638 -0.0634  0.2037
16547W        W32164  16.437   0.539  14.459  0.2250  0.0069 -0.0895
16548W        W32165  11.960  16.381   5.927  0.2130  0.0924 -0.0458
16549W        W32166  16.672  11.311  13.384  0.2102  0.1100  0.2060
16550W        W32167   2.956  16.103  12.806 -0.3415 -0.0998 -0.2105
16551W        W32168  14.542   9.987   1.799  0.2114 -0.0302  0.1479
16552W        W32169  13.127  14.488   5.477  0.0662  0.0361  0.1106
16553W        W32170   5.848  16.192  16.609 -0.1429  0.2323  0.2217
16554W        W32171  15.408   3.324  15.900 -0.2526  0.0285  0.0327
16555W        W32172   7.960   8.602   4.304  0.0233  0.1079  0.1842
16556W        W32173   4.691   2.592  11.583 -0.0467  0.2251 -0.0351
16557W        W32174   1.643   4.520  13.242  0.1216  0.2912  0.1936
16558W        W32175  17.532   6.822  15.677  0.1156  0.0000  0.1268
16559W        W32176   9.270  13.812  15.227 -0.0869 -0.2379  0.2615
16560W        W32177  12.944  12.567  13.519  0.3719  0.1694 -0.1448
16561W        W32178   8.464  17.726   0.654  0.0446 -0.0045 -0.1848
16562W        W32179   2.473   9.362  14.268 -0.5366 -0.1689  0.2465
16563W        W32180  14.145   4.160  13.666 -0.2128 -0.0375  0.1394
16564W        W32181   7.726   6.905  15.062  0.3335 -0.0156 -0.2411
16565W        W32182   5.729   1.220  14.410  0.1916  0.0221  0.1018
16566W        W32183   0.230  11.927  13.228 -0.0575  0.1172 -0.1119
16567W        W32184   5.043  17.727  13.641 -0.1440 -0.0510  0.1875
16568W        W32185   9.309  16.161   0.507  0.1167  0.2320 -0.3717
16569W        W32186   8.892   9.147   2.320  0.2230 -0.1651 -0.3618
16570W        W32187   4.448  13.910   1.726  0.1159  0.0808  0.2248
16571W        W32188   7.413  11.257   1.612  0.4367  0.1427 -0.0029
16572W        W32189  15.515   9.325  15.905  0.1667 -0.4704 -0.0784
16573W        W32190  11.795  15.347   3.875  0.1180 -0.0831  0.0496
16574W        W32191   0.753   5.556   5.073  0.0699  0.0715  0.4414
16575W        W32192  15.490   9.761  16.146 -0.4986  0.1204  0.1077
16576W        W32193  15.993  16.672   0.860  0.2140 -0.0492  0.1093
16577W        W32194   1.318   3.126  13.264 -0.0126  0.2573  0.0968
16578W        W32195  16.483   7.033  13.061 -0.4369  0.1927  0.2127
16579W        W32196  10.710   7.332  13.566 -0.0211 -0.0599  0.1972
16580W        W32197   4.449   1.848   1.252 -0.0041  0.1018 -0.1194
16581W        W32198   4.708   7.370   4.377  0.0617 -0.1126 -0.0158
16582W        W32199  11.879   7.933   0.926  0.1756 -0.0528 -0.1975
16583W        W32200   5.237  13.060  13.636 -0.1499 -0.3860 -0.1274
16584W        W32201  17.564   4.818   5.110 -0.1399  0.2240 -0.0539
16585W        W32202  17.845   8.924   5.544  0.4568 -0.0156  0.2369
16586W        W32203  11.048  10.624   0.649  0.5278 -0.0976  0.0876
16587W        W32204  10.476   1.878  12.173 -0.1777  0.0126 -0.0560
16588W        W32205  11.085  17.599  16.373  0.0740 -0.1056 -0.1859
16589W        W32206   5.843  12.859   3.064 -0.1108 -0.0475 -0.0390
16590W        W32207  13.846  11.030   2.282 -0.3705 -0.1036  0.2196
16591W        W32208  10.406  15.945  11.938 -0.0252  0.0012  0.1455
16592W        W32209  17.809   8.407  12.141  0.0661 -0.1484  0.0358
16593W        W32210  10.778  14.053   3.201 -0.2569  0.1964  0.0014
16594W        W32211   6.378   1.007   5.399  0.1331 -0.1293 -0.1489
16595W        W32212  14.033   9.916   2.009  0.2307 -0.2774 -0.0167
16596W        W32213   7.527   9.914   3.779 -0.5452 -0.0782  0.0227
16597W        W32214   9.175   5.713   0.238  0.3686 -0.3532  0.1899
16598W        W32215   5.867  17.150  12.338 -0.0111  0.0877 -0.0655
16599W        W32216  16.512   2.767   5.669 -0.1777 -0.3000 -0.1274
16600W        W32217   1.543  14.514  12.658  0.0041  0.0209 -0.0609
16601W        W32218  14.140   2.154   3.921  0.1439 -0.1964  0.2770
16602W        W32219  12.789   3.367  15.641  0.0771 -0.2865 -0.1199
16603W        W32220   4.829   3.999  13.619  0.0020  0.1895 -0.0543
16604W        W32221  14.962   9.899   2.093  0.2179 -0.1275  0.0697
16605W        W32222   7.020   6.183   2.649 -0.0808 -0.2988 -0.0629
16606W        W32223   4.317   2.719  12.974  0.0145  0.2997 -0.1446
16607W        W32224  13.343   6.493   4.185  0.0086  0.2516  0.0069
16608W        W32225   9.430   9.753  14.105  0.0254 -0.0030  0.1524
16609W        W32226   4.296   2.999   3.128 -0.0772  0.1782  0.0613
16610W        W32227   1.543   9.331  15.815 -0.1528  0.1499 -0.4005
16611W        W32228   5.014   9.138   4.921  0.1604  0.0828 -0.0638
16612W        W32229  13.642  10.197   1.881  0.2008 -0.1474 -0.1868
16613W        W32230  12.136   2.739  15.382 -0.0713 -0.0864 -0.1212
16614W        W32231  14.333   5.791   6.506 -0.3003 -0.3591 -0.2996
16615W        W32232  10.242  17.481   1.389 -0.0771  0.0697  0.0872
16616W        W32233   1.384  12.752  12.809 -0.0382 -0.0181  0.2142
16617W        W32234   7.184   3.443   2.180 -0.4319 -0.0067 -0.2920
16618W        W32235   2.373   7.186  11.802 -0.1146 -0.2249  0.0710
16619W        W32236   1.640  14.403   5.360 -0.1055  0.0693 -0.1300
16620W        W32237  13.720   0.718   4.734  0.0579  0.1622  0.0080
16621W        W32238   5.640   9.683  13.611  0.1035  0.0319 -0.0446
16622W        W32239   9.777  13.897  10.588 -0.0283  0.1758  0.0396
16623W        W32240  12.052   8.859   3.694  0.1868 -0.0365  0.0222
16624W        W32241   8.834   9.895   4.854 -0.0250  0.1218 -0.1797
16625W        W32242   1.642  17.263  11.651  0.2282 -0.0939  0.0123
16626W        W32243   7.619   4.819  13.568 -0.0085  0.0647  0.1826
16627W        W32244   3.121  15.729  14.860  0.0169  0.0307  0.0212
16628W        W32245   1.165   2.042  11.877  0.1751  0.0263 -0.0146
16629W        W32246  12.503   1.358  16.671  0.1135 -0.0120  0.3379
16630W        W32247   3.637   8.660   1.876  0.2698  0.0366  0.0953
16631W        W32248   4.920  11.036  15.966 -0.0404  0.3245  0.0708
16632W        W32249   2.107  13.225   4.897 -0.0188  0.0807  0.0285
16633W        W32250   0.131   8.401   5.701  0.1760 -0.1576  0.2720
16634W        W32251  13.067   4.682  11.951 -0.0991  0.0461  0.1609
16635W        W32252  17.954   4.518  16.633 -0.1299 -0.3101  0.1293
16636W        W32253   8.742   2.577   4.591 -0.2258  0.0935 -0.0388
16637W        W32254   7.327   1.601   0.772  0.0082 -0.2199  0.1144
16638W        W32255   3.748   2.374   5.532  0.2771  0.0814 -0.0718
16639W        W32256  11.681   6.942   1.201 -0.1998  0.0872  0.1629
16640W        W32257  14.989   8.650   4.530  0.2315 -0.3719  0.2124
16641W        W32258  17.843  17.426   4.637 -0.0676  0.0128  0.0302
16642W        W32259   6.717   4.665  16.477  0.1362  0.1940  0.2505
16643W        W32260   9.597   3.593  10.894  0.0596 -0.2936  0.1908
16644W        W32261  11.067   2.669   2.468 -0.1389  0.0802  0.1572
16645W        W32262   7.227   1.248  12.754  0.1104  0.0020  0.2761
16646W        W32263   3.769  15.454  15.448  0.3062  0.2049 -0.1908
16647W        W32264  11.175   9.112  15.907  0.0372  0.1890 -0.3682
16648W        W32265   1.501  15.834  13.985 -0.0144 -0.0131 -0.2711
16649W        W32266  11.456   7.964  15.126 -0.0882 -0.1554  0.2230
16650W        W32267  16.934   5.447  16.701  0.0309  0.2011  0.0401
16651W        W32268   7.995  17.566  16.487  0.2510 -0.1559  0.2091
16652W        W32269  10.562   0.777   2.286 -0.3303 -0.0582 -0.0614
16653W        W32270   5.965   4.757   5.093 -0.1249  0.0389 -0.0011
16654W        W32271   3.316   1.471   0.022  0.0620 -0.1781 -0.2168
16655W        W32272   9.080   4.262  13.044  0.1315  0.1427  0.3266
16656W        W32273   2.434   5.969  14.894 -0.1804 -0.1406  0.0956
16657W        W32274   3.633   9.652   0.016 -0.2612  0.0113 -0.2023
16658W        W32275   1.329   7.215   1.283  0.0818  0.0334  0.3001
16659W        W32276   2.543  11.906   5.230  0.0641  0.0722  0.0452
16660W        W32277   0.509  11.246   5.143 -0.0967 -0.2414  0.4845
16661W        W32278   3.603   8.173  15.981  0.2633  0.1677 -0.0876
16662W        W32279  12.133   4.194  10.884 -0.4061  0.0637  0.3525
16663W        W32280  12.738   8.802   3.585 -0.2614  0.0899 -0.0230
16664W        W32281  11.563  15.760  13.508  0.2278  0.0902  0.0178
16665W        W32282   9.645   9.279  15.884 -0.0493  0.0523  0.1133
16666W        W32283   5.047  10.663   5.533 -0.3678 -0.1412 -0.0817
16667W        W32284  18.018  16.871   1.629 -0.1504  0.0506 -0.0419
16668W        W32285   8.190  16.127  15.297 -0.1365  0.1563 -0.1132
16669W        W32286  11.041   5.473   1.408  0.1715 -0.2673 -0.1006
16670W        W32287  10.665  12.391   5.409  0.1722 -0.0608 -0.0383
16671W        W32288   6.337   4.463  16.777 -0.0364 -0.2629  0.0211
16672W        W32289   3.479  12.115  13.549  0.0405 -0.1808 -0.1065
16673W        W32290  10.582   1.734   4.413  0.1089 -0.2372  0.0264
16674W        W32291   2.648   7.661  10.647 -0.0837 -0.1470 -0.4568
16675W        W32292   9.593  15.331  16.330 -0.2187  0.2860 -0.1969
16676W        W32293   7.750   7.816   4.696 -0.0311 -0.1103  0.0446
16677W        W32294  17.360  11.695  12.814 -0.2400 -0.1109 -0.0840
16678W        W32295  17.309  10.266  13.766 -0.2703  0.0417  0.0190
16679W        W32296  12.444   6.924   4.444  0.0834  0.1161  0.3665
16680W        W32297  14.655  15.224   4.209 -0.0249  0.3389 -0.2603
16681W        W32298  13.402  11.330   2.362 -0.1301 -0.1194 -0.0889
16682W        W32299  17.396  10.864  14.926 -0.1705 -0.0087  0.2161
16683W        W32300   3.342  11.964   4.446  0.0342  0.0746 -0.0918
16684W        W32301  10.863   5.863  15.316  0.2259  0.0571 -0.0094
16685W        W32302  17.142  15.564   3.640 -0.1227  0.2630 -0.0014
16686W        W32303   2.161   9.557   3.884 -0.2245 -0.0892  0.2319
16687W        W32304   9.657   7.569   3.492 -0.1856  0.2260 -0.2525
16688W        W32305  17.625  11.137  12.831  0.0863 -0.1974  0.1382
16689W        W32306  17.407   0.731   1.044 -0.0115 -0.0310 -0.3417
16690W        W32307   2.726  10.190  16.597  0.1795  0.0450  0.1618
16691W        W32308  12.271   7.589  13.812  0.2373 -0.0259 -0.3285
16692W        W32309  10.596  14.525  15.045 -0.1659  0.0214 -0.0487
16693W        W32310  11.278   9.302  15.348 -0.1918 -0.3379 -0.0310
16694W        W32311   1.519  17.370   4.129 -0.1710  0.0435  0.2840
16695W        W32312   1.815   0.805   0.266 -0.1103 -0.1619  0.0908
16696W        W32313   6.650   0.756   4.056  0.1278  0.0682  0.0132
16697W        W32314   5.621   2.223   4.097  0.0812  0.1088 -0.3226
16698W        W32315  10.915   8.257   2.465 -0.0204  0.1502 -0.3030
16699W        W32316   6.561   1.736   1.858  0.1216  0.2093 -0.1560
16700W        W32317   7.701  10.940  16.139 -0.1532 -0.0584 -0.5350
16701W        W32318  14.279  12.690  15.684  0.1300 -0.2841  0.1997
16702W        W32319  10.682   5.834  13.151  0.1107 -0.1227 -0.1178
16703W        W32320  13.799  12.491   4.209  0.1015 -0.0440 -0.2924
16704W        W32321   3.881  12.971  13.414 -0.1592 -0.1094 -0.0988
16705W        W32322   0.172   5.276  12.069 -0.2938  0.0551 -0.0719
16706W        W32323  16.786  12.894   5.578  0.0690  0.1563  0.0340
16707W        W32324   1.246   9.289  15.415 -0.0163  0.2637  0.2875
16708W        W32325   0.321   6.800   4.285  0.1183 -0.1807 -0.1794
16709W        W32326   9.615  16.044   1.564  0.0904  0.0136 -0.1493
16710W        W32327  16.697  13.299  11.677  0.0770  0.1145 -0.2889
16711W        W32328   4.125  13.236   1.366 -0.0290 -0.1957  0.0928
16712W        W32329   4.460   1.041   4.172 -0.0845  0.3619  0.2399
16713W        W32330   5.019  11.679  11.567 -0.0055 -0.3569  0.0886
16714W        W32331  10.259  14.040  12.970  0.0065 -0.0070 -0.1504
16715W        W32332   5.309   6.443   2.729 -0.1036 -0.2264  0.0022
16716W        W32333  11.643   7.024  13.328  0.1651  0.0554  0.1110
16717W        W32334   8.183  16.919  13.583 -0.0346 -0.3591  0.2951
16718W        W32335   9.294   1.589  16.642 -0.2355  0.0826 -0.0749
16719W        W32336   3.288  16.418  16.386 -0.2522 -0.1898 -0.0986
16720W        W32337   3.257  11.558   0.943 -0.1059  0.1683 -0.2255
16721W        W32338   3.431   7.898   0.060  0.0671  0.1600 -0.1614
16722W        W32339   0.964  15.808  14.138  0.0205  0.0437 -0.1997
16723W        W32340   5.570  16.822   0.732  0.2275  0.3071  0.1507
16724W        W32341  11.623   2.566   3.320  0.2822 -0.0111  0.2516
16725W        W32342   5.048   0.070  11.780 -0.0322  0.4041  0.2665
16726W        W32343   9.236   7.651  15.055 -0.0494 -0.0204  0.1210
16727W        W32344   2.039  14.054  14.618  0.1355 -0.1681 -0.1703
16728W        W32345   9.834   7.333  11.923 -0.1117 -0.2421 -0.0823
16729W        W32346   1.729   2.464   1.246 -0.0274  0.0184 -0.1413
16730W        W32347   4.290   1.936  16.790 -0.2585  0.0669 -0.2109
16731W        W32348  13.528   6.508   4.697 -0.1622  0.5341 -0.3033
16732W        W32349  13.258  16.443  12.213 -0.0029 -0.1932 -0.3244
16733W        W32350  16.556   9.070  12.780 -0.0158  0.1312 -0.2104
16734W        W32351   8.133   3.444   0.294 -0.1041  0.3244  0.0966
16735W        W32352   9.741  16.721   1.986  0.3309  0.0567 -0.1652
16736W        W32353  16.047  13.792   2.670 -0.0406  0.0616  0.2701
16737W        W32354  10.994  10.234  12.175  0.0928  0.0287  0.0901
16738W        W32355   5.710   0.422   5.248  0.2224  0.1200  0.1247
16739W        W32356   1.600   1.366  13.368 -0.0294 -0.0247 -0.0670
16740W        W32357  16.174  15.743  16.668  0.1339 -0.0986  0.0559
16741W        W32358  10.613   7.765   3.768 -0.0580 -0.1195  0.2325
16742W        W32359  16.329   2.362   5.337  0.0995 -0.0463  0.2982
16743W        W32360  12.928  10.018   0.102  0.0505 -0.2623  0.1094
16744W        W32361   8.143   3.201  11.850 -0.1266  0.0971 -0.0164
16745W        W32362   3.788  13.203   4.880  0.0081  0.2719  0.1255
16746W        W32363  17.404  16.187  12.518  0.0774  0.1097  0.1073
16747W        W32364   1.000  11.673   0.166  0.1308  0.0241 -0.0351
16748W        W32365   0.697   0.319  13.643  0.0958  0.0981 -0.0606
16749W        W32366   1.719   8.359   3.244  0.0883  0.0972 -0.3964
16750W        W32367   8.916  10.517  12.136 -0.1218 -0.2169 -0.0990
16751W        W32368   5.573   3.318   3.089  0.2811  0.0619 -0.2540
16752W        W32369   5.302   3.704   1.084 -0.0913  0.0675  0.1085
16753W        W32370  12.750  16.417  13.063  0.5276 -0.2223 -0.1592
16754W        W32371  13.336   0.437   1.001 -0.0493  0.0060 -0.1475
16755W        W32372   8.356   7.540   2.766  0.0368 -0.2524  0.2249
16756W        W32373   8.825  10.500   2.629 -0.4246 -0.1002  0.3084
16757W        W32374   8.264   9.728   4.329  0.3000 -0.2049 -0.1302
16758W        W32375  17.955   0.091   3.861  0.2231 -0.2571 -0.0073
16759W        W32376  15.226   8.356   6.273  0.1704  0.1574  0.0660
16760W        W32377   5.825  17.433  16.084  0.0793  0.4636 -0.0504
16761W        W32378  16.909   0.937   2.499 -0.0501 -0.0452 -0.2832
16762W        W32379  11.011  16.378   2.602  0.0799 -0.1404 -0.0256
16763W        W32380  11.699   6.177   1.444  0.0394  0.0316  0.1546
16764W        W32381  16.842   2.982   0.564  0.1598 -0.3030  0.1941
16765W        W32382   7.468  13.512  11.509  0.2635  0.0161 -0.2787
16766W        W32383  14.379   6.341  15.390  0.1016 -0.0922  0.3377
16767W        W32384   0.705   7.563  11.462 -0.0258  0.1967 -0.0513
16768W        W32385   6.110   5.239   1.312  0.1046 -0.1311  0.1442
16769W        W32386   1.010  13.727   4.370 -0.1939 -0.0078 -0.0123
16770W        W32387  17.826   6.124   3.896 -0.0175  0.0530 -0.0453
16771W        W32388   4.548   5.730   2.746  0.0076 -0.3990  0.0762
16772W        W32389   9.286   2.243  12.922 -0.0903 -0.0440  0.0138
16773W        W32390  11.630   4.580  15.132  0.3276 -0.2035  0.0890
16774W        W32391  17.594  13.459   5.347 -0.0188 -0.1936 -0.0267
16775W        W32392   6.499   6.144   0.301 -0.0938  0.1090  0.1219
16776W        W32393  12.849   7.616  12.941  0.1073 -0.0638 -0.3147
16777W        W32394   8.353   4.660   4.163 -0.2511 -0.0009 -0.1041
16778W        W32395   2.672   2.145  15.945 -0.3895 -0.1273  0.0469
16779W        W32396   2.186   0.205   5.905  0.2712 -0.1642 -0.1230
16780W        W32397  11.294  14.536   5.734  0.1013  0.0148  0.2785
16781W        W32398  14.892  15.628  14.644 -0.2116  0.1973  0.0824
16782W        W32399  11.860  13.659   2.991  0.3744  0.0248  0.0584
16783W        W32400  12.713   3.694  16.328  0.0501 -0.2682 -0.0389
16784W        W32401   4.350   1.249   2.975  0.1594  0.2108 -0.2692
16785W        W32402   1.337  13.257  12.570 -0.3472  0.1395 -0.2504
16786W        W32403  16.970  15.035   4.894 -0.3788 -0.0040 -0.0229
16787W        W32404   7.765   3.764   1.350  0.2787 -0.0760 -0.0085
16788W        W32405  11.886   5.844   4.001  0.1705  0.0717 -0.0729
16789W        W32406  11.154  11.451  14.433  0.1326  0.1935 -0.0541
16790W        W32407  16.298   1.270   4.297 -0.1964  0.0723 -0.1680
16791W        W32408   6.926  14.541  12.304  0.0230  0.0474  0.1922
16792W        W32409  17.446   5.393  14.555 -0.4958  0.0836  0.0029
16793W        W32410  12.453   3.650   0.676 -0.0807  0.2068 -0.3009
16794W        W32411   2.464  13.534   3.658  0.0374  0.4715 -0.0469
16795W        W32412   3.416   2.415  14.871 -0.0016  0.3158 -0.0213
16796W        W32413  10.564  16.225  14.624 -0.0420 -0.0529  0.2900
16797W        W32414  16.456   7.444   4.996 -0.0004  0.2519  0.1491
16798W        W32415   8.173  11.280   3.749 -0.2852  0.2160  0.0670
16799W        W32416   8.887   0.826   0.083 -0.2730 -0.0607  0.0631
16800W        W32417   8.185   7.163  15.207 -0.0401 -0.1225 -0.3385
16801W        W32418   0.092  13.335   0.336  0.1699  0.3568  0.1410
16802W        W32419  15.844  17.608   0.949  0.1376 -0.0236 -0.0441
16803W        W32420   7.188   7.118  13.723 -0.1834  0.1693 -0.3995
16804W        W32421   9.107   6.011  16.632  0.0079 -0.0157 -0.4406
16805W        W32422  10.685   2.803   0.804  0.1511  0.0154 -0.0725
16806W        W32423   3.606   7.928  11.877 -0.0479 -0.1056  0.0037
16807W        W32424   0.047  16.734  13.014 -0.1701  0.1506  0.0727
16808W        W32425  12.433   3.107   4.920 -0.0699 -0.1825 -0.1418
16809W        W32426  12.069  11.082  11.471  0.1366  0.1040 -0.0794
16810W        W32427  13.632   3.339   0.650 -0.2455 -0.2723  0.0972
16811W        W32428   0.931  17.910  13.378 -0.2173  0.1613  0.1708
16812W        W32429  16.859   1.983  12.129 -0.1565 -0.0164  0.0795
16813W        W32430  17.997   1.458   3.543 -0.2521 -0.1448  0.2430
16814W        W32431  13.039  11.693   0.351  0.2650 -0.1001  0.0684
16815W        W32432  12.973   2.940   3.181 -0.2190 -0.1526  0.1777
16816W        W32433  11.070   7.895   5.459 -0.0572 -0.4655  0.0203
16817W        W32434  16.246  17.829   4.141  0.0584 -0.3931  0.1660
16818W        W32435  13.636  11.058  15.703  0.2068  0.0451 -0.1356
16819W        W32436   6.298  15.576  15.955  0.2121  0.1665 -0.0853
16820W        W32437   5.616   4.348   4.859 -0.0290 -0.3157 -0.2176
16821W        W32438   8.274   5.660   3.327  0.3039 -0.0248 -0.0331
16822W        W32439  17.530   9.318  12.475 -0.4036 -0.0903  0.0443
16823W        W32440  12.921  16.740   3.011  0.1316  0.0337  0.1651
16824W        W32441  12.152  10.412  12.469  0.1186 -0.3589  0.2575
16825W        W32442   6.719   6.914  14.961  0.0873 -0.0757  0.1393
16826W        W32443  13.434  13.328   5.380 -0.0712  0.1585 -0.2619
16827W        W32444   6.165  16.166   4.045  0.0362  0.0232  0.2396
16828W        W32445   9.813   3.055   2.034  0.1722  0.1941  0.2701
16829W        W32446   1.076  16.303   5.012  0.0606  0.0728 -0.2325
16830W        W32447  15.154   5.893  15.736 -0.2560  0.2688 -0.1434
16831W        W32448  13.032  12.908   3.168 -0.1554  0.3217 -0.2950
16832W        W32449  12.395   9.309   1.616  0.1974  0.0463 -0.1095
16833W        W32450   0.586  15.918  11.819 -0.2868 -0.0107  0.0501
16834W        W32451   3.910   9.202   4.303 -0.1716  0.0703  0.1215
16835W        W32452  11.226  11.416   2.109  0.1427 -0.1974 -0.0786
16836W        W32453  14.441  10.130  13.699 -0.1485  0.0306  0.2587
16837W        W32454   9.965  12.922  10.894 -0.2112 -0.0530 -0.0189
16838W        W32455  13.294   2.729   6.496  0.0029 -0.2535 -0.1471
16839W        W32456   1.057  16.015  12.021 -0.0823  0.0529 -0.2769
16840W        W32457  10.157   0.669   0.232  0.0149  0.1678 -0.2568
16841W        W32458  14.459   9.314   5.896 -0.0780 -0.0328 -0.1774
16842W        W32459   8.512  14.114  16.533 -0.2865 -0.0682  0.1368
16843W        W32460   2.074   2.211   0.202 -0.0668 -0.0876  0.1023
16844W        W32461   9.782  13.714   1.694 -0.2687  0.1740  0.2074
16845W        W32462  13.965   1.778   1.234  0.0807 -0.0601  0.0435
16846W        W32463  17.074   2.985   3.420  0.0281 -0.1985  0.0993
16847W        W32464  14.226   0.407  14.015 -0.1825  0.4752  0.1121
16848W        W32465  12.062  15.729   5.058 -0.3258 -0.1576 -0.0262
16849W        W32466  10.515   8.772   5.098 -0.2056  0.0172 -0.0740
16850W        W32467   4.049  13.771  15.508  0.0799 -0.0226  0.0207
16851W        W32468  13.146   0.832   2.412  0.2080  0.2088  0.0694
16852W        W32469   7.471   9.234  16.624 -0.3568  0.0554  0.2210
16853W        W32470   2.006   7.103  12.112 -0.4710 -0.0711 -0.1133
16854W        W32471   1.610   3.269   2.225  0.1792  0.0766  0.0930
16855W        W32472   7.625  13.736  13.859  0.0463  0.1083 -0.2228
16856W        W32473   2.711  12.471   0.471 -0.2821 -0.0373  0.0513
16857W        W32474   7.375  10.704  11.810 -0.2747 -0.2242 -0.3006
16858W        W32475  12.111   7.239   0.443 -0.0728 -0.0665  0.0488
16859W        W32476  12.440   5.170  14.457 -0.3010 -0.1505 -0.2977
16860W        W32477  18.019   2.691  12.255 -0.3812  0.0058  0.2491
16861W        W32478  12.278   7.410   2.533  0.4607 -0.0507 -0.2193
16862W        W32479  13.178   7.779  12.226 -0.0721  0.3233  0.1745
16863W        W32480   3.270  15.832   5.222  0.1169  0.0239  0.0460
16864W        W32481  14.468  10.086   3.859  0.4068 -0.1484 -0.4029
16865W        W32482   1.275   3.913  15.232 -0.0245 -0.0016  0.1484
16866W        W32483   7.057   0.410   4.984 -0.1332 -0.0192 -0.1419
16867W        W32484   9.929  11.838  13.789  0.0024 -0.0738 -0.0395
16868W        W32485   7.052   7.721   0.689  0.0254  0.0102 -0.2901
16869W        W32486  15.264  10.215   4.857  0.1147  0.0669  0.0629
16870W        W32487  15.093   6.233  13.537 -0.3832  0.1115  0.1232
16871W        W32488  12.664   6.994   1.571  0.2204  0.1329  0.0054
16872W        W32489   3.929   9.809  14.384  0.3833 -0.1322 -0.0229
16873W        W32490   3.595  11.954   3.153  0.0869 -0.3861  0.2401
16874W        W32491  14.963  12.294   1.424 -0.0794 -0.0568 -0.0665
16875W        W32492  13.518   5.473  15.647  0.4324 -0.3013 -0.1891
16876W        W32493   6.263  10.436   0.509 -0.0487 -0.0262  0.0957
16877W        W32494   4.668   0.544   4.065  0.2209  0.0510 -0.0436
16878W        W32495   8.900  14.876   5.880  0.0710 -0.0166  0.1024
16879W        W32496  12.172   1.369   5.864  0.1636 -0.0563 -0.1945
16880W        W32497  16.260   3.245  16.721 -0.1302  0.0783  0.1742
16881W        W32498   2.215   0.233   1.493  0.1049 -0.2761  0.0609
16882W        W32499  11.985   2.698   1.515  0.0549 -0.2915 -0.0386
16883W        W32500   5.370   8.117   2.916  0.0495  0.1524  0.1684
16884W        W32501   9.549  14.382  16.023  0.0502 -0.0993 -0.3314
16885W        W32502  12.246   4.962  14.066 -0.0996 -0.0266  0.3336
16886W        W32503   4.463   9.795  12.648 -0.2157 -0.2673 -0.0222
16887W        W32504   3.215   7.252   5.395  0.1832  0.2183  0.1977
16888W        W32505  11.444   5.876   3.063  0.2118  0.1683  0.1771
16889W        W32506   9.503  17.700  12.420 -0.1455 -0.0957 -0.1360
16890W        W32507   6.831   0.801   0.363 -0.1491  0.0695 -0.1139
16891W        W32508   1.936  14.153  14.108 -0.1070 -0.1050  0.0601
16892W        W32509   2.489   2.877  15.057 -0.1746  0.1354 -0.1996
16893W        W32510   6.819   6.221   1.743 -0.3956  0.1221 -0.1988
16894W        W32511   1.189   2.698  16.253  0.0463  0.0448  0.3486
16895W        W32512  13.134   2.985   0.915 -0.0403  0.2051  0.0529
16896W        W32513   3.405  17.443  12.010  0.1756 -0.0263  0.2193
16897W        W32514   4.834  14.226   4.347  0.1294  0.0331  0.0976
16898W        W32515   6.464  10.277   1.417  0.0285 -0.1659 -0.1979
16899W        W32516   6.661  15.649   5.297 -0.1505  0.0255  0.0865
16900W        W32517   6.181  11.770  14.327 -0.1651  0.1109 -0.0445
16901W        W32518  12.811  13.471  12.827  0.0929 -0.1806 -0.3450
16902W        W32519   7.506   3.363   3.500  0.5057 -0.1076 -0.0613
16903W        W32520   1.054  10.815  15.679 -0.2606  0.2334 -0.0606
16904W        W32521   7.841   0.377   4.546  0.2534 -0.0052 -0.1392
16905W        W32522  14.282  13.656   3.960  0.2130  0.0890  0.5153
16906W        W32523   5.128  13.536   4.776  0.0586 -0.4743  0.0976
16907W        W32524   6.753  17.322   1.689 -0.1053  0.1190  0.1429
16908W        W32525  13.758  17.195   4.395 -0.0452  0.0937  0.1340
16909W        W32526   3.641  14.768   3.794  0.0962 -0.1112 -0.4239
16910W        W32527   9.169  11.183  14.457 -0.1611 -0.1658 -0.0844
16911W        W32528  15.817   5.733   2.504  0.0548 -0.0375  0.0381
16912W        W32529  14.776   7.437  13.905  0.0014 -0.1569  0.4523
16913W        W32530  12.252   4.744  15.936  0.1105  0.2342 -0.0145
16914W        W32531   0.887   8.722   1.922  0.1810  0.1198  0.0549
16915W        W32532   6.249  17.302   1.876  0.1194  0.1174 -0.2670
16916W        W32533   3.829  10.656  13.078  0.2794  0.0029 -0.2719
16917W        W32534  11.453  11.721  13.520 -0.1577 -0.1536  0.3177
16918W        W32535   7.361  13.616   0.289  0.0591  0.0939 -0.1636
16919W        W32536   9.081  15.002   2.221 -0.3157  0.0748 -0.1982
16920W        W32537   9.001   7.787   4.480  0.2156 -0.0430 -0.2188
16921W        W32538  13.567   2.302   5.277 -0.0944  0.4337 -0.1319
16922W        W32539   5.363  11.099  15.189  0.0470 -0.0831 -0.1324
16923W        W32540   6.472  12.758  11.767  0.0425 -0.3798  0.1064
16924W        W32541  12.989   7.052  14.659 -0.3075  0.1219 -0.0389
16925W        W32542  12.748  15.805  12.980  0.1404 -0.1061 -0.1589
16926W        W32543   0.161   0.148  13.369  0.2218  0.0473 -0.0819
16927W        W32544   9.743   5.398  11.785 -0.0785 -0.3375  0.3453
16928W        W32545   1.065   4.400   2.082  0.1977 -0.0559  0.1198
16929W        W32546   8.141   7.035   0.456 -0.4174 -0.2603  0.1445
16930W        W32547  12.085   5.222   3.114  0.0051  0.0802 -0.0185
16931W        W32548   6.049  13.748  12.937  0.1036  0.0658  0.0683
16932W        W32549   3.865  16.337  12.522  0.0743  0.2113  0.0635
16933W        W32550  17.164  11.490   4.917  0.3656 -0.0805 -0.0764
16934W        W32551   2.459  14.335   2.137 -0.2300  0.1883  0.1497
16935W        W32552   8.082   0.033  15.962  0.0087  0.2386 -0.2037
16936W        W32553  11.856  15.470   5.442 -0.0488 -0.3038  0.0442
16937W        W32554   0.564  12.552  10.640  0.1966 -0.1327 -0.1637
16938W        W32555  17.160   9.501  13.199  0.0060  0.1949  0.0580
16939W        W32556   7.574  14.372   2.390  0.0966  0.2104 -0.0377
16940W        W32557   4.093  12.651   1.124  0.0271 -0.0294  0.1889
16941W        W32558   5.239  17.558  16.239  0.1252 -0.2484  0.1228
16942W        W32559   8.387   5.719   3.810  0.1219 -0.0384  0.0583
16943W        W32560   3.890   9.943   3.107  0.0605 -0.2165 -0.2597
16944W        W32561  14.102   3.297  11.716  0.0467 -0.2933 -0.1017
16945W        W32562   8.315  17.434   3.637  0.1362  0.0018 -0.1132
16946W        W32563   1.627   7.592   3.063 -0.3131 -0.2238  0.4796
16947W        W32564  12.138   9.152   3.082  0.0196 -0.1236  0.2678
16948W        W32565   0.207   0.927  16.542  0.0529  0.1117 -0.0156
16949W        W32566  16.588   5.424  14.886  0.3038 -0.1461 -0.0790
16950W        W32567  12.834   6.215   3.823 -0.0817 -0.2256 -0.2683
16951W        W32568   6.710   7.125   3.659 -0.0433 -0.2926  0.0388
16952W        W32569   0.762   7.804  12.480  0.1197 -0.2547  0.1349
16953W        W32570  14.579   5.295  16.553 -0.1295  0.1715 -0.0935
16954W        W32571   5.270   5.332  12.038  0.0954  0.1873  0.1131
16955W        W32572   8.127   7.806  13.113  0.2818 -0.1951  0.1201
16956W        W32573   7.713  10.479   1.660 -0.0538  0.4460 -0.1650
16957W        W32574  13.201  14.488  11.316 -0.0707  0.0682 -0.2195
16958W        W32575  14.894   5.599   2.178 -0.1318  0.0250  0.1284
16959W        W32576  11.956   6.387   2.403 -0.0181  0.0267  0.1260
16960W        W32577  13.287   3.837   1.719 -0.0480  0.1994  0.4464
16961W        W32578   5.975  14.689   5.998  0.2158 -0.0467  0.1494
16962W        W32579  13.744   2.317  11.980 -0.0243 -0.5637 -0.3229
16963W        W32580   8.807  14.638  10.099  0.0823 -0.1379 -0.0219
16964W        W32581  13.887  12.579  15.331  0.0849  0.3098  0.2569
16965W        W32582  12.701  13.043  12.520  0.0510  0.4491 -0.1070
16966W        W32583   9.236   9.253  12.786  0.0769 -0.0089 -0.0252
16967W        W32584  11.010  13.093  15.728 -0.2948  0.1772  0.1081
16968W        W32585   4.460   2.129  12.934  0.0298 -0.1576  0.1042
16969W        W32586  17.908   4.991   3.494  0.0680 -0.1584 -0.0143
16970W        W32587  16.966   5.991   2.679  0.0722  0.2947 -0.0085
16971W        W32588  16.630   7.736  15.802  0.1525  0.0308  0.3397
16972W        W32589  17.987  14.684   2.901  0.0839  0.2312 -0.4103
16973W        W32590  16.293   9.095   4.034 -0.0302  0.1596  0.0384
16974W        W32591   2.855   3.129   4.758 -0.0440 -0.1750 -0.0541
16975W        W32592  12.479  12.978   0.009 -0.0341 -0.3440 -0.1729
16976W        W32593   0.136  14.383   3.324  0.1773 -0.2365  0.2454
16977W        W32594   6.834  16.775   3.465  0.0910  0.0184  0.0699
16978W        W32595   0.057  17.644  13.613 -0.0252  0.1466 -0.0553
16979W        W32596  17.699  12.923   4.680  0.1679  0.2190 -0.1540
16980W        W32597   8.810   6.651   3.252  0.0509  0.1829  0.2801
16981W        W32598   7.244  14.590  14.210 -0.1838  0.0127  0.2181
16982W        W32599  14.061   9.146  13.893  0.0756  0.2073  0.2344
16983W        W32600   4.930  17.392   5.267 -0.2276 -0.0248  0.0141
16984W        W32601  14.773   0.773  15.049 -0.1422 -0.1702  0.0547
16985W        W32602  16.745   1.999  14.782  0.0139  0.3005  0.1182
16986W        W32603   4.738   0.174   3.237  0.4555  0.0069 -0.1116
16987W        W32604  12.972  17.564  13.481 -0.2360 -0.2162  0.1038
16988W        W32605  13.847   4.723   2.210  0.0529  0.1891  0.0122
16989W        W32606   7.471   0.288   5.375 -0.1900 -0.0888 -0.0946
16990W        W32607  16.881   6.859  12.746  0.0726  0.0287 -0.0458
16991W        W32608  15.409  11.104  13.712  0.0264 -0.1773 -0.2548
16992W        W32609   0.731   1.827  13.235 -0.0832  0.0593 -0.0618
16993W        W32610  17.828  15.686   4.481  0.2310 -0.2251 -0.4286
16994W        W32611  14.714  15.144   3.266 -0.1342  0.0417 -0.0195
16995W        W32612  12.750  14.714  14.150  0.2361  0.0972  0.0897
16996W        W32613  11.033   9.398   3.689 -0.0644  0.0957 -0.0306
16997W        W32614   8.676   8.318  15.311 -0.0884 -0.1449 -0.0610
16998W        W32615  12.179   6.341  15.860 -0.0514  0.2235 -0.1551
16999W        W32616  12.501   1.187   5.366  0.3417  0.1239  0.1648
17000W        W32617   0.296  15.825   4.464  0.2169 -0.0144  0.0354
17001W        W32618   0.036  11.807  13.690 -0.2307 -0.0462  0.0135
17002W        W32619  16.319   4.930  14.024  0.2005  0.1117 -0.1024
17003W        W32620   4.999  12.541  14.121  0.1016  0.5179  0.0485
17004W        W32621  14.570  13.251   1.460  0.1099 -0.0879 -0.0519
17005W        W32622  13.425   6.190  15.243 -0.1114 -0.0279  0.0597
17006W        W32623  12.335   1.796  13.112  0.0671  0.1239  0.1301
17007W        W32624   3.943  11.982   5.398 -0.2374  0.1958 -0.1480
17008W        W32625  11.793   6.677  13.034 -0.2057 -0.1111  0.0253
17009W        W32626  14.366   7.548   4.939  0.1321  0.0823  0.3898
17010W        W32627   1.024  13.698   3.831  0.1511 -0.0967 -0.1065
17011W        W32628  12.072  14.074   3.963 -0.1216  0.1489 -0.0986
17012W        W32629  10.919  14.958  15.684 -0.2123 -0.0121 -0.0653
17013W        W32630  12.356   3.227   0.287  0.2183 -0.0128 -0.1253
17014W        W32631  10.388   9.507  15.560 -0.1064 -0.0895 -0.2114
17015W        W32632  17.631  15.851   3.944 -0.2286 -0.2950  0.1144
17016W        W32633   3.833  13.627   3.471 -0.0869 -0.1442  0.0283
17017W        W32634  14.114   8.607  12.393  0.2570  0.0819  0.1122
17018W        W32635   7.659   1.954  14.826 -0.0568  0.0464  0.1146
17019W        W32636   9.845   4.999   4.427 -0.0950  0.1273 -0.1484
17020W        W32637   8.960  13.501   2.172  0.0498 -0.4269  0.1149
17021W        W32638  15.648  16.709  15.869  0.0250  0.0910 -0.3090
17022W        W32639   7.189   1.373  15.809  0.1907  0.1927  0.2997
17023W        W32640   9.793  17.570   4.774  0.2923  0.1522  0.0299
17024W        W32641   1.735  10.652  16.023  0.1219  0.2969  0.1578
17025W        W32642  11.512  12.252  13.614  0.0898 -0.2002 -0.0937
17026W        W32643  17.181  11.575  14.018 -0.2747 -0.1556 -0.0319
17027W        W32644   4.506   0.796  14.167 -0.0800 -0.4224 -0.0999
17028W        W32645  14.639  12.180  13.324 -0.1320 -0.0915  0.1810
17029W        W32646   2.945  12.557  16.752  0.1575  0.3083  0.1828
17030W        W32647   9.855   5.277   1.851  0.1665  0.0168 -0.2839
17031W        W32648   0.915  10.454   5.337 -0.0348  0.0514  0.2211
17032W        W32649   5.342   3.168  15.592 -0.1569 -0.1293 -0.1837
17033W        W32650   5.700  11.659  15.616  0.1647  0.0738 -0.1541
17034W        W32651  12.598   9.848  11.593 -0.1623 -0.1923  0.1962
17035W        W32652  13.559   0.607   0.575 -0.2949 -0.0038 -0.1786
17036W        W32653  11.997  10.159   2.236 -0.2052 -0.2042  0.0343
17037W        W32654  17.521  13.152   0.117  0.1655 -0.1167  0.3813
17038W        W32655   8.582   6.980  11.245  0.1463 -0.0248  0.1886
17039W        W32656   3.082   2.541   2.067 -0.1754  0.1102 -0.3473
17040W        W32657  10.697  14.153  12.202  0.3000 -0.1690 -0.1983
17041W        W32658   2.573   3.302   1.664 -0.1905  0.0025 -0.1314
17042W        W32659  16.498   2.013  13.073  0.0352  0.1658 -0.1426
17043W        W32660  12.581   7.706  14.248 -0.2109 -0.2397  0.0397
17044W        W32661   9.748   9.940  13.082 -0.2244  0.0472 -0.1320
17045W        W32662   8.205   3.677   1.141 -0.2146 -0.2522 -0.0403
17046W        W32663   2.282   4.784   4.352  0.0184 -0.2675  0.1863
17047W        W32664   5.959  12.380   0.658 -0.4345 -0.0955 -0.1253
17048W        W32665  18.037  17.064   1.120  0.0660 -0.0638  0.0941
17049W        W32666  12.721   2.498  11.397 -0.0925  0.1263 -0.0699
17050W        W32667   5.139   9.399  15.084  0.0543 -0.1176 -0.3273
17051W        W32668   8.775   8.899   3.361  0.1815 -0.0713  0.0710
17052W        W32669   5.868   7.532   5.219  0.1132  0.3449  0.2541
17053W        W32670  14.081   7.986  16.070 -0.1038  0.3714 -0.2046
17054W        W32671   5.568  17.287   3.319  0.0439  0.1069  0.0812
17055W        W32672  14.928  11.169   1.069 -0.0385 -0.1827  0.1294
17056W        W32673  13.584  13.366  16.099 -0.0275 -0.0304  0.0633
17057W        W32674   5.380   7.296  12.997 -0.4167  0.1303  0.2709
17058W        W32675  14.592  17.534  16.188  0.1221 -0.4347  0.1761
17059W        W32676   9.209   6.618  11.073  0.0599 -0.0317  0.0728
17060W        W32677   2.514   1.022   0.505  0.1667 -0.3086  0.0665
17061W        W32678   5.574   1.480   5.233  0.1616 -0.0543 -0.1533
17062W        W32679  11.712   2.763  15.102 -0.0445 -0.1663  0.1663
17063W        W32680  16.911  14.071  14.301  0.2228  0.0005  0.0228
17064W        W32681   5.803  10.898   0.334  0.1715  0.4567  0.0417
17065W        W32682   8.543   6.345  14.062  0.0643  0.1179 -0.0593
17066W        W32683  11.848  15.120   4.633 -0.0225 -0.0592  0.1335
17067W        W32684   1.324   1.396  16.521 -0.0517  0.3473 -0.0497
17068W        W32685  14.824   8.918  16.401  0.1781 -0.1903 -0.2250
17069W        W32686   7.484  16.173  16.494 -0.0646  0.0713  0.0662
17070W        W32687   7.462   0.629   4.705 -0.0201  0.0037 -0.2292
17071W        W32688   1.397  14.756   4.017 -0.0677  0.4428 -0.1759
17072W        W32689   8.218   5.747  14.401  0.1975 -0.0029 -0.2475
17073W        W32690   6.003   5.399   0.196 -0.0345  0.0515  0.2994
17074W        W32691   8.478  13.286  14.683  0.2766  0.1005 -0.0856
17075W        W32692   7.697  14.556   0.403  0.2156  0.0309  0.2216
17076W        W32693   0.394   1.244   3.655 -0.1060 -0.1400 -0.0924
17077W        W32694  14.084  13.185  13.876  0.0330 -0.0339 -0.0090
17078W        W32695   1.130  13.201   1.698  0.0010 -0.1331 -0.1028
17079W        W32696   0.559  12.484   5.977  0.1481 -0.2661 -0.0082
17080W        W32697  12.031  14.523   3.413  0.1444 -0.2078  0.1013
17081W        W32698  10.351  11.134   3.566 -0.0655  0.0569  0.2785
17082W        W32699   4.556   7.636  11.243 -0.0916 -0.0330  0.0502
17083W        W32700  15.680   4.030   2.698  0.3394 -0.1807 -0.1606
17084W        W32701   8.777   5.620   3.397 -0.2871 -0.1805 -0.1552
17085W        W32702   6.404   7.780   1.268 -0.2077  0.2402  0.1259
17086W        W32703   1.882   5.025   0.191  0.1010  0.0335 -0.0300
17087W        W32704   9.150  12.638  11.137 -0.0596 -0.0755 -0.1071
17088W        W32705   1.481   1.979  12.601 -0.2593 -0.1473  0.1809
17089W        W32706   9.396   8.893  12.352  0.0618  0.0909 -0.0355
17090W        W32707   2.586   2.848  14.573 -0.2614  0.1362  0.0198
17091W        W32708   0.985  16.238  13.892  0.0125 -0.0999  0.2643
17092W        W32709  16.072   2.271   2.906  0.1771 -0.0602 -0.0997
17093W        W32710   1.500  10.629  12.054 -0.0745 -0.1279  0.0994
17094W        W32711  10.201   3.374   4.309  0.2614  0.0815  0.0283
17095W        W32712  15.101   7.455  15.885  0.1963 -0.0809  0.0140
17096W        W32713   2.619   4.548  12.339  0.0985 -0.1799 -0.2612
17097W        W32714   8.379   4.984  13.585 -0.1433  0.3097  0.2596
17098W        W32715  13.545   3.660  13.915 -0.0524 -0.1700 -0.0074
17099W        W32716   3.361   7.504   4.007  0.0305  0.0227  0.0797
17100W        W32717   1.490  11.129   5.572  0.2293  0.0560 -0.1491
17101W        W32718   4.595   8.577  13.318  0.1046  0.3009  0.0924
17102W        W32719   0.827   8.871   1.449  0.2568 -0.1454 -0.2274
17103W        W32720   3.772   6.086   0.278 -0.2507  0.3220 -0.0408
17104W        W32721  13.383   8.674   5.140  0.0101 -0.0526 -0.1666
17105W        W32722  11.792   8.998  11.473 -0.1601  0.1202  0.4403
17106W        W32723   9.524  10.336  16.450 -0.0291  0.5248 -0.3080
17107W        W32724   3.931  16.982   3.593 -0.0203 -0.0588  0.1590
17108W        W32725   6.829  13.540  16.333 -0.1363  0.2806 -0.1049
17109W        W32726  16.423  11.432   1.851  0.0568 -0.0031 -0.0137
17110W        W32727   8.290   1.927  14.876 -0.0532 -0.0634  0.0878
17111W        W32728   6.933   5.215   1.053 -0.1822  0.0841  0.0563
17112W        W32729   1.946  17.576   4.552 -0.0650 -0.2739  0.0929
17113W        W32730  17.869  13.920  15.871 -0.1267  0.0537  0.0622
17114W        W32731   5.939  13.414   5.685 -0.1908  0.2913 -0.0279
17115W        W32732  11.855   8.406  16.614 -0.2532 -0.0171  0.1195
17116W        W32733  10.610   2.150  13.393  0.0786  0.0611  0.0237
17117W        W32734  12.842  12.115  15.873  0.1010  0.2562 -0.0888
17118W        W32735  14.366  11.371   4.395  0.2272  0.1313 -0.1092
17119W        W32736  12.289   2.074  14.010  0.0173  0.3326  0.2017
17120W        W32737   0.850  14.299  16.000 -0.0741 -0.0108  0.1626
17121W        W32738  16.311   2.931  13.080  0.0750  0.2939 -0.2152
17122W        W32739   5.554   9.006  13.435  0.2042 -0.2614  0.0785
17123W        W32740   1.892  15.180   1.073  0.0810  0.3304  0.0498
17124W        W32741   2.140   6.987   0.964  0.2659  0.0856  0.1684
17125W        W32742   4.940  14.458   2.344 -0.4155 -0.0840 -0.1756
17126W        W32743  10.274  12.330   3.284 -0.3797 -0.1189 -0.1711
17127W        W32744  12.437  16.319   0.615 -0.0534 -0.1512 -0.0362
17128W        W32745  17.628  15.991   0.023  0.0489 -0.3959 -0.0347
17129W        W32746   9.767   8.613   1.934  0.0326  0.1800  0.1365
17130W        W32747  13.775   6.963   4.627  0.2177 -0.1357 -0.0184
17131W        W32748  14.173   4.735   3.402  0.0055 -0.3135  0.0359
17132W        W32749  16.590  12.275   6.124 -0.1764  0.1587 -0.0184
17133W        W32750   2.753   1.555   5.771  0.4767 -0.2062  0.1556
17134W        W32751  14.873   9.084   3.435 -0.0828  0.2162  0.3762
17135W        W32752   0.278   1.028   5.703 -0.1382  0.4276 -0.0633
17136W        W32753   7.916   1.613   5.583  0.1248  0.0675  0.0846
17137W        W32754   3.443   1.543   5.116  0.1202  0.0938 -0.1475
17138W        W32755  13.224   8.901  13.767  0.0114 -0.0628  0.1979
17139W        W32756   1.626  15.977   1.579 -0.3877 -0.2620 -0.0188
17140W        W32757   8.334  12.439   0.499  0.4247 -0.2563 -0.1197
17141W        W32758   1.237   1.031   2.241 -0.0829  0.3651  0.1323
17142W        W32759  10.113  16.625  16.425 -0.0738  0.3922  0.1638
17143W        W32760   5.331   1.393  14.836 -0.2000 -0.2065  0.1601
17144W        W32761  14.981   6.888   2.824  0.1167  0.0241  0.3649
17145W        W32762  12.207  10.987  13.519 -0.1300  0.2922  0.2598
17146W        W32763   6.901  10.894  16.125  0.2801  0.2047  0.1513
17147W        W32764  12.709  10.356   5.018  0.0394  0.0818 -0.0354
17148W        W32765  12.673  16.351   3.064  0.1659  0.0052  0.3008
17149W        W32766   2.372   4.507  16.458  0.4998 -0.3062 -0.0698
17150W        W32767  16.910  16.751  15.952 -0.2181  0.2700  0.0974
17151W        W32768   0.366   8.388   2.686 -0.1740 -0.0479 -0.0317
17152W        W32769   0.837   8.853  11.242  0.2911 -0.0444 -0.0325
17153W        W32770   2.325   6.851   3.745  0.1293 -0.2235  0.2471
17154W        W32771   1.944  14.555   4.047  0.0509 -0.0574 -0.0063
17155W        W32772  12.199   6.597   3.640 -0.1789  0.0284  0.4465
17156W        W32773  10.339  15.472  10.428  0.0776 -0.0891  0.0956
17157W        W32774   5.803  11.945  13.890  0.0611 -0.0594  0.0842
17158W        W32775   3.529  16.188   5.712  0.2501 -0.2406  0.0516
17159W        W32776  14.487  14.892   5.841  0.2313 -0.0746 -0.1242
17160W        W32777   0.981  10.296   1.474 -0.0763  0.4794 -0.0839
17161W        W32778   1.061   9.581   2.316  0.4285  0.0652 -0.0550
17162W        W32779   7.811  12.089   2.300 -0.1537  0.0487 -0.1709
17163W        W32780   8.212  16.717   0.744 -0.0512 -0.3247 -0.0100
17164W        W32781  12.932  15.000  15.965  0.3383 -0.2291  0.0799
17165W        W32782   2.195   3.103   1.396 -0.1379 -0.2253 -0.3323
17166W        W32783   5.577   4.470   2.525 -0.1633 -0.3123  0.0083
17167W        W32784   3.437  11.882  11.857  0.3259 -0.0135  0.0427
17168W        W32785  17.090  14.645   5.165 -0.0982  0.0606 -0.1365
17169W        W32786  10.848   8.697  10.022  0.0509  0.0939  0.3536
17170W        W32787   2.317   2.987   5.873  0.0796  0.1569 -0.2661
17171W        W32788   4.013   5.637  11.611 -0.1837  0.0643  0.0566
17172W        W32789  17.477   1.442  13.134 -0.2905 -0.3173  0.0594
17173W        W32790   3.928  14.903  16.033  0.1710  0.0242 -0.3291
17174W        W32791  11.268   5.857  14.442  0.0915  0.0165  0.1973
17175W        W32792   4.177  12.423   5.251  0.0592 -0.3463  0.3418
17176W        W32793   9.681   1.594  13.019  0.0369  0.0517  0.4056
17177W        W32794  12.016   9.523   4.564  0.0869  0.1064  0.0434
17178W        W32795  11.635   7.024  16.138  0.0218 -0.0273  0.0169
17179W        W32796  11.982  13.022  13.927 -0.2112 -0.0554 -0.0394
17180W        W32797  13.115  10.261  12.458  0.0158  0.0954 -0.1091
17181W        W32798   7.225  10.526  16.238  0.3431 -0.1213  0.3727
17182W        W32799   3.247   7.692   3.262 -0.1490  0.3171 -0.0239
17183W        W32800  10.271   0.733   3.611  0.3075  0.3526  0.1259
17184W        W32801   2.213   0.808   4.702  0.1021 -0.1681 -0.0611
17185W        W32802  12.917  15.002  14.607  0.1378 -0.0253  0.2422
17186W        W32803   6.129   1.740  16.538  0.1424 -0.4042 -0.2003
17187W        W32804   2.889  17.480  13.079 -0.2022 -0.2372  0.1306
17188W        W32805   9.704   0.999  13.607  0.0511  0.1223  0.1107
17189W        W32806   5.876   9.052  12.316 -0.1743  0.0253 -0.1148
17190W        W32807  12.638  11.544   0.739 -0.2951 -0.0593 -0.3850
17191W        W32808  13.539  15.371   0.817  0.2304 -0.1896  0.1472
17192W        W32809  12.870  14.152   3.176 -0.0238  0.2830 -0.2110
17193W        W32810   5.871   4.032   4.357  0.0616  0.2739 -0.1891
17194W        W32811   2.313  17.699   3.414 -0.2925 -0.0977  0.0606
17195W        W32812   1.347   8.040   2.465  0.1510 -0.1720 -0.0741
17196W        W32813  10.199  11.918   0.066  0.0119  0.0606  0.0499
17197W        W32814  11.418   3.914   4.441  0.1197  0.2178 -0.4644
17198W        W32815  16.781  11.079  16.044 -0.1156  0.0326  0.2359
17199W        W32816   0.780  10.148   4.051  0.1523 -0.0221 -0.0854
17200W        W32817   3.898   9.236  15.118 -0.1931 -0.1142  0.0090
17201W        W32818  11.938  17.842  16.324  0.1665  0.0331  0.2230
17202W        W32819  13.507   2.369   3.795  0.0763  0.1182 -0.3089
17203W        W32820   3.848  12.078   0.063 -0.1164  0.0682 -0.0560
17204W        W32821   8.733  15.306   6.023  0.2612 -0.0578 -0.0034
17205W        W32822  13.717  12.369   3.406  0.2987  0.0466 -0.0870
17206W        W32823   0.822   9.084  15.633  0.1236  0.0086 -0.0534
17207W        W32824   3.278  17.086   2.614 -0.2185  0.3336 -0.2712
17208W        W32825   7.820  13.882   1.634 -0.1327 -0.1531  0.2338
17209W        W32826  11.275  15.477  14.787  0.0751  0.0103 -0.1421
17210W        W32827   5.382  12.857   4.003  0.2107  0.1385 -0.1744
17211W        W32828   4.276   2.170  12.175 -0.2423 -0.3486 -0.2092
17212W        W32829   5.058   1.775   4.450  0.0245  0.2443 -0.1627
17213W        W32830   2.062  10.040   3.553 -0.2015  0.1513 -0.2135
17214W        W32831   3.104   5.769  14.881 -0.3775 -0.2385 -0.2841
17215W        W32832   1.091  17.630   3.949 -0.0408 -0.2496  0.1297
17216W        W32833  13.428   4.216   5.105 -0.2440 -0.0315 -0.3105
17217W        W32834  13.875  10.705  12.183 -0.1377 -0.0610  0.0060
17218W        W32835  14.128   3.705  14.730 -0.1975  0.3180  0.5745
17219W        W32836  11.309   9.203   3.263 -0.1329  0.2143 -0.1618
17220W        W32837  10.886   2.566   5.420 -0.0200  0.3471  0.2906
17221W        W32838   7.168   0.961  15.046 -0.1174  0.0213  0.2937
17222W        W32839   0.158   7.146   1.429  0.0771  0.2194  0.1058
17223W        W32840   2.990  14.111  13.710 -0.1728 -0.0545 -0.1343
17224W        W32841  13.671   8.897  14.163 -0.2447 -0.0793  0.0386
17225W        W32842  10.687   7.104  15.738 -0.3671 -0.0314  0.0117
17226W        W32843   2.738   0.156   4.402 -0.3086 -0.0039 -0.0697
17227W        W32844   3.823  15.086   0.049 -0.0560  0.1684  0.2195
17228W        W32845   2.956   2.164  13.365 -0.0767  0.1290 -0.0871
17229W        W32846  12.745  14.583  11.408 -0.0888  0.2888  0.1208
17230W        W32847   8.834   2.135   4.602  0.0473  0.4902  0.1146
17231W        W32848   0.920  10.869   2.726  0.0892 -0.0403 -0.0405
17232W        W32849   6.579   5.286  11.455  0.1127 -0.1371  0.1835
17233W        W32850   9.468   5.664   2.092 -0.1202  0.1248 -0.0447
17234W        W32851  16.784  14.052   4.578 -0.2756 -0.3382 -0.1308
17235W        W32852   6.947  11.146   1.763  0.0605  0.1729 -0.2256
17236W        W32853   2.463   2.032   3.770  0.1612 -0.1727 -0.0736
17237W        W32854  13.657   9.814  12.166  0.3497  0.3163 -0.2496
17238W        W32855   1.082  11.965   2.053  0.1781 -0.0680 -0.0093
17239W        W32856   0.600  15.377  12.203 -0.4725  0.2999  0.0989
17240W        W32857  14.273  12.285  16.083 -0.0040 -0.1469 -0.0863
17241W        W32858   0.817   9.948   3.599 -0.1049  0.1080  0.4631
17242W        W32859  14.902   0.623   0.258  0.3079 -0.1158  0.0811
17243W        W32860   9.502  10.389   1.584 -0.0438  0.1427  0.0820
17244W        W32861  17.814  10.765   3.375  0.2106  0.0836  0.1350
17245W        W32862   7.388   0.223  12.347 -0.1979 -0.0040 -0.2325
17246W        W32863  11.456  16.501  16.090 -0.4460  0.3316  0.3271
17247W        W32864   9.137  11.691   1.319  0.5443 -0.1226 -0.1719
17248W        W32865   9.416   0.090   3.939 -0.1540 -0.3096 -0.0713
17249W        W32866  17.673   4.928   3.005  0.1626  0.2115  0.2894
17250W        W32867  17.605  13.610   3.341  0.0923 -0.1378 -0.1931
17251W        W32868   7.957   0.766   4.228  0.1065 -0.1414 -0.0115
17252W        W32869   0.290   8.122   5.326  0.0436 -0.0599  0.1324
17253W        W32870  12.040   6.598   4.714 -0.0847  0.1087 -0.0403
17254W        W32871  17.878  10.406  14.960  0.2813  0.0925 -0.2163
17255W        W32872  11.738   1.297  10.632  0.0235  0.4358 -0.1259
17256W        W32873   6.693  10.856  14.287 -0.2721 -0.2430  0.3589
17257W        W32874   1.967  17.013  14.105  0.2308  0.0155 -0.1972
17258W        W32875  17.221  10.671  15.378 -0.2595  0.2056 -0.0779
17259W        W32876  14.872   3.266  13.670  0.0925 -0.0100  0.0277
17260W        W32877  15.620  12.793   4.959  0.0788  0.0066  0.1854
17261W        W32878  15.655   9.720  12.622  0.0565 -0.1802 -0.3157
17262W        W32879  13.871  17.797  13.104 -0.0988 -0.0480 -0.2230
17263W        W32880  14.564  12.588   3.994 -0.2422  0.1965 -0.0266
17264W        W32881  10.430   3.182  14.402  0.1713 -0.2408 -0.3462
17265W        W32882  16.148   5.921   5.012  0.2520 -0.1453 -0.2563
17266W        W32883  12.124  13.161   1.230 -0.1763  0.3295  0.0326
17267W        W32884  17.454  11.513   3.224 -0.1804 -0.0731  0.0084
17268W        W32885   5.171  14.126  12.643 -0.0696  0.3067 -0.0752
17269W        W32886   2.761   9.244  12.145 -0.0720 -0.1075  0.1329
17270W        W32887   6.465  16.311  11.891  0.0626  0.0864 -0.1361
17271W        W32888   6.031  15.336   5.890 -0.0528  0.2672 -0.1423
17272W        W32889  14.669   0.907  14.585  0.2646  0.1564  0.5280
17273W        W32890  10.331   6.291  14.854 -0.1146  0.0865 -0.1117
17274W        W32891   8.153   4.366   3.179  0.2893  0.4690  0.0582
17275W        W32892   8.896   6.097   1.982  0.2839 -0.0006  0.2901
17276W        W32893  11.970   1.161  14.241  0.1363 -0.0185 -0.0489
17277W        W32894   2.573   1.775  16.346  0.0118  0.1082 -0.0666
17278W        W32895  10.630   7.927   1.200  0.0287 -0.0636  0.0331
17279W        W32896   0.209   6.241  12.650  0.0636 -0.0477 -0.1557
17280W        W32897   7.861  13.381   0.276  0.5382 -0.2688  0.1148
17281W        W32898   6.762   2.343   6.138 -0.2266 -0.1263 -0.1545
17282W        W32899  10.792  17.558  13.882  0.1177  0.1155  0.2240
17283W        W32900   9.236   7.936   5.828  0.3738 -0.0156  0.1829
17284W        W32901   1.168  17.508   2.704 -0.1802  0.0170  0.3148
17285W        W32902  10.725   7.847  12.888  0.1290 -0.0449  0.0842
17286W        W32903   9.361   9.079  13.671 -0.1030  0.1775  0.2621
17287W        W32904  14.741  13.489   4.035 -0.1097 -0.0793  0.0968
17288W        W32905   7.399   8.473  15.052  0.0045  0.0100 -0.1825
17289W        W32906   2.645   1.493   3.654 -0.1225 -0.1302  0.2377
17290W        W32907  13.289  11.568   1.915 -0.0940 -0.0685 -0.1187
17291W        W32908   7.865   6.098  15.157  0.1511  0.0800 -0.0518
17292W        W32909  12.250  14.639  16.531  0.0196  0.2665 -0.2061
17293W        W32910   9.101  10.501  14.709  0.4475  0.0508 -0.0995
17294W        W32911  13.178   5.057   4.322 -0.0974 -0.0040  0.4882
17295W        W32912  15.604   5.665  13.036 -0.0527  0.1339  0.2017
17296W        W32913  16.370  16.552   5.397  0.0925 -0.1885  0.0601
17297W        W32914   1.982   2.792   2.929 -0.1087 -0.0107 -0.5443
17298W        W32915   3.423   8.508   4.047 -0.0151  0.0270  0.0805
17299W        W32916   9.682   5.592   6.012  0.0189  0.2224 -0.0374
17300W        W32917   9.770   6.197  13.219 -0.3383 -0.1180 -0.2100
17301W        W32918  10.043  10.907   0.096 -0.0877 -0.0830 -0.0112
17302W        W32919   7.684  13.924   4.912  0.0470  0.0612  0.1706
17303W        W32920  12.381   9.268   3.543 -0.1081 -0.1838  0.3050
17304W        W32921  10.306  12.745   2.421 -0.0999  0.0962 -0.0208
17305W        W32922   9.171   9.952  11.503  0.1341  0.0689 -0.2839
17306W        W32923   9.895   4.465   2.984  0.2798  0.0705  0.3764
17307W        W32924  13.356   8.238  13.185 -0.5681 -0.1455 -0.2750
17308W        W32925  13.239   7.366   5.263 -0.0230  0.3142 -0.0593
17309W        W32926   5.559  18.048   2.935 -0.0117  0.2397  0.2087
17310W        W32927  17.847  12.909  15.878 -0.1570 -0.0187  0.0532
17311W        W32928   9.209  15.041  16.475  0.1786  0.0300  0.0228
17312W        W32929  10.631   5.905  12.609 -0.4397  0.1721  0.0971
17313W        W32930  11.822   6.610   1.629 -0.0180  0.0171 -0.2503
17314W        W32931   1.897  11.591   5.146  0.0165 -0.0330  0.0935
17315W        W32932   1.817   7.447  13.498 -0.1121 -0.0976  0.2900
17316W        W32933   2.389   7.139   0.481 -0.1356 -0.0126  0.2007
17317W        W32934   5.455   9.841   4.438  0.1039  0.0637  0.0015
17318W        W32935  12.530  10.972   3.950 -0.2136 -0.1912 -0.2193
17319W        W32936  12.356   5.010   4.461 -0.1421 -0.0909  0.0187
17320W        W32937  13.097  10.821   2.694 -0.0112 -0.0477  0.1731
17321W        W32938  14.342   6.131  14.047 -0.0154 -0.2172 -0.3904
17322W        W32939  12.136   5.160   2.482 -0.0180  0.0173 -0.0003
17323W        W32940   1.066   0.335  15.945  0.1258 -0.2729 -0.0134
17324W        W32941  10.947  10.304  15.727  0.1775  0.2417 -0.0920
17325W        W32942   2.114   7.374  13.064 -0.1545 -0.1778  0.4268
17326W        W32943   5.121  13.202   0.087  0.0181  0.0015 -0.2808
17327W        W32944   8.700  12.178  16.034 -0.1445 -0.1443 -0.3436
17328W        W32945  12.677   5.937   2.967 -0.0126  0.1098 -0.1205
17329W        W32946   7.419   3.644   1.769 -0.0167 -0.1310  0.0714
17330W        W32947   9.677  14.675  15.354  0.1550 -0.1853  0.1886
17331W        W32948   9.451   9.421   2.204 -0.2391 -0.1219 -0.1325
17332W        W32949  14.405   6.763   0.380  0.2098 -0.1722 -0.0266
17333W        W32950   5.672  16.522  13.030 -0.0716  0.1016  0.0974
17334W        W32951   9.127  13.931   0.437  0.1655 -0.1345 -0.1274
17335W        W32952  17.819  10.212  13.174  0.1180  0.2419 -0.0303
17336W        W32953   0.559   2.191  12.402 -0.0653 -0.1984  0.4434
17337W        W32954   0.828  13.460  16.636  0.2077 -0.0457  0.1277
17338W        W32955  12.744  12.530   1.333 -0.0024  0.1821  0.0935
17339W        W32956  12.513   1.517   5.024  0.2266  0.0039  0.0874
17340W        W32957  14.018   9.784   4.691 -0.1337  0.1284  0.3943
17341W        W32958   8.541  17.026  14.090 -0.3402 -0.0465 -0.1354
17342W        W32959  16.203  11.418   0.940 -0.2987 -0.3657  0.3376
17343W        W32960   2.360  11.668  10.862 -0.2188  0.2438  0.0610
17344W        W32961   1.783  17.384   0.892 -0.3979  0.2747 -0.1129
17345W        W32962   8.226  11.843  16.594  0.2283 -0.2136  0.0378
17346W        W32963   7.051   9.986  16.130 -0.0197 -0.0352 -0.0829
17347W        W32964   0.276   5.416   4.514 -0.0304 -0.0257 -0.0068
17348W        W32965   9.991  14.828   4.118 -0.1637 -0.1394  0.0355
17349W        W32966   7.779  14.015  15.869 -0.0772 -0.2180 -0.0617
17350W        W32967   9.372   4.167  14.108  0.2363  0.2419  0.0033
17351W        W32968   2.657  16.558   6.232 -0.0457  0.1967 -0.2338
17352W        W32969  10.313  17.836  14.061  0.0535  0.0787  0.0362
17353W        W32970   5.678  12.140   4.676  0.0028 -0.0398  0.2370
17354W        W32971   3.158  17.588   2.387 -0.2298 -0.4997  0.0916
17355W        W32972  12.801   0.500   3.223 -0.1072 -0.2040  0.2680
17356W        W32973   1.306   1.549   6.699  0.1564  0.0564 -0.1484
17357W        W32974  17.070   2.329  13.095  0.1651  0.0952  0.0116
17358W        W32975   5.382   1.968   2.922  0.0685 -0.1843  0.1580
17359W        W32976  15.388   2.758   0.738 -0.0642  0.2686 -0.1496
17360W        W32977   8.332  13.500   3.100 -0.0550 -0.0693  0.3113
17361W        W32978  11.215   2.533  12.354  0.0067 -0.3685  0.0398
17362W        W32979  16.896   6.736  13.217  0.0013 -0.1812 -0.0212
17363W        W32980   7.078   0.978   3.842 -0.1373  0.0794  0.0395
17364W        W32981   7.384  10.752  15.831  0.1291  0.0391 -0.1285
17365W        W32982   5.058   5.442  13.216  0.0325 -0.1950 -0.0566
17366W        W32983  12.390  17.699  16.666  0.4574 -0.1249 -0.1820
17367W        W32984  14.004  15.464   0.740  0.0808  0.0767 -0.1327
17368W        W32985   2.798   2.735   0.644  0.0361  0.2207 -0.1216
17369W        W32986   4.902  18.038   2.204 -0.0335 -0.1280 -0.5111
17370W        W32987   7.412   2.867   3.447  0.1680 -0.2605 -0.1491
17371W        W32988  10.661   2.498   2.280 -0.0008 -0.1037  0.1525
17372W        W32989   9.579   8.062  12.655 -0.3419  0.1538  0.0460
17373W        W32990   5.992  11.732  10.218  0.0180  0.1416 -0.3669
17374W        W32991   1.510   9.954   0.935 -0.1314  0.0624  0.1254
17375W        W32992   8.986   5.132  13.009  0.1620  0.1572  0.0967
17376W        W32993   8.217   1.346  14.610 -0.2290  0.1839  0.1103
17377W        W32994   5.439  12.259  13.135 -0.1194  0.2034  0.0638
17378W        W32995  11.205   0.892  14.959 -0.1782  0.1141  0.2764
17379W        W32996  15.556  12.498   6.161 -0.2738 -0.0730  0.4187
17380W        W32997  14.508   0.487  13.096  0.1879  0.2516 -0.3476
17381W        W32998  15.027   2.766  14.916  0.2567 -0.2791 -0.1260
17382W        W32999  15.387   0.980  16.151  0.0569 -0.0319  0.2096
17383W        W33000   4.654   5.026   0.577 -0.4111 -0.2111 -0.0133
17384W        W33001   6.753  17.085   0.637 -0.0961  0.1453 -0.0680
17385W        W33002   8.223   6.913  10.919  0.0113 -0.1571 -0.0219
17386W        W33003   9.930  10.221   2.107 -0.0883  0.0567  0.0605
17387W        W33004  12.129   6.872  15.931 -0.1269 -0.2082 -0.3200
17388W        W33005  10.696  13.529  14.343 -0.3147 -0.1307 -0.0994
17389W        W33006   8.194  14.067   0.588 -0.1994  0.1502  0.0784
17390W        W33007  10.892  10.588   2.163  0.2990  0.0063 -0.1227
17391W        W33008  11.542  15.741   6.281  0.1892 -0.0103 -0.2691
17392W        W33009   7.191  10.457   5.116 -0.0209 -0.1152 -0.0962
17393W        W33010  12.667  15.446   3.109  0.3141 -0.3628  0.0258
17394W        W33011   7.402  16.010  14.207 -0.2124  0.1430  0.0408
17395W        W33012   9.455   6.992  11.959  0.2336  0.1205  0.0874
17396W        W33013   2.870   2.449  15.590  0.0074 -0.1327  0.1750
17397W        W33014   5.941   0.441  13.869 -0.1482  0.2973  0.0471
17398W        W33015   7.551  15.509  14.187  0.0438  0.1493 -0.2327
17399W        W33016   0.537   1.470   4.117 -0.1078  0.2013 -0.1325
17400W        W33017   1.614   1.689  16.769  0.0207  0.1041  0.0726
17401W        W33018  16.368   2.248   4.722  0.1895 -0.0070 -0.0984
17402W        W33019  17.905   9.809  16.650  0.1374 -0.0715  0.0150
17403W        W33020   7.723   1.099   6.424 -0.1206  0.0477 -0.0950
17404W        W33021  14.511  13.749  12.159  0.0810  0.2305  0.3452
17405W        W33022   0.757  14.436   5.417 -0.1501 -0.2148  0.1958
17406W        W33023   7.366   6.191   0.258  0.0896  0.4272 -0.0211
17407W        W33024   7.807   8.184  13.231  0.1611 -0.1805  0.3287
17408W        W33025  11.941   8.561   1.957 -0.2302  0.0062 -0.0971
17409W        W33026  16.529   4.638  16.514 -0.0874  0.2087 -0.0106
17410W        W33027   5.942   4.598  13.538  0.2995  0.0833  0.4137
17411W        W33028  16.322  16.670  13.448  0.4770  0.1166 -0.0758
17412W        W33029   9.366   7.800  11.333 -0.0872  0.0466  0.0661
17413W        W33030  16.218   6.942   4.839 -0.2544  0.1137  0.0113
17414W        W33031  14.969   6.999   3.670  0.1253 -0.0667 -0.1644
17415W        W33032  12.357   8.103   0.742  0.0400  0.0634 -0.3649
17416W        W33033  12.425   2.333  15.476 -0.3482  0.0581  0.2640
17417W        W33034  15.060  10.196   5.896  0.2440  0.0408  0.0995
17418W        W33035   0.279  15.022  12.456  0.1424  0.2392  0.2135
17419W        W33036   5.668   6.788   1.804 -0.1307 -0.0148 -0.1946
17420W        W33037  15.650  17.491  15.237  0.0472 -0.0827  0.0747
17421W        W33038   1.270  15.246   4.941  0.2245  0.0085  0.4282
17422W        W33039   1.860   1.054   0.766  0.0285  0.1510  0.1980
17423W        W33040   2.011   8.008   5.711 -0.1797  0.1675  0.0920
17424W        W33041  16.410   0.001  14.270  0.3620  0.3574 -0.0934
17425W        W33042   7.667  12.864   3.335 -0.0506 -0.1982 -0.0659
17426W        W33043  12.367  13.103  11.346 -0.1925  0.1318  0.2443
17427W        W33044  12.137   8.604  16.165 -0.3831 -0.1993  0.1034
17428W        W33045  15.709  17.037   2.732 -0.1675 -0.1496 -0.1754
17429W        W33046  10.822   3.718   0.530 -0.1102 -0.0839  0.2745
17430W        W33047  17.881  11.530  12.837 -0.0459  0.2694 -0.1076
17431W        W33048   6.166  16.022   4.627  0.0359 -0.1929 -0.0503
17432W        W33049   9.836  10.368  12.791 -0.1229  0.0834 -0.0262
17433W        W33050   5.914   6.718   1.345 -0.0162 -0.1628 -0.0235
17434W        W33051  10.326  10.411  15.172  0.4028 -0.1666  0.2846
17435W        W33052  12.113   4.491   1.605  0.0157 -0.2819  0.1663
17436W        W33053   4.768  17.320  15.575  0.2616 -0.3724 -0.0114
17437W        W33054  17.776   8.814  13.878  0.1784  0.2913  0.1896
17438W        W33055   6.756   8.359   1.934  0.2314  0.1303 -0.2928
17439W        W33056   6.640  15.173  15.654  0.0363 -0.2032  0.2646
17440W        W33057  11.425   9.864   1.130  0.0489  0.0573 -0.2521
17441W        W33058  13.776   7.353   4.281  0.2562 -0.0192 -0.0908
17442W        W33059  17.669   3.235   4.082 -0.1841  0.0312  0.4018
17443W        W33060  14.188  11.629  11.696 -0.1527  0.1813  0.0300
17444W        W33061  10.450  16.419  12.347  0.2976  0.1141  0.1310
17445W        W33062  11.917   5.320  14.372 -0.2767 -0.1287 -0.0146
17446W        W33063  15.493   1.342   3.725  0.0180  0.0532 -0.1534
17447W        W33064   5.604  10.378   2.615 -0.1018 -0.2501  0.4570
17448W        W33065   3.825   9.511   4.804 -0.0507  0.1571 -0.0263
17449W        W33066   6.820   4.426   1.557  0.1342  0.2207  0.3142
17450W        W33067  13.377  14.112  14.362 -0.2768 -0.2280  0.1668
17451W        W33068  10.871  11.598   5.103  0.0024  0.0121 -0.0789
17452W        W33069  15.705  17.608   1.891  0.1115 -0.0195  0.4232
17453W        W33070  17.503   8.375   1.153  0.1536 -0.2845  0.0736
17454W        W33071   0.297  17.641  14.165  0.0909  0.0286 -0.2562
17455W        W33072   2.244  11.938  13.441 -0.0700 -0.0658 -0.0470
17456W        W33073  13.613  14.076  13.040 -0.2448 -0.0009  0.2331
17457W        W33074  14.382   6.325  12.519  0.1830  0.0104  0.2065
17458W        W33075  15.020   9.532  11.689  0.1704 -0.0003 -0.1138
17459W        W33076  17.190  14.370   2.811  0.0612 -0.0181  0.1139
17460W        W33077  11.547   5.795  12.094 -0.0982 -0.2617 -0.1606
17461W        W33078   4.645   8.059  14.659 -0.2783 -0.1200 -0.2131
17462W        W33079  10.110   8.677   0.503 -0.1171  0.3319 -0.2105
17463W        W33080   7.964   2.718   4.893 -0.0472 -0.1641 -0.2669
17464W        W33081  11.946  16.193   2.737  0.2309  0.1256  0.1050
17465W        W33082  12.307  17.338  15.110 -0.2061  0.2665  0.1556
17466W        W33083   3.448  10.960   0.713 -0.2353 -0.1161 -0.0553
17467W        W33084  10.346   9.200  13.198 -0.3241  0.0165  0.1763
17468W        W33085  12.223   5.531   0.160 -0.2512 -0.3841 -0.0062
17469W        W33086   9.833   5.695  11.372 -0.1206  0.4262 -0.2439
17470W        W33087  12.195  17.335   6.667 -0.2051  0.0505 -0.2903
17471W        W33088  12.141  16.462  12.394 -0.3092  0.1297 -0.0649
17472W        W33089   4.491  16.763   6.312  0.1374 -0.2321 -0.0066
17473W        W33090   8.895   8.526  14.352 -0.0440 -0.3171  0.0655
17474W        W33091  16.236  11.989  13.056  0.1154  0.0068 -0.0256
17475W        W33092  10.325   7.423   5.170 -0.1960  0.3597  0.1690
17476W        W33093  16.505  16.808  16.343 -0.1959  0.0838 -0.0416
17477W        W33094  13.789   4.174  14.174 -0.0340  0.1128 -0.0995
17478W        W33095   1.617   9.225  10.804 -0.1070 -0.0049  0.0667
17479W        W33096  10.854  13.006  12.535  0.1366  0.1377  0.1343
17480W        W33097  11.918  12.514   2.082 -0.6348  0.4169 -0.1211
17481W        W33098   4.679  11.263  14.197  0.0436  0.0789 -0.0333
17482W        W33099   6.412  15.212  11.358 -0.1710  0.2339 -0.3041
17483W        W33100   0.375   5.545  12.479  0.0355 -0.1779  0.1578
17484W        W33101   8.337   6.578   3.077 -0.0191 -0.0821  0.2570
17485W        W33102  17.472  13.551  14.539  0.0404  0.1032 -0.0313
17486W        W33103   9.760  15.144   0.302  0.2150 -0.1118  0.1207
17487W        W33104   7.391   5.730   1.190  0.0013  0.3728 -0.0160
17488W        W33105   8.395   6.139   4.599 -0.0110 -0.1628  0.0792
17489W        W33106  17.244   0.307   3.430 -0.2108  0.0496  0.1211
17490W        W33107  16.260   6.936  13.997  0.0416 -0.3590  0.2830
17491W        W33108   0.367   9.791   0.240  0.1101  0.0044 -0.0326
17492W        W33109  16.932  16.539   5.333  0.3639 -0.0764 -0.1275
17493W        W33110   7.412   0.131  13.104 -0.5733 -0.4807 -0.1713
17494W        W33111   8.203  14.126  15.001 -0.0082 -0.0480 -0.1463
17495W        W33112   5.382  11.306   3.789 -0.1913 -0.3540 -0.3098
17496W        W33113  17.990   1.145  12.035  0.0162 -0.2638 -0.1707
17497W        W33114   7.362   5.559   3.859 -0.0011 -0.2456  0.1383
17498W        W33115  11.213   3.502   2.205 -0.3616  0.1721 -0.2118
17499W        W33116   3.960   9.749   4.318  0.0018 -0.3043 -0.1324
17500W        W33117  15.898   4.102  13.342  0.2177 -0.0643  0.1533
17501W        W33118  10.335   0.260  15.330  0.1337 -0.1949 -0.0393
17502W        W33119   9.806   7.732  12.391  0.2349 -0.0200  0.0777
17503W        W33120   4.368   7.162  15.441  0.4882 -0.1023 -0.1368
17504W        W33121  11.146   1.048   0.529 -0.0731  0.3400 -0.1309
17505W        W33122  10.351  11.073  11.112  0.1150 -0.2866 -0.3359
17506W        W33123   3.032   0.309   3.081 -0.0130  0.1414  0.2354
17507W        W33124  16.273   7.449  14.319  0.0347 -0.1057  0.2486
17508W        W33125  17.074  11.413  12.037 -0.0753  0.1363 -0.0437
17509W        W33126  14.372  13.180   3.832 -0.2162  0.0945 -0.0260
17510W        W33127  13.077  10.356  11.869 -0.2922  0.2236  0.1765
17511W        W33128   3.262   8.903  13.405 -0.0214 -0.3838 -0.1356
17512W        W33129   5.880   4.824   0.093  0.2658  0.1115  0.1032
17513W        W33130   6.888  15.032   2.356 -0.0398  0.0933 -0.0158
17514W        W33131  15.203   9.416  14.202  0.0530 -0.3165 -0.2232
17515W        W33132  16.843   5.832   3.524 -0.3075  0.0266  0.0379
17516W        W33133   8.650   1.651  14.092 -0.0431 -0.1580 -0.0887
17517W        W33134  17.422   5.513   1.316 -0.1361 -0.1095 -0.1339
17518W        W33135  14.951  13.634  11.490  0.0549  0.3411  0.2911
17519W        W33136   1.385  16.550  14.732 -0.1099  0.2802  0.1203
17520W        W33137   4.671   6.861  15.702  0.0312  0.2564  0.3031
17521W        W33138  10.570   7.076   4.840 -0.2382 -0.3479 -0.2629
17522W        W33139   8.531  17.743   4.707  0.0544  0.2654 -0.3887
17523W        W33140   0.861   3.474  13.685  0.3438 -0.0354 -0.3880
17524W        W33141  14.212   3.728   2.414  0.1612 -0.2076  0.0786
17525W        W33142   4.143  12.875  12.455 -0.0664 -0.3453  0.2617
17526W        W33143  11.688  12.839   3.552 -0.1664  0.1764 -0.0036
17527W        W33144  16.155  10.750  14.009 -0.2800 -0.1351  0.3525
17528W        W33145   7.782   5.712   0.752 -0.1917  0.0772  0.2149
17529W        W33146  17.478   6.114  16.738 -0.2889 -0.0703 -0.0545
17530W        W33147   9.306  10.330  13.028  0.0215  0.2269  0.3880
17531W        W33148   2.839  15.201   1.806  0.1061 -0.0116  0.0797
17532W        W33149  14.819   6.144   5.974  0.0823  0.1916 -0.0738
17533W        W33150   4.923   8.292  13.054  0.2393  0.0733 -0.1711
17534W        W33151  17.401   0.334  16.735  0.4062  0.1094 -0.2756
17535W        W33152  13.775   5.658  16.071  0.2795  0.1432  0.0922
17536W        W33153  15.612  15.222  15.646  0.3018  0.0335  0.1922
17537W        W33154  14.718  15.261   2.314 -0.0605  0.0388  0.0605
17538W        W33155   4.733   6.438   4.318 -0.2830  0.1743 -0.0892
17539W        W33156  16.261   6.751  16.273 -0.5209  0.1280  0.0253
17540W        W33157   2.111  15.929   2.799  0.4299 -0.2203  0.2590
17541W        W33158  14.999   1.007  15.816 -0.0051  0.4473  0.1297
17542W        W33159   4.146   6.757  15.791 -0.2283  0.0504  0.0701
17543W        W33160   2.698  14.193   2.998  0.3321 -0.0136  0.1864
17544W        W33161   7.963  13.615  15.699 -0.0776  0.1768 -0.1595
17545W        W33162  12.265   1.788   1.907 -0.1551  0.0092  0.0117
17546W        W33163   9.250   6.433  14.642 -0.1042  0.1112 -0.0662
17547W        W33164  10.665  14.907  12.746  0.3122 -0.3490 -0.2432
17548W        W33165   6.080  17.762  14.383 -0.1601 -0.3236  0.0948
17549W        W33166   0.086  13.942   2.154  0.0785 -0.2152 -0.2914
17550W        W33167  14.278  10.895   4.343  0.1043 -0.2672  0.0948
17551W        W33168   6.900  15.196  11.135 -0.1905 -0.2890 -0.1388
17552W        W33169   8.202   2.086  12.588  0.0002 -0.5164  0.1685
17553W        W33170  12.787   7.068   5.265  0.1304 -0.0276 -0.1989
17554W        W33171   5.088   8.770  12.612  0.0172  0.3016 -0.1865
17555W        W33172   7.442  15.705   2.134 -0.2608  0.0551 -0.0368
17556W        W33173   5.347   4.938  11.131 -0.0822 -0.3372 -0.1469
17557W        W33174   7.882   2.885   0.029  0.4069 -0.0957  0.0885
17558W        W33175  17.668   1.962   3.080 -0.2603  0.0222  0.3972
17559W        W33176   1.675   2.406   6.099  0.0086  0.3766  0.1953
17560W        W33177   4.070   1.708  12.086  0.0242  0.0682 -0.0382
17561W        W33178   4.245  16.953   5.790 -0.0156  0.1080 -0.2104
17562W        W33179   5.264  12.433  15.478 -0.1844  0.0799  0.0151
17563W        W33180   9.894   6.486   2.520  0.0638 -0.1501 -0.1219
17564W        W33181  11.706   9.498   5.468 -0.0876 -0.1305 -0.1988
17565W        W33182  13.679   0.061   2.922  0.0506  0.2444  0.2584
17566W        W33183   1.121   1.636   5.844  0.0470  0.2039  0.4171
17567W        W33184   6.283   3.403  11.426 -0.0911  0.0913  0.0826
17568W        W33185  17.087  11.307  12.976  0.2670 -0.0888 -0.0684
17569W        W33186   7.505  12.719  12.360 -0.3447  0.2536 -0.1615
17570W        W33187   5.883  14.975  16.007  0.1724  0.0722 -0.0110
17571W        W33188  15.960  10.704  16.486 -0.0708 -0.2173 -0.1598
17572W        W33189   0.950   1.411   1.069 -0.1008  0.0145 -0.2066
17573W        W33190  11.719   9.870   1.829 -0.0122 -0.1642  0.1316
17574W        W33191  10.992   6.368  11.229  0.1825 -0.4467 -0.2294
17575W        W33192  16.850   7.430  12.169  0.3132  0.2222  0.0417
17576W        W33193  13.828   5.146   4.760  0.1556  0.0841 -0.0212
17577W        W33194  16.402  17.249  13.101 -0.0510 -0.1447  0.0738
17578W        W33195   6.056  12.023  16.543 -0.0318 -0.2972 -0.2129
17579W        W33196  16.827   8.056  14.318 -0.1508  0.0639 -0.0299
17580W        W33197  16.534  10.495  11.505  0.1272 -0.0700 -0.2844
17581W        W33198  11.620   0.264   0.302  0.0141 -0.1251 -0.0165
17582W        W33199   8.439   7.772  16.405 -0.0448  0.0939  0.1015
17583W        W33200  11.322   6.734  10.456  0.1142 -0.0513  0.0611
17584W        W33201   1.274  12.741   1.868  0.1108  0.4874 -0.0087
17585W        W33202  12.652  12.570  12.724  0.4100  0.0638 -0.2131
17586W        W33203   6.319  11.076  16.528 -0.1447  0.2536 -0.0903
17587W        W33204  17.704   1.226   3.238  0.1126 -0.2220  0.2160
17588W        W33205   6.911   5.716   3.770  0.1345 -0.0742 -0.1593
17589W        W33206   5.717  14.791  14.250 -0.0576  0.0574 -0.2587
17590W        W33207   0.172   4.067   4.223 -0.0108 -0.4664  0.2606
17591W        W33208   7.824   1.914  12.341 -0.0489 -0.0563  0.2417
17592W        W33209   8.845  14.098   3.606 -0.0670 -0.3411 -0.0895
17593W        W33210  14.354   8.962  15.122  0.2918  0.1247 -0.2905
17594W        W33211   0.465  12.779   1.355  0.2585 -0.3591  0.2120
17595W        W33212   4.604   8.433  12.718 -0.1414 -0.0341  0.1588
17596W        W33213   6.286  13.504   3.504  0.0664 -0.1910  0.3493
17597W        W33214   2.397  11.951  15.611  0.1714 -0.0332 -0.3079
17598W        W33215   5.052  16.614  14.698  0.0683 -0.3121  0.1345
17599W        W33216  14.611   9.628  15.097  0.1570  0.0167  0.1542
17600W        W33217  15.719   0.977   1.184  0.1458 -0.1926  0.1260
17601W        W33218  15.656  11.874   2.614  0.1262  0.2726  0.1623
17602W        W33219  12.454   8.999   3.991  0.1904 -0.1076  0.1161
17603W        W33220  15.667  12.237   4.047 -0.1185 -0.2251 -0.0090
17604W        W33221   2.590  10.010  11.522  0.3270 -0.0304 -0.0720
17605W        W33222  13.748  11.335   5.412 -0.1736  0.1643  0.0697
17606W        W33223   6.183   6.958   3.524  0.0089 -0.0237  0.2634
17607W        W33224  14.405  14.753   4.018  0.1791 -0.0534  0.3163
17608W        W33225   0.862  17.476   6.336  0.0811 -0.2055  0.2601
17609W        W33226  17.473   9.783  12.322 -0.1978  0.1509  0.0577
17610W        W33227  13.863  15.296   0.035  0.2016  0.0573 -0.3945
17611W        W33228  11.099  17.237   0.976 -0.4131  0.4128  0.0104
17612W        W33229  13.986   3.401  14.313  0.0158 -0.2181 -0.1963
17613W        W33230  15.291  11.298   3.283 -0.0113  0.4917 -0.2211
17614W        W33231  17.641  17.755  16.686  0.0961  0.1028  0.1837
17615W        W33232   9.303  12.171  11.022  0.1091 -0.3352  0.3008
17616W        W33233   7.846   8.741   0.433  0.0002 -0.2593 -0.2792
17617W        W33234   7.750   7.419  14.966  0.2053 -0.2503  0.0136
17618W        W33235   8.109  11.631   5.025  0.0797  0.0652 -0.2212
17619W        W33236   4.625  11.293   4.560 -0.2158 -0.0941  0.0452
17620W        W33237  13.269   9.354   4.438  0.0374  0.1483 -0.2541
17621W        W33238   9.340   9.772   3.419  0.0724 -0.0014  0.0896
17622W        W33239   9.453   8.887  15.583  0.0772  0.0498  0.0017
17623W        W33240  15.272   5.862  13.970  0.0445 -0.0430  0.0717
17624W        W33241   7.679   3.525  13.471 -0.0914 -0.0151 -0.0185
17625W        W33242   9.965  14.773  15.766 -0.1634 -0.2220 -0.0657
17626W        W33243   8.663   2.484  13.309  0.2532 -0.3265 -0.0423
17627W        W33244  15.942   9.403   2.382  0.0561 -0.0224  0.2142
17628W        W33245   5.175   3.246   5.150 -0.0408 -0.1637  0.0299
17629W        W33246  13.301  15.474   5.303  0.2729  0.2276  0.3159
17630W        W33247   2.744   8.110   6.200 -0.1797 -0.3573  0.3813
17631W        W33248  15.037   2.913   2.731 -0.2390  0.1341 -0.2025
17632W        W33249   8.144   0.714  12.898 -0.1639 -0.0088 -0.1575
17633W        W33250  10.035  15.831   0.320 -0.1316  0.2199  0.0324
17634W        W33251   2.779   8.874   4.777  0.1074  0.4303 -0.3176
17635W        W33252   0.259   0.511  12.372  0.1970  0.1892 -0.1438
17636W        W33253   0.580   6.479   1.281  0.0891 -0.0255 -0.0043
17637W        W33254  10.669  17.887   1.994  0.1206 -0.2243 -0.0620
17638W        W33255   9.265   3.219   5.249  0.3913  0.0822 -0.2268
17639W        W33256  16.485   5.915  16.544  0.1100 -0.0151  0.0496
17640W        W33257   8.671   0.226  12.062 -0.0428 -0.3463 -0.1492
17641W        W33258  17.868  11.227   4.242  0.0978 -0.1046  0.3358
17642W        W33259   0.975   5.958   5.628  0.0976 -0.1077  0.3103
17643W        W33260  13.001   2.550  14.739 -0.1684 -0.0083  0.2947
17644W        W33261   7.118  15.974   1.306  0.1005 -0.1481  0.0196
17645W        W33262  15.234   8.842  16.101 -0.1025  0.3375  0.3145
17646W        W33263   3.469   9.055  14.772  0.1137 -0.0114  0.2909
17647W        W33264   4.057   5.484  14.621 -0.1289 -0.2908  0.0285
17648W        W33265   2.116   8.353   4.343 -0.2805  0.3685  0.2605
17649W        W33266   0.494   5.171  14.016  0.2903 -0.2157  0.1424
17650W        W33267   2.500  15.158  15.804  0.0016  0.0643  0.2667
17651W        W33268   1.407   4.156   3.445 -0.1075  0.0820 -0.0308
17652W        W33269   2.040  10.488   5.837  0.0017  0.0489  0.1340
17653W        W33270   2.583  15.928   0.563  0.0582  0.0367  0.1172
17654W        W33271  13.803   0.862   0.051 -0.1387 -0.0336  0.1473
17655W        W33272  17.917   4.630  13.717 -0.1480  0.1436  0.0044
17656W        W33273   1.417  16.813   2.992  0.0059 -0.0408 -0.3013
17657W        W33274   1.937   1.574  15.011 -0.0523 -0.0648  0.0261
17658W        W33275   5.880   3.656   2.468 -0.0923  0.2087 -0.1118
17659W        W33276   0.889   7.286  15.917 -0.1324  0.1400 -0.0331
17660W        W33277   0.492  10.833   2.473  0.2630 -0.0399  0.2406
17661W        W33278  16.505  12.071  11.907 -0.0476  0.1100  0.0021
17662W        W33279   8.082   8.135   4.427 -0.1883 -0.1460  0.0246
17663W        W33280   5.879   3.210  15.534 -0.0189 -0.1202  0.4256
17664W        W33281   1.751  11.836  13.204  0.1223 -0.0397 -0.2198
17665W        W33282   1.041  13.153  15.191 -0.1379  0.2124 -0.3248
17666W        W33283   6.686  10.108  13.667 -0.1256  0.1668 -0.2083
17667W        W33284  12.106  10.999   1.129  0.2949  0.1476 -0.0555
17668W        W33285   1.750  17.766  12.812  0.0214  0.0647 -0.1673
17669W        W33286   5.812   8.467   2.170  0.1544 -0.0012  0.1702
17670W        W33287  11.621   2.711  15.634  0.2543 -0.2973  0.2188
17671W        W33288  12.845  15.924  14.844 -0.1330 -0.1309 -0.0854
17672W        W33289   9.855   5.453   0.852  0.1071 -0.3271 -0.0747
17673W        W33290   0.292   3.786  16.279 -0.1149  0.2269 -0.0141
17674W        W33291   7.493   2.011   4.136 -0.3128  0.1773  0.2640
17675W        W33292   5.146   2.459   4.703 -0.1233 -0.3909  0.1868
17676W        W33293  14.137  17.333   4.714 -0.0781 -0.1533  0.0047
17677W        W33294   6.607  10.787   4.609  0.0509  0.1657 -0.0007
17678W        W33295   8.663   7.823   1.860  0.3109  0.0224  0.0457
17679W        W33296  15.625  13.165  13.933 -0.1110  0.1681 -0.0473
17680W        W33297  13.030  14.923   2.027  0.0936  0.1644  0.1498
17681W        W33298   3.371  11.606   4.786 -0.0255  0.0688 -0.1067
17682W        W33299  10.473   5.325  12.106  0.0908 -0.0738 -0.0918
17683W        W33300  13.504   4.371   1.753 -0.1464 -0.0824 -0.3710
17684W        W33301   6.229   4.369   4.335  0.1357 -0.0961 -0.2381
17685W        W33302  17.099  15.775  12.716  0.0508 -0.2490 -0.0703
17686W        W33303  13.792   3.449   5.012 -0.1278  0.0572  0.2274
17687W        W33304   4.097   4.634   1.476  0.0833  0.0125 -0.1150
17688W        W33305  13.468  13.549   2.053 -0.0221 -0.0724  0.2128
17689W        W33306  16.591  13.565  13.487 -0.3380 -0.1729 -0.3047
17690W        W33307  17.904  14.792  14.689 -0.1389  0.2052 -0.2807
17691W        W33308   8.067   4.038   0.425 -0.1083 -0.0161  0.0088
17692W        W33309  12.913   7.713   5.227  0.2291  0.0154  0.0823
17693W        W33310   8.185  13.655  15.257  0.2044 -0.1918 -0.0247
17694W        W33311   4.694   4.055   1.406 -0.1129 -0.1013 -0.2318
17695W        W33312   3.002   0.863   0.278  0.3716  0.1917 -0.1638
17696W        W33313   9.207   3.751  12.919  0.0691 -0.3064  0.0795
17697W        W33314  10.762  16.692  14.805  0.0250 -0.1013  0.2025
17698W        W33315   1.585  10.162   0.167  0.0796  0.1350  0.0961
17699W        W33316   7.036  11.201   0.217  0.2334  0.0526 -0.0507
17700W        W33317  13.532  15.358  13.098  0.3400 -0.0259 -0.0183
17701W        W33318   4.716   4.391  15.687  0.0621  0.0637  0.2137
17702W        W33319   5.394   0.114  11.417  0.0979 -0.1140  0.1811
17703W        W33320   0.748   1.934   2.275  0.4258 -0.0502  0.0404
17704W        W33321  13.032   3.487  13.426  0.2246 -0.2141 -0.1239
17705W        W33322  11.808   8.779   4.595 -0.0080  0.1660 -0.2883
17706W        W33323  12.398  15.555   4.580  0.2675  0.2829  0.2881
17707W        W33324  12.541  16.117   3.717  0.1434 -0.2717  0.2187
17708W        W33325   3.434  13.065  11.760 -0.2283  0.3030  0.6549
17709W        W33326  17.277  11.950  13.177  0.2899  0.3392  0.0961
17710W        W33327   9.873   6.002  11.027 -0.0363  0.0903 -0.0423
17711W        W33328   6.009  16.309  13.763 -0.1531 -0.3002  0.0889
17712W        W33329   9.472  11.136  12.450 -0.0683  0.1529 -0.3403
17713W        W33330  12.859  12.001   1.051  0.0762 -0.1543  0.0271
17714W        W33331  14.548   7.163  15.821 -0.1538  0.1222  0.1526
17715W        W33332  11.528   1.455  15.477 -0.0389 -0.1288 -0.1299
17716W        W33333  14.446  13.273  15.567 -0.0789  0.0401  0.2433
17717W        W33334   4.931  15.730  14.735 -0.0426 -0.0925  0.2436
17718W        W33335   9.065  14.249  12.689 -0.1178  0.2121  0.0661
17719W        W33336  12.956  12.786   0.041 -0.1852 -0.1332 -0.1614
17720W        W33337  11.528   7.024   1.676 -0.0237  0.1927  0.1850
17721W        W33338   9.937   1.416  14.980  0.1281 -0.1309 -0.0402
17722W        W33339  17.099   5.624   0.365 -0.0066 -0.0916 -0.0212
17723W        W33340  11.786   1.455   1.819 -0.0562 -0.0909 -0.1708
17724W        W33341  16.749   3.801  12.812 -0.0763 -0.1066  0.0253
17725W        W33342  11.600   1.263   2.328 -0.1503 -0.1220 -0.0366
17726W        W33343   2.483  16.888   1.036 -0.0863 -0.0935  0.2224
17727W        W33344   9.490   8.314   5.594  0.0860  0.0428  0.3140
17728W        W33345   9.336  14.357   1.120 -0.1060 -0.0640 -0.1994
17729W        W33346   7.583   2.652   0.382  0.1808  0.2104  0.1560
17730W        W33347  17.195  10.168   5.547  0.1489 -0.2664 -0.0096
17731W        W33348  14.374   8.421   3.155 -0.0751  0.1103  0.2755
17732W        W33349  12.261  14.660  11.450  0.2054 -0.1533 -0.1830
17733W        W33350   7.496   6.075   2.480 -0.0330  0.3131  0.1488
17734W        W33351   6.885  14.802  13.447 -0.3961  0.0022 -0.0782
17735W        W33352  15.894   4.590   5.137 -0.3100 -0.0142  0.4763
17736W        W33353   1.824  14.730  15.170  0.2091  0.1931 -0.1183
17737W        W33354   4.358  15.356   3.089  0.2346 -0.2636  0.3189
17738W        W33355   2.014   4.033   3.396 -0.0355  0.1213  0.3666
17739W        W33356   9.914  16.715   5.061 -0.1801  0.3025  0.0310
17740W        W33357  16.165   7.962   3.125 -0.3282 -0.2347  0.3036
17741W        W33358  15.088  13.840   4.120 -0.0579  0.2375  0.0029
17742W        W33359   9.896  14.667   3.700 -0.0462 -0.1446 -0.1704
17743W        W33360   4.671  13.978  16.694  0.0315  0.1823 -0.0628
17744W        W33361   5.721  17.233   4.126  0.1984  0.1344 -0.0469
17745W        W33362   5.163   6.197   3.316  0.0276 -0.0272 -0.1183
17746W        W33363   2.306   7.404  16.092 -0.0950  0.0302  0.3089
17747W        W33364   7.354   2.405   0.775 -0.1699  0.1084  0.0464
17748W        W33365   5.990   8.750  13.564  0.1332  0.0679  0.0889
17749W        W33366   3.112   1.028  16.302  0.2643 -0.2682 -0.1638
17750W        W33367  13.554  15.203  14.522 -0.0370  0.2339  0.0689
17751W        W33368  16.139  13.390  12.289 -0.1689  0.1875  0.1195
17752W        W33369   9.851  17.197   3.023 -0.1789 -0.2800 -0.1647
17753W        W33370  14.153  13.975  14.793  0.0211  0.1049  0.2079
17754W        W33371  15.178   8.195  14.177 -0.0023  0.1602  0.0531
17755W        W33372  14.137   1.199   4.144 -0.0432  0.0332 -0.0167
17756W        W33373   8.107   4.816   3.492 -0.1690 -0.2115 -0.0482
17757W        W33374   1.310  17.637  13.766  0.0992  0.0542  0.1982
17758W        W33375   9.887   6.005  14.235 -0.0809 -0.0852 -0.0743
17759W        W33376  15.408  15.434   1.176  0.1042  0.1226  0.0837
17760W        W33377   7.706  11.576   0.161 -0.0103 -0.1497 -0.0972
17761W        W33378   6.695   6.398  12.213 -0.1176  0.0513  0.1430
17762W        W33379  10.760   7.201   0.833 -0.1186 -0.3644 -0.0101
17763W        W33380  17.732  12.278   3.803  0.2536  0.0871 -0.1159
17764W        W33381   2.554   2.027  15.421 -0.1058  0.3834 -0.3744
17765W        W33382   5.241  14.488   2.751  0.2642  0.1335 -0.3720
17766W        W33383   7.319  17.110  15.149 -0.2155 -0.2471 -0.4695
17767W        W33384  11.265   1.730   2.535  0.2029 -0.3492  0.1140
17768W        W33385   6.831  14.781  11.386 -0.2247 -0.1163  0.0958
17769W        W33386   7.390   5.211  16.300  0.1142  0.1822 -0.0069
17770W        W33387   4.698   6.158   1.596 -0.2959  0.1397  0.1747
17771W        W33388  13.611  13.450   4.651  0.0336 -0.0732 -0.0148
17772W        W33389   7.518   3.828  11.112  0.2848  0.0423  0.5658
17773W        W33390   2.799   3.951  12.124  0.0104  0.2531 -0.0798
17774W        W33391  14.749  11.498   2.415 -0.2531 -0.0391 -0.1498
17775W        W33392   2.162   9.704  14.109 -0.2708  0.0783  0.2964
17776W        W33393   5.638   0.863   5.378 -0.2601 -0.0154 -0.0007
17777W        W33394  14.801  17.231  11.494  0.0466  0.0649  0.1119
17778W        W33395   6.045   8.971  16.173 -0.1140  0.1356  0.0866
17779W        W33396  15.311  12.723  14.622 -0.0108 -0.3063  0.1514
17780W        W33397  10.518  17.672  13.505  0.2691 -0.2378 -0.0684
17781W        W33398   9.488   5.410  16.189  0.3164 -0.0678 -0.0776
17782W        W33399   0.780  11.363  16.650 -0.1137  0.0945 -0.0135
17783W        W33400   7.736   4.723  11.937 -0.0735  0.0689 -0.3584
17784W        W33401   5.948   6.962  11.608  0.2186  0.2169 -0.2119
17785W        W33402   2.089   6.560  13.072 -0.2578 -0.0440  0.1074
17786W        W33403  10.126   1.811   3.182 -0.2783 -0.2446 -0.3512
17787W        W33404   7.057   5.142   0.314  0.2120 -0.3499  0.0247
17788W        W33405   7.818   6.237   0.828 -0.0321 -0.1481  0.1912
17789W        W33406   9.885  13.579  14.336  0.0564 -0.1364  0.3467
17790W        W33407  15.941  10.396  12.667 -0.4964 -0.4262  0.3499
17791W        W33408   9.510  12.889  13.947 -0.1231  0.1928  0.1037
17792W        W33409   7.268   3.052   1.364 -0.1008 -0.0768 -0.0619
17793W        W33410  14.154  17.631  16.340  0.2018 -0.1539 -0.2077
17794W        W33411  12.031   2.419  15.796  0.3942  0.2052  0.2622
17795W        W33412  13.484   3.367   2.456  0.0486  0.0412  0.0003
17796W        W33413  12.672  17.249   2.782  0.0548  0.1185  0.1807
17797W        W33414   1.541   7.187  11.591 -0.2996  0.3433  0.0181
17798W        W33415   4.186   7.622  15.680 -0.2775  0.1608  0.4280
17799W        W33416  17.752   8.398  12.647  0.0518 -0.0003 -0.0349
17800W        W33417   5.345  14.261  14.897  0.2272 -0.0781 -0.2067
17801W        W33418   7.896   5.513  14.096  0.2942 -0.3981 -0.0340
17802W        W33419   2.555   5.503  14.957 -0.1330 -0.0951 -0.2336
17803W        W33420  16.029   6.209   2.247  0.2073  0.0869 -0.0869
17804W        W33421  12.104  16.959  16.263 -0.0783 -0.3320  0.0835
17805W        W33422  12.471   4.628   3.895 -0.0358 -0.5862 -0.2190
17806W        W33423   0.288  13.759  14.979 -0.1938  0.0580 -0.2396
17807W        W33424  10.602  11.726  15.869 -0.0061  0.1026 -0.1014
17808W        W33425  16.224   1.382   3.102 -0.1246  0.1264 -0.1478
17809W        W33426  11.504   4.798   5.789  0.0171  0.1745  0.1564
17810W        W33427  10.161  15.652  13.603 -0.0588  0.0699  0.0962
17811W        W33428   6.189   5.059  11.819 -0.0174 -0.0975  0.2752
17812W        W33429   3.403   3.707  15.595  0.0012  0.0541  0.1267
17813W        W33430   9.448  16.356  11.083  0.2656 -0.2212 -0.1205
17814W        W33431   7.866  17.020   4.947  0.0842  0.0477  0.0590
17815W        W33432  16.499  14.001   2.626 -0.0794  0.0020  0.1550
17816W        W33433  17.375   2.077   3.851 -0.0292  0.0532  0.0076
17817W        W33434   7.140  10.144   5.536  0.2181 -0.0726  0.3408
17818W        W33435  12.214   5.063  12.374  0.0103 -0.0147  0.2439
17819W        W33436  12.561   3.371   4.517  0.0982  0.0578 -0.2152
17820W        W33437   5.455   3.226  13.683 -0.1150 -0.3398 -0.0148
17821W        W33438   8.556   4.867   0.410  0.1739 -0.4282  0.2926
17822W        W33439   1.180  13.807   2.615 -0.0833 -0.1027  0.0983
17823W        W33440  15.218  16.266  13.891  0.0181  0.0283 -0.0788
17824W        W33441  14.082   1.630   5.654  0.0522 -0.0651 -0.0182
17825W        W33442   4.125   6.373  14.102  0.0410  0.1272  0.1165
17826W        W33443   0.777   0.156   5.647  0.3001 -0.0528  0.2275
17827W        W33444  16.485  16.224   3.335 -0.0897  0.1725  0.1465
17828W        W33445   1.499   0.827  12.388 -0.0413  0.0520 -0.2292
17829W        W33446   6.520   6.879   4.843  0.0729 -0.0682 -0.0460
17830W        W33447   7.822   9.872   0.421 -0.2663  0.0353 -0.1308
17831W        W33448  17.882  15.370   5.312  0.3583  0.1219  0.1832
17832W        W33449  14.911  17.744   6.826 -0.2353  0.2140  0.0960
17833W        W33450  11.378   8.476   2.081  0.3652 -0.1957 -0.1474
17834W        W33451   4.613  10.249  12.564  0.2992 -0.2217 -0.1149
17835W        W33452  11.016   6.120  11.714  0.0891  0.3752 -0.0049
17836W        W33453   0.648   4.781  13.233  0.0349  0.0280 -0.0746
17837W        W33454   3.204   2.311  13.784 -0.3096 -0.1112 -0.1007
17838W        W33455   6.192  17.830  12.852  0.4061 -0.1521 -0.1512
17839W        W33456   2.410  15.595   4.024 -0.0849  0.2154  0.1787
17840W        W33457  16.294   0.477  16.698  0.0218  0.1258 -0.0095
17841W        W33458  10.919  10.933  15.300  0.1012  0.0812 -0.0586
17842W        W33459  17.681  17.273   0.313  0.0117 -0.2872 -0.3377
17843W        W33460   5.417   1.445  14.027 -0.1146 -0.0979  0.3103
17844W        W33461  15.531   5.835   0.011  0.0178 -0.0916 -0.0110
17845W        W33462   6.215  11.762   0.199 -0.0666 -0.1711  0.0290
17846W        W33463   6.290  10.277   5.386  0.2139 -0.1321 -0.1194
17847W        W33464  17.192  14.958  15.041  0.1211  0.0119 -0.1578
17848W        W33465  13.137   1.746   0.968 -0.0731 -0.2118  0.0256
17849W        W33466   3.598   2.064  13.426  0.1631 -0.0027  0.6466
17850W        W33467   0.357   7.760   1.603 -0.2253  0.0622  0.3992
17851W        W33468   0.334  16.307  13.032 -0.2279  0.2762  0.0394
17852W        W33469   2.059  15.921   0.012 -0.1759  0.2191  0.1048
17853W        W33470  11.173  17.435  15.125  0.0734 -0.2823  0.0956
17854W        W33471  10.152   2.393   5.081  0.2805 -0.0275  0.0298
17855W        W33472   1.692   6.685   5.412 -0.1207  0.1849 -0.1711
17856W        W33473  11.928   9.925   5.478 -0.2117  0.1458  0.0527
17857W        W33474  15.126   5.435  15.480  0.3506 -0.0168  0.0689
17858W        W33475  11.371   7.692  16.677  0.0732 -0.2038 -0.1403
17859W        W33476  14.598  14.193  13.341 -0.0485  0.0354 -0.2258
17860W        W33477   1.088   9.359  15.918  0.1967  0.0302 -0.2471
17861W        W33478   9.089   2.631   3.298  0.2956 -0.1299 -0.0974
17862W        W33479   8.657   4.953  14.103 -0.0295  0.0983  0.1330
17863W        W33480  16.772  15.871   6.043  0.0175 -0.2221  0.0731
17864W        W33481   5.130  13.714   1.428 -0.0663  0.1486 -0.4313
17865W        W33482  15.918  14.680  13.713 -0.4378  0.1436 -0.0467
17866W        W33483   6.278  17.250   0.754  0.2396 -0.2261  0.0247
17867W        W33484   5.639   1.482  16.528 -0.1799  0.0991 -0.1250
17868W        W33485   7.938   1.678  13.482 -0.2395  0.1941  0.0016
17869W        W33486   8.227   5.335   5.592 -0.1223 -0.1233  0.2232
17870W        W33487  16.418   3.860  13.206 -0.0317  0.0567  0.0423
17871W        W33488   4.680  13.583  15.477  0.3095  0.0575 -0.2585
17872W        W33489  14.652  14.994  11.942  0.1264 -0.0420 -0.2969
17873W        W33490   5.992   5.312   3.710  0.0112  0.2022 -0.2221
17874W        W33491   6.394   7.074   4.076  0.1208 -0.2907  0.0249
17875W        W33492  13.403  15.195   0.323 -0.0981  0.2664 -0.2451
17876W        W33493   9.511   6.259  13.753 -0.1012 -0.1456  0.0988
17877W        W33494  11.755  12.752   1.192 -0.2418 -0.2891  0.2080
17878W        W33495  12.515   3.679   1.217  0.0228 -0.1101  0.1897
17879W        W33496   6.235   0.815  13.728 -0.1568 -0.1858  0.2194
17880W        W33497   8.478   3.935   5.940 -0.1605 -0.5113 -0.0015
17881W        W33498  10.729   7.638   5.773  0.0730 -0.2019  0.1790
17882W        W33499  10.279   7.429   1.939 -0.1738 -0.0466  0.0354
17883W        W33500   6.095  15.021   3.744 -0.2737 -0.0925 -0.0227
17884W        W33501  15.099   0.457   2.790 -0.2027  0.0980  0.2193
17885W        W33502   1.327   4.453  15.831 -0.1754  0.0507 -0.1329
17886W        W33503  16.121  11.714  11.716  0.2043 -0.0028  0.0360
17887W        W33504   5.014  15.291  12.400 -0.0145  0.0270 -0.0124
17888W        W33505   8.641   7.972   4.218 -0.2484 -0.0342  0.0157
17889W        W33506  14.033  16.082   5.730 -0.2344 -0.1829  0.0210
17890W        W33507  11.746  13.716   1.907  0.0820 -0.0693  0.0249
17891W        W33508  16.510  16.929   2.793 -0.0192 -0.1154  0.1610
17892W        W33509  12.678   3.090  13.446 -0.0471 -0.5814  0.0746
17893W        W33510   3.408  13.723  12.562 -0.0051 -0.2974 -0.1813
17894W        W33511  10.829   7.193   5.495 -0.0198 -0.1525 -0.0009
17895W        W33512  14.420   9.837  14.634  0.0056 -0.0377  0.0103
17896W        W33513  17.013   6.846  16.465 -0.2957  0.1524 -0.1291
17897W        W33514   0.002  10.624   1.190 -0.0946  0.0907 -0.1917
17898W        W33515   9.319   0.815  16.065 -0.1232 -0.2892 -0.1458
17899W        W33516   2.313  10.110   4.531 -0.1770  0.4110  0.0814
17900W        W33517   6.465   1.995   1.435 -0.1125 -0.3774  0.1383
17901W        W33518   7.244   4.433  11.118 -0.1974 -0.1745  0.0592
17902W        W33519  11.309   4.605   4.325 -0.2011  0.2893  0.1132
17903W        W33520   5.408  11.125   0.560 -0.0696 -0.0046  0.1134
17904W        W33521   4.653  12.434  15.467  0.2120  0.0742  0.0130
17905W        W33522  10.779   5.133  14.642 -0.1512 -0.0396  0.4219
17906W        W33523   2.213  15.054  16.254  0.0037  0.0756 -0.1643
17907W        W33524  15.311   2.691   3.360  0.1740  0.0923 -0.1208
17908W        W33525   0.075  13.508   3.519  0.0319  0.2889 -0.2258
17909W        W33526   9.142   4.792   3.841  0.0530 -0.2770  0.2295
17910W        W33527  12.983   3.759   1.252 -0.1345  0.2310  0.0573
17911W        W33528   2.302  14.096   3.455  0.2207  0.0873  0.0527
17912W        W33529  13.455   4.057   3.053  0.0395  0.0495  0.0029
17913W        W33530  17.250  10.733  13.926 -0.0884 -0.0160  0.2910
17914W        W33531   4.500   9.158   5.135 -0.0537 -0.2151 -0.2181
17915W        W33532   9.070   0.285   4.828 -0.1359 -0.3445  0.2670
17916W        W33533  13.488  16.038  13.549 -0.3027 -0.3209 -0.0613
17917W        W33534  14.869   1.998  15.499 -0.0183 -0.2428 -0.0296
17918W        W33535   3.446  16.287  13.655 -0.0164 -0.0364  0.2613
17919W        W33536   0.607   4.472   2.023  0.0924  0.1651 -0.3852
17920W        W33537   9.996   0.292  16.674  0.1658 -0.2019  0.1626
17921W        W33538  17.574  16.686  12.822 -0.0543  0.1770 -0.0720
17922W        W33539   0.277  12.134   4.907 -0.0401  0.2348  0.0355
17923W        W33540   9.846  12.333  15.664  0.0119 -0.2515 -0.1407
17924W        W33541   0.758  10.527  15.040  0.0729  0.1917 -0.0695
17925W        W33542   0.351  13.855  12.465  0.0244 -0.0757  0.1161
17926W        W33543   0.055  10.394   3.629  0.1585  0.3042  0.2719
17927W        W33544  10.260   8.014  13.175  0.1359  0.0906 -0.2303
17928W        W33545  17.730  11.983  14.746  0.4234  0.1583 -0.0849
17929W        W33546  12.184  12.335  12.858  0.0518 -0.2441  0.1088
17930W        W33547   9.375   0.317  14.314  0.3460  0.0415  0.3289
17931W        W33548  10.073   3.447   3.273 -0.1379 -0.1174  0.1500
17932W        W33549   7.028   3.543  13.643 -0.0202 -0.0463  0.1695
17933W        W33550   6.227   6.626   3.101  0.0854  0.0170 -0.0876
17934W        W33551   0.831  17.383   1.179 -0.1916 -0.0172 -0.1006
17935W        W33552  16.224  11.109  15.623  0.1140 -0.2225  0.1291
17936W        W33553  11.131  17.841  15.534  0.0691 -0.1489  0.0743
17937W        W33554  17.322   0.756  12.702 -0.2875 -0.2376 -0.0795
17938W        W33555  16.594  10.172   0.234 -0.1373  0.0403 -0.1637
17939W        W33556   2.749   4.517   3.577  0.2021 -0.0445 -0.3001
17940W        W33557  12.783  16.743   6.223  0.5669 -0.0663 -0.0431
17941W        W33558  10.926   8.173   0.778 -0.1253 -0.3193 -0.0827
17942W        W33559   0.363   9.989  16.591 -0.3539  0.0199 -0.2046
17943W        W33560   1.701  17.401  13.712 -0.1944 -0.1264  0.2906
17944W        W33561  12.959   0.043  16.157 -0.1314  0.1367  0.0655
17945W        W33562   7.282   7.857  12.508  0.3274  0.1220  0.0667
17946W        W33563  17.564   2.516  15.209 -0.0227  0.0752  0.0284
17947W        W33564   7.686   5.964  11.865  0.0145  0.1422  0.1098
17948W        W33565  16.121  10.376  15.541 -0.0109 -0.2131  0.2424
17949W        W33566   1.176  17.002  16.070  0.2490 -0.0529 -0.0118
17950W        W33567  15.518   7.565   5.787  0.2385 -0.1069 -0.1726
17951W        W33568   2.041   1.701  13.296 -0.0681 -0.1369 -0.2641
17952W        W33569  16.118   9.365  14.171  0.0383 -0.0502 -0.2314
17953W        W33570   5.838   6.557  13.259  0.1730 -0.0600 -0.1332
17954W        W33571  12.033   3.805   4.597  0.1171 -0.0008  0.1864
17955W        W33572   3.062   2.399   1.202  0.0384 -0.0090  0.0551
17956W        W33573  14.217   0.642  14.983  0.1740 -0.0473 -0.0038
17957W        W33574   0.944   2.234   1.594 -0.3288  0.1033 -0.0722
17958W        W33575   8.377   0.729   3.924  0.1110 -0.0358 -0.1495
17959W        W33576   1.896  17.017   5.510 -0.1679 -0.1735  0.1327
17960W        W33577   4.088   7.579   1.264 -0.1178  0.2727  0.0447
17961W        W33578  12.753   5.328   5.247  0.1202  0.0186 -0.2148
17962W        W33579  12.768   5.834  13.957 -0.1613  0.1734 -0.1194
17963W        W33580   7.571   1.277   3.954  0.4504  0.0241  0.0797
17964W        W33581  13.771  13.042   1.174 -0.0022  0.1133  0.2620
17965W        W33582   2.098   7.493   2.907  0.1319 -0.1641  0.2037
17966W        W33583   3.453   9.412   0.391  0.1285  0.1068  0.2618
17967W        W33584   3.195  15.402   4.073 -0.2076 -0.1281  0.1073
17968W        W33585  13.168  12.603   5.476  0.1030 -0.2245 -0.2727
17969W        W33586   1.522  13.019  14.383  0.0003 -0.2718  0.0505
17970W        W33587   0.284   9.770   5.325  0.0263  0.1184  0.3129
17971W        W33588   6.818  13.086   4.787  0.2044  0.2717  0.2258
17972W        W33589  11.791   0.292   2.434  0.0017  0.1766  0.2633
17973W        W33590   5.439  12.441   0.352 -0.0738 -0.1820  0.1366
17974W        W33591   5.124   0.890   1.402  0.0331 -0.2880  0.5431
17975W        W33592  15.967   3.351  16.097  0.2604  0.0176 -0.1989
17976W        W33593  15.299  17.933   2.952  0.2649 -0.0423  0.0181
17977W        W33594   3.368  17.038   3.630 -0.0590 -0.0700  0.2861
17978W        W33595   3.315  15.924   6.123 -0.1041 -0.0233  0.0722
17979W        W33596   8.493   2.088  14.354  0.0625 -0.1194  0.2063
17980W        W33597  13.371   6.975   4.390 -0.1187 -0.0411  0.4345
17981W        W33598   8.003  10.038  16.328  0.2390 -0.0261 -0.0231
17982W        W33599  12.271   0.219   1.758 -0.3880  0.0641  0.2677
17983W        W33600   6.562  17.977   1.215 -0.2396  0.2283 -0.1246
17984W        W33601  15.810   4.260  15.805  0.1818  0.0036  0.0866
17985W        W33602  16.509  12.862   1.298  0.1085 -0.2443  0.0352
17986W        W33603   2.078   6.655   5.818  0.3314 -0.3519 -0.0426
17987W        W33604   8.778  12.687  12.126  0.0775 -0.1416  0.2142
17988W        W33605  11.034  14.793   4.848 -0.1937  0.1810 -0.2485
17989W        W33606  15.335  16.129  11.634 -0.3421 -0.2039 -0.0195
17990W        W33607  10.603   6.989   2.013 -0.0590  0.2134 -0.0929
17991W        W33608   7.318   8.882   0.620  0.0591  0.2804  0.0348
17992W        W33609   6.669   6.545  11.206 -0.2575  0.0741  0.0297
17993W        W33610  15.260  14.539   5.321  0.0204 -0.1926 -0.0999
17994W        W33611   1.474   1.800  16.246  0.1886 -0.0642 -0.0079
17995W        W33612   7.335   9.445  12.526  0.1488 -0.0846  0.0323
17996W        W33613  10.693  16.499   3.802 -0.1290  0.2858  0.2605
17997W        W33614  12.296  14.466   2.243  0.1875 -0.0449 -0.2862
17998W        W33615   9.332   2.636   5.339  0.2177 -0.0334 -0.1132
17999W        W33616   2.881  12.405   4.493 -0.0975 -0.1837 -0.0421
18000W        W33617   5.884   4.737   1.315  0.1566  0.0855  0.0486
18001W        W33618  17.470  11.250  13.781  0.1958 -0.1914 -0.0248
18002W        W33619  14.866  14.166  12.224  0.0489  0.0953 -0.0289
18003W        W33620  15.401  12.960   3.601  0.1670  0.4191  0.0871
18004W        W33621   6.289   9.710   4.976 -0.1261 -0.0994  0.1226
18005W        W33622  12.766   9.915  14.604 -0.0606 -0.1463  0.1361
18006W        W33623  14.487   7.574  14.401  0.1033 -0.2825  0.0236
18007W        W33624  13.462   1.178   3.796 -0.0258 -0.1475  0.1138
18008W        W33625   1.558   1.718  13.059  0.0015 -0.0127  0.0922
18009W        W33626  10.360   7.481  15.959  0.0837  0.0585 -0.2479
18010W        W33627   9.904   0.497   2.792 -0.1290  0.1421 -0.2242
18011W        W33628  11.841  12.813   5.395  0.3431  0.2818  0.2217
18012W        W33629   7.693   3.001  15.691 -0.0283  0.0092 -0.0571
18013W        W33630   5.761  11.848   3.247 -0.5125  0.1107 -0.0601
18014W        W33631  14.676  12.698   1.335  0.1781 -0.0581 -0.0009
18015W        W33632   3.617  13.397  13.361 -0.1239  0.1166 -0.0285
18016W        W33633   1.935   7.656  14.896 -0.2774  0.1189 -0.0979
18017W        W33634  11.758   2.580   5.069 -0.4688 -0.0018 -0.2071
18018W        W33635  17.526   4.700   1.305 -0.0920  0.2516  0.3661
18019W        W33636   2.520  17.156   2.815  0.2602 -0.2044 -0.0444
18020W        W33637   3.517  11.500   4.306 -0.0939 -0.0952 -0.0001
18021W        W33638   6.063  16.247  11.371 -0.1469  0.2255  0.0441
18022W        W33639   7.796   8.942   3.997  0.0371 -0.3727  0.3485
18023W        W33640  14.592   1.852  14.521  0.0123 -0.0760  0.2060
18024W        W33641  11.437   5.118   6.196 -0.0032  0.2681  0.1621
18025W        W33642  15.148   1.293   2.490  0.0318 -0.1454 -0.2874
18026W        W33643   4.746   5.094   3.347 -0.2385  0.0473  0.1673
18027W        W33644   2.786  12.063   5.659  0.3979 -0.1911 -0.1594
18028W        W33645   8.926  15.369   3.636  0.0703 -0.1138  0.1962
18029W        W33646   3.782  11.858   6.447 -0.2743 -0.0832 -0.0807
18030W        W33647   7.435   6.130   5.581  0.0697 -0.0004  0.0060
18031W        W33648   8.272  11.582  13.238  0.0987  0.2379 -0.2807
18032W        W33649   0.512   0.151  12.642  0.1690  0.0984 -0.0156
18033W        W33650   7.735   7.027  14.545 -0.0361 -0.4406  0.0358
18034W        W33651  12.144   9.731   3.709  0.1326 -0.1934 -0.0079
18035W        W33652   4.608   2.524  15.911  0.1111  0.1660  0.0259
18036W        W33653   2.364   1.515  14.462 -0.0016 -0.1088 -0.1574
18037W        W33654   9.422  14.293  12.240 -0.0748 -0.0736 -0.1017
18038W        W33655  13.020   4.818  16.575  0.1172 -0.3234 -0.2654
18039W        W33656  14.425   2.043   5.922 -0.0755  0.0399  0.0794
18040W        W33657  10.183  10.682   3.740 -0.2304  0.0757  0.0235
18041W        W33658   5.988   3.572  16.214 -0.2595  0.1439 -0.1160
18042W        W33659  14.005  10.373  15.742  0.2565  0.0660 -0.2361
18043W        W33660  16.455   9.667   3.359 -0.7046  0.1653  0.2853
18044W        W33661   4.281   0.121   0.855 -0.0157  0.1249  0.2362
18045W        W33662  14.449   6.149   3.730  0.1587  0.1768 -0.0612
18046W        W33663  13.154  16.501   0.634  0.1802 -0.1912  0.1703
18047W        W33664   7.966   2.519   0.708 -0.0561  0.0943  0.1216
18048W        W33665  13.269  15.951   4.135  0.0131 -0.2862 -0.0680
18049W        W33666  10.632   6.821  13.175 -0.1351 -0.2249 -0.2511
18050W        W33667  10.328   9.390   1.807 -0.0421 -0.0463  0.1903
18051W        W33668   7.197   8.700  11.479  0.2716  0.1501 -0.2604
18052W        W33669   6.640   4.147  11.489  0.2719  0.0929  0.2701
18053W        W33670  16.175   2.989   3.432 -0.1705  0.0520  0.0038
18054W        W33671   1.948  16.731   5.901  0.1489 -0.3552  0.0179
18055W        W33672   8.449   9.245   3.222 -0.2314 -0.2127 -0.2357
18056W        W33673  16.696  15.787  14.776  0.1253  0.0016  0.2454
18057W        W33674  13.189   7.009  13.972  0.0962  0.4313 -0.1528
18058W        W33675   5.992   6.066   2.146 -0.3808 -0.0278 -0.1164
18059W        W33676  14.714  13.246   5.294 -0.0522  0.0704  0.1874
18060W        W33677   7.195  12.383  13.175 -0.0078  0.0479 -0.0286
18061W        W33678   5.945  16.521   2.027 -0.4209 -0.0359  0.0241
18062W        W33679   5.176   2.433   0.610 -0.0808  0.2306 -0.0845
18063W        W33680   7.761   2.144   5.482  0.1191 -0.1928 -0.1464
18064W        W33681   2.560  16.099   3.945  0.1301 -0.0957  0.1155
18065W        W33682   3.754   3.592  16.430 -0.3656  0.0917  0.1715
18066W        W33683  16.538   5.972   1.232  0.0984  0.1311  0.3721
18067W        W33684  13.506   4.175   4.073  0.0693  0.2520  0.0632
18068W        W33685   7.463   3.388  12.334  0.0172  0.0389 -0.2123
18069W        W33686  17.196  16.679  13.367  0.1853 -0.1441  0.3529
18070W        W33687   4.023   1.839  15.020 -0.0004 -0.1021 -0.0504
18071W        W33688   4.494  14.258   2.530 -0.1425 -0.1267  0.0175
18072W        W33689   2.067   6.611   4.736 -0.2971 -0.1633  0.0134
18073W        W33690   9.762   3.738   1.031  0.0291 -0.0656 -0.1728
18074W        W33691   8.534  10.011  15.939 -0.1047  0.1481 -0.2121
18075W        W33692  12.982   3.812  16.736  0.1429 -0.1469 -0.1651
18076W        W33693  17.594   1.179  14.989 -0.0768 -0.1005 -0.2682
18077W        W33694   2.558   3.161   4.259 -0.0324  0.0346 -0.4742
18078W        W33695   1.366  10.691   5.326  0.3404  0.3044  0.1713
18079W        W33696  17.038  16.260   2.761 -0.3478 -0.0940  0.0926
18080W        W33697   5.378  13.323  14.670 -0.0116 -0.0188 -0.1452
18081W        W33698   6.779   9.081   2.385  0.1149  0.2442  0.4373
18082W        W33699  10.216  11.714  15.160  0.0266 -0.2062  0.2239
18083W        W33700   7.684   0.039   4.951 -0.1065 -0.1687 -0.2457
18084W        W33701   0.936   4.589  16.529  0.0248  0.1614 -0.2250
18085W        W33702  12.233  17.291   6.134 -0.0770  0.0343  0.0524
18086W        W33703   5.728   0.459   0.300 -0.1471 -0.0222 -0.2593
18087W        W33704   3.129   2.938   4.283  0.0142  0.1111 -0.0512
18088W        W33705   4.980   8.003  12.093  0.0968 -0.0941  0.2919
18089W        W33706   8.945   4.090  14.729  0.3954 -0.0891 -0.0881
18090W        W33707  16.105  13.371  15.387  0.3441  0.1891  0.0116
18091W        W33708   8.729   5.374  15.467  0.1461  0.1284 -0.0755
18092W        W33709   0.552  14.987   0.917  0.0849 -0.2732 -0.0330
18093W        W33710  10.401  10.005   0.560  0.0456  0.1130  0.1025
18094W        W33711   6.278   5.001  16.734 -0.0265 -0.0423  0.1200
18095W        W33712  17.869   1.510  16.648 -0.0213  0.3097 -0.0532
18096W        W33713  12.530   3.736  15.305 -0.2277  0.0066 -0.1150
18097W        W33714   0.140   4.091   1.795 -0.2035  0.2247 -0.1776
18098W        W33715  10.681   4.914  12.498  0.3008  0.1627 -0.2850
18099W        W33716   9.972  10.875   0.975 -0.5095  0.1175  0.1714
18100W        W33717   2.530  12.014  12.479 -0.1531 -0.1536 -0.3568
18101W        W33718   5.252   3.019  16.242  0.2049  0.0947  0.1113
18102W        W33719  13.742   1.111  13.771  0.2820 -0.0749 -0.0003
18103W        W33720   7.361   5.604   0.316  0.0546 -0.0888  0.1966
18104W        W33721  11.122   9.420  13.700  0.2438 -0.1182 -0.1442
18105W        W33722   2.984  17.422   2.860  0.0125 -0.0917  0.1169
18106W        W33723  13.121  12.251   0.129  0.1766 -0.0515 -0.0104
18107W        W33724  12.796   9.826  12.669 -0.2214  0.0342  0.1019
18108W        W33725   5.257  11.541   1.186  0.3896 -0.1000 -0.1844
18109W        W33726  13.620   1.596  14.570 -0.2299 -0.1795 -0.0676
18110W        W33727   4.219  10.046  14.037  0.3473  0.1514 -0.0897
18111W        W33728  10.234  17.602  11.855  0.0932  0.0372  0.1159
18112W        W33729  12.714   4.982  12.265  0.1533 -0.0954 -0.0524
18113W        W33730  12.630  12.059   0.506 -0.2295 -0.2227  0.1503
18114W        W33731  10.952   7.916  12.437 -0.2522  0.1716 -0.2214
18115W        W33732   1.967   9.120   3.728  0.0207  0.1163  0.1444
18116W        W33733   7.943   2.972  16.270  0.1447  0.0456  0.0030
18117W        W33734  13.482  12.395  11.344  0.0877  0.3133 -0.1500
18118W        W33735  10.789   0.967  11.601  0.0568 -0.2864 -0.3181
18119W        W33736  17.074  12.050   5.536  0.1432 -0.0683 -0.0580
18120W        W33737  12.405   8.113  13.266 -0.0065  0.0123  0.3170
18121W        W33738  11.023  11.400  16.026 -0.0854 -0.2447 -0.3676
18122W        W33739   7.733   0.620  15.946 -0.5909  0.0543  0.0545
18123W        W33740   5.401  12.898  13.198 -0.2918 -0.1784  0.4804
18124W        W33741  15.420  16.903   4.634  0.0769  0.0653  0.0675
18125W        W33742   8.502   7.134  12.205 -0.1359 -0.0241 -0.1583
18126W        W33743  12.860   1.342   0.223 -0.0176  0.2227  0.1460
18127W        W33744   8.081  15.210   2.599 -0.0375 -0.0987  0.2316
18128W        W33745   4.757  13.740   3.866 -0.1764  0.1438  0.1349
18129W        W33746  13.188   4.228   0.912 -0.0648 -0.2440 -0.0131
18130W        W33747   7.422   3.189   3.972 -0.0937  0.2210 -0.0346
18131W        W33748  15.459   3.312  11.939  0.3334 -0.3735  0.0400
18132W        W33749  12.261   6.555  14.981  0.0182  0.3531 -0.2263
18133W        W33750  13.598  13.024  14.597  0.0879  0.2463 -0.2835
18134W        W33751  17.728   7.935   1.067  0.2607 -0.1338 -0.1202
18135W        W33752   9.066  14.228  16.072  0.2561 -0.2966  0.3882
18136W        W33753   3.915  10.736  16.555  0.1578  0.4884 -0.1979
18137W        W33754  12.132   3.564   1.546 -0.2026  0.0697 -0.1080
18138W        W33755   3.592   3.362   3.142 -0.0265 -0.1385 -0.1491
18139W        W33756   4.043   6.772  13.756  0.1527 -0.0643  0.0162
18140W        W33757   4.660  17.698   2.509  0.0563  0.0339  0.3027
18141W        W33758  13.824  14.027   0.413 -0.0016 -0.0805  0.1854
18142W        W33759  14.003  14.691   3.677  0.0015  0.0848  0.3364
18143W        W33760  10.133   7.308  14.739 -0.3061 -0.1818 -0.0140
18144W        W33761   1.192   4.473  12.902  0.0050  0.1972  0.0062
18145W        W33762   0.225  10.673   2.893  0.0127 -0.0531 -0.2439
18146W        W33763  15.372   5.840   0.492  0.2215 -0.1243 -0.2312
18147W        W33764   4.208   0.569   4.283 -0.2548  0.1538  0.0731
18148W        W33765   4.467   8.727  16.692 -0.0318  0.0615 -0.2522
18149W        W33766   7.407   0.407  16.348 -0.3267 -0.1620  0.0476
18150W        W33767   7.320   2.405   1.305 -0.1044  0.1502 -0.3183
18151W        W33768   6.391  10.243   4.775  0.2590 -0.3282  0.3813
18152W        W33769  13.174  11.246   0.052 -0.1893  0.1225  0.1503
18153W        W33770  10.320  13.512  16.000 -0.0910  0.1505 -0.0863
18154W        W33771  17.747   4.931   4.296  0.2781  0.1182  0.3953
18155W        W33772   3.539  12.934   1.326  0.2485 -0.2063 -0.0324
18156W        W33773   4.492  12.437   4.557 -0.1528 -0.3226 -0.0507
18157W        W33774   0.019  15.609  16.776  0.0082  0.0769 -0.0719
18158W        W33775   2.521   8.269  12.463  0.0610  0.5171 -0.2279
18159W        W33776   5.437  15.711   2.310  0.0555  0.1303 -0.1940
18160W        W33777   7.766   9.873   4.915 -0.0780  0.0461  0.0720
18161W        W33778   2.736   4.404   0.662  0.1770  0.1506  0.3403
18162W        W33779  14.231   6.683  14.992  0.0037 -0.0417  0.1160
18163W        W33780  10.184  14.707  15.272 -0.2207 -0.2428  0.1953
18164W        W33781  16.117  10.994   3.597 -0.1593  0.3727  0.3959
18165W        W33782  14.940   7.396  14.377 -0.3515  0.0618  0.2376
18166W        W33783   6.504  15.041   2.832 -0.1650  0.5357 -0.0007
18167W        W33784  15.954  12.479   1.373 -0.1452 -0.1452  0.1292
18168W        W33785   5.568   1.484  15.363  0.0371  0.2697  0.1342
18169W        W33786   3.254  10.104  13.547  0.2748  0.0939  0.0474
18170W        W33787   0.880  17.206  16.531  0.1651 -0.1921 -0.2278
18171W        W33788   9.861   2.520  16.728 -0.0581  0.0704  0.0413
18172W        W33789  10.964   8.848  13.805 -0.1602 -0.0690 -0.0118
18173W        W33790  10.923   8.299  12.011 -0.1415 -0.1757  0.1655
18174W        W33791  10.000  13.839  11.094  0.1328  0.0052  0.0064
18175W        W33792   9.918  15.019  11.705  0.0339  0.0285  0.0119
18176W        W33793   7.647   6.817  13.463  0.3473  0.0338  0.1394
18177W        W33794   4.814  10.374  13.742 -0.2919 -0.0420 -0.0275
18178W        W33795  13.825  17.994   1.830 -0.1048 -0.3293 -0.4028
18179W        W33796   7.699  12.442  13.370 -0.0446 -0.0852 -0.1991
18180W        W33797  14.240   0.580   0.141  0.2672 -0.1381 -0.0787
18181W        W33798  15.704   8.420  12.974 -0.1353 -0.1205 -0.2572
18182W        W33799   3.866  11.684  14.884  0.0201 -0.1460  0.1499
18183W        W33800  16.080  12.181   4.323  0.3144  0.0241  0.1958
18184W        W33801   8.553   9.094   3.777  0.0969  0.1093 -0.2315
18185W        W33802  17.532   6.299  12.300  0.0114  0.0416 -0.0807
18186W        W33803  17.825  16.822  15.152  0.3903  0.0932  0.3109
18187W        W33804  17.770   4.283   4.239  0.2256 -0.0663  0.4090
18188W        W33805   4.266  12.737   2.094  0.2051 -0.2886  0.0489
18189W        W33806  12.535  14.440   6.163  0.2146 -0.1082  0.4691
18190W        W33807   0.995  17.649  11.627 -0.1642 -0.0900 -0.1898
18191W        W33808  14.540   7.206   0.764  0.2991 -0.0148 -0.1111
18192W        W33809   0.825  12.059   3.383  0.0774 -0.4038  0.3391
18193W        W33810   9.805  15.681  15.216 -0.1865 -0.1303 -0.4307
18194W        W33811   1.619   5.792  16.591 -0.0804 -0.4594  0.1944
18195W        W33812  10.118  17.641   3.296 -0.0173  0.0456  0.1469
18196W        W33813   3.399   8.940   3.161 -0.2106 -0.1694  0.1090
18197W        W33814  11.715  16.655  11.820 -0.0786 -0.4076  0.0668
18198W        W33815   5.038   9.634  16.042  0.2315  0.1743  0.0019
18199W        W33816   6.499  12.983  14.752  0.1814  0.0551 -0.1172
18200W        W33817   9.890   1.209   1.920 -0.0430 -0.0920 -0.0642
18201W        W33818   6.864  17.982   4.565  0.3746  0.1228  0.0886
18202W        W33819  13.832   9.412  13.547 -0.0274 -0.0683 -0.0108
18203W        W33820  15.893  14.805  15.606  0.1172  0.1860  0.1089
18204W        W33821  13.194   5.952   3.571  0.2769 -0.0981  0.1568
18205W        W33822   4.220   7.182  11.127 -0.1142  0.0115 -0.2662
18206W        W33823   6.768   2.572   2.935  0.0923  0.2003  0.3865
18207W        W33824  10.640  10.732   2.549  0.2702 -0.0888  0.0672
18208W        W33825  14.428   2.108  12.890 -0.3189 -0.0860 -0.1433
18209W        W33826  16.282   3.247   2.308 -0.1511  0.1790 -0.0797
18210W        W33827   5.602   0.083  13.619  0.1454 -0.2719 -0.1042
18211W        W33828   9.155   8.749   5.033 -0.2764  0.3082  0.2615
18212W        W33829  15.802  13.104   0.673 -0.0383 -0.1815  0.3528
18213W        W33830   6.692   5.533   0.561 -0.1170 -0.0868  0.0382
18214W        W33831   8.368   6.278  15.104  0.1652  0.3325 -0.2012
18215W        W33832   6.883  12.060  14.777 -0.1938 -0.0732 -0.2249
18216W        W33833   9.934  17.283   3.786 -0.0679 -0.0444  0.1416
18217W        W33834   7.220  11.664  12.201 -0.0237 -0.0560 -0.2239
18218W        W33835   4.727   1.609   4.753 -0.0475  0.0161 -0.0344
18219W        W33836  14.675   0.291   5.493  0.1360  0.2517 -0.0353
18220W        W33837   3.118   2.979  12.360 -0.1749  0.2067  0.0752
18221W        W33838   9.282   1.641  13.312  0.2856 -0.1830  0.4619
18222W        W33839   9.057   9.659   2.621 -0.0611  0.1310 -0.2043
18223W        W33840   6.072   2.371   3.976 -0.1373  0.2162 -0.2001
18224W        W33841   6.335  12.549  16.490 -0.1152  0.2727  0.0934
18225W        W33842   2.075  15.863   0.515  0.1160  0.1248 -0.1796
18226W        W33843  14.549   7.585   4.362  0.3549 -0.0648  0.0125
18227W        W33844   2.737  16.538  14.250 -0.1795 -0.1369  0.2870
18228W        W33845   8.397  17.425  11.949 -0.0331 -0.1652  0.1158
18229W        W33846  10.929   2.578  16.474 -0.1160 -0.0028  0.0881
18230W        W33847   2.782  12.692   5.008  0.1059  0.0613  0.0193
18231W        W33848   1.517   1.456   5.062 -0.2472  0.0182 -0.2025
18232W        W33849   7.658  11.170  15.088  0.1292 -0.0928 -0.0236
18233W        W33850   9.875   0.437  15.483  0.1384  0.1042  0.0932
18234W        W33851  15.580   8.370  16.442 -0.1162  0.0777  0.1793
18235W        W33852  13.848   4.387   5.231 -0.1371  0.1224  0.0722
18236W        W33853   3.247  11.846   5.785  0.2479 -0.0193  0.0516
18237W        W33854  11.291  17.314   3.048  0.2156 -0.2753  0.1837
18238W        W33855   5.764  13.831   3.040 -0.0849  0.0216  0.0594
18239W        W33856   9.287  10.229   1.127  0.0255  0.2360  0.0796
18240W        W33857  15.840   6.977  14.312  0.0429 -0.1523 -0.1497
18241W        W33858  13.559  17.479   0.651 -0.2350 -0.1207  0.3487
18242W        W33859   7.945   4.703   4.767 -0.1617  0.1803 -0.1476
18243W        W33860  15.741  18.022  13.031 -0.0957 -0.0955 -0.0232
18244W        W33861  12.328   3.540   5.804  0.1625  0.0659  0.1096
18245W        W33862   1.367   8.798   0.241  0.1479 -0.1457 -0.1822
18246W        W33863  12.030   4.450   2.081  0.0787  0.2351  0.1436
18247W        W33864  11.639  11.847  11.344  0.1551  0.2157 -0.0140
18248W        W33865   7.609  11.402  14.221  0.1437  0.0151  0.1346
18249W        W33866   9.064  13.880  11.078  0.3869 -0.0523 -0.3013
18250W        W33867  15.439   4.994   6.393  0.3479  0.3531  0.1028
18251W        W33868  10.763   3.366   4.595 -0.2688  0.1436 -0.1368
18252W        W33869   9.712   8.247  13.989  0.2057 -0.3514  0.0747
18253W        W33870   0.203   1.891   5.098 -0.1245  0.0319  0.0816
18254W        W33871   9.829   5.853  11.979 -0.2237 -0.0650  0.1930
18255W        W33872   4.732  10.441  12.057  0.3011 -0.0098 -0.0515
18256W        W33873  16.042   0.949  12.165 -0.1063  0.2044 -0.0053
18257W        W33874   6.393   4.147  14.203  0.2421 -0.0411  0.0344
18258W        W33875   0.846  14.329   2.702  0.0526  0.0609  0.0194
18259W        W33876   7.775   6.021   0.392  0.0314  0.1755  0.0467
18260W        W33877   7.472   8.833   4.428 -0.0083 -0.2901 -0.2430
18261W        W33878   4.987  15.579   3.739 -0.0899  0.1471  0.0659
18262W        W33879   2.598  11.363   5.217 -0.0795 -0.1459 -0.0493
18263W        W33880  11.299   6.101  13.741  0.0794  0.3472  0.1984
18264W        W33881  14.286  13.192  13.419  0.0654 -0.0991  0.0267
18265W        W33882  10.107   5.058  11.821 -0.1951 -0.1522 -0.1221
18266W        W33883  10.859  14.885   2.253  0.1914  0.1975  0.0223
18267W        W33884  14.193  14.877   1.403  0.0287  0.0061  0.0763
18268W        W33885  12.122  12.850   4.006 -0.1399 -0.0253  0.1303
18269W        W33886   5.129  17.613  10.728  0.0085 -0.4324  0.0416
18270W        W33887  11.920  11.963  13.692  0.2511  0.2194  0.3311
18271W        W33888  10.211  11.822  14.227  0.0895 -0.1239  0.1110
18272W        W33889   2.299  14.353   1.693 -0.2648 -0.0649  0.1333
18273W        W33890   8.288   9.757   0.604  0.0841 -0.1322  0.2762
18274W        W33891  12.536   2.154   3.803 -0.1268  0.1894  0.2863
18275W        W33892  17.667   8.746  15.099  0.2823 -0.1087 -0.1443
18276W        W33893   7.398  15.192   4.671 -0.0591 -0.0421  0.1277
18277W        W33894  17.438   2.997   0.807 -0.0300 -0.1587 -0.1300
18278W        W33895   0.638   4.358   0.994 -0.1146 -0.2399 -0.1623
18279W        W33896  16.038   7.678  12.693 -0.1559 -0.1195 -0.0384
18280W        W33897  11.213  12.812  14.439  0.0688  0.1582  0.1786
18281W        W33898   2.976   6.116   5.854  0.4807  0.0560  0.1274
18282W        W33899  13.305  10.440  15.181  0.3361  0.2498 -0.1303
18283W        W33900  13.495   1.503  12.571  0.0257  0.2233  0.2521
18284W        W33901   1.034   2.898   2.785  0.2723  0.3878  0.1095
18285W        W33902   9.369   2.951  12.228 -0.1118 -0.0041  0.2683
18286W        W33903  10.824   0.761   4.618 -0.0674  0.2801 -0.1512
18287W        W33904  16.290  13.357   2.861  0.3336  0.1730 -0.0548
18288W        W33905  11.035  13.474  12.703  0.0325  0.5035  0.0470
18289W        W33906   5.029   7.929   1.659 -0.0702 -0.1940  0.1458
18290W        W33907  14.860   7.217  15.407  0.1748 -0.0368 -0.3557
18291W        W33908  16.430  16.850   1.244  0.0330  0.2955  0.0567
18292W        W33909   9.787   7.775   4.482  0.1046  0.1771 -0.2178
18293W        W33910   3.905  15.653   4.255  0.2908  0.0561  0.0187
18294W        W33911  11.641  10.645   2.315 -0.1865 -0.0241  0.1049
18295W        W33912  12.526  12.860  11.785  0.0798  0.1181  0.0575
18296W        W33913  14.474  12.176  14.549 -0.0750 -0.0304  0.2357
18297W        W33914  12.439  14.013  14.745  0.1656 -0.0089 -0.1340
18298W        W33915   8.445   8.486   4.463 -0.1100  0.0074 -0.0885
18299W        W33916  16.384  15.395   4.536 -0.0618  0.0176 -0.2167
18300W        W33917   5.723   2.649  11.437 -0.3029  0.1928  0.1410
18301W        W33918   7.866  14.960   3.297 -0.2144  0.1350 -0.0889
18302W        W33919   8.335  13.812  13.022  0.0742  0.0697 -0.0467
18303W        W33920   6.774   1.995  14.425  0.2784 -0.1119  0.0314
18304W        W33921  13.867  10.243   3.151  0.1626 -0.0167 -0.1920
18305W        W33922   2.680   9.214   5.160 -0.4484  0.1792 -0.0683
18306W        W33923   0.221   0.623  16.116 -0.1807  0.0054  0.0754
18307W        W33924   0.686   2.114  11.941 -0.3587  0.2184 -0.2593
18308W        W33925   1.055  13.638  12.767 -0.0256  0.1802 -0.1466
18309W        W33926   3.547   3.407  11.960 -0.2987  0.0076  0.0457
18310W        W33927  14.393   4.003   2.816 -0.0352 -0.0912 -0.0539
18311W        W33928   6.234   7.805  14.456  0.1896  0.1321  0.3352
18312W        W33929  16.221  11.085  14.347  0.2179 -0.0658 -0.3163
18313W        W33930   6.709  16.197   2.638  0.1320  0.1606 -0.2539
18314W        W33931  13.063   4.156   2.014  0.2209  0.4632  0.2205
18315W        W33932  13.438   6.750  16.775 -0.0415 -0.4719 -0.1459
18316W        W33933   1.777   8.476  14.361  0.0702 -0.2254  0.4315
18317W        W33934   7.000   0.786  11.612 -0.1067 -0.0326 -0.1281
18318W        W33935   3.601   4.201  12.089 -0.3751 -0.1471  0.2039
18319W        W33936   2.646  17.754   0.688 -0.2059 -0.2638  0.0676
18320W        W33937   2.882   4.368  14.458  0.0363  0.2569 -0.1653
18321W        W33938   6.232   3.087   1.356 -0.1741  0.2978 -0.0835
18322W        W33939  11.409   5.426   4.702  0.3227 -0.2401 -0.2165
18323W        W33940   7.352   5.032   3.395  0.0945  0.1443  0.1680
18324W        W33941   8.403  14.858  13.436  0.3093 -0.0850  0.1275
18325W        W33942   8.703   8.087  14.388  0.2584 -0.2251  0.1127
18326W        W33943  10.419  16.185  13.318 -0.0364  0.0203  0.1314
18327W        W33944  12.890   4.607  12.510 -0.1115 -0.2579 -0.3185
18328W        W33945   9.008   6.281  13.703 -0.0612  0.0951  0.1550
18329W        W33946   7.359  12.327   0.901  0.1633  0.2386 -0.2831
18330W        W33947   4.286  16.082  12.679 -0.2694  0.0054  0.0254
18331W        W33948   1.827   1.040   5.063 -0.1665 -0.0905 -0.1649
18332W        W33949   8.912   3.544  13.353  0.1541 -0.1755 -0.0685
18333W        W33950  10.355  15.390   0.572  0.1972 -0.3343 -0.0960
18334W        W33951  17.150   8.927  14.104  0.2341 -0.0052  0.1989
18335W        W33952   2.079   1.739   5.049 -0.0728 -0.2125 -0.1678
18336W        W33953   2.098   3.870  10.729 -0.0320  0.0620  0.0463
18337W        W33954   9.145  10.702   4.348  0.1506 -0.0362 -0.0102
18338W        W33955   9.172   3.053   5.742 -0.0876  0.0695 -0.0236
18339W        W33956  10.437  13.835  13.430  0.1019 -0.0954 -0.0637
18340W        W33957  14.885  13.005   3.749 -0.1305 -0.1217 -0.1431
18341W        W33958  16.695  15.115  15.242  0.0836 -0.2419 -0.0632
18342W        W33959   6.236   9.149   2.374 -0.4699  0.0681  0.2512
18343W        W33960  11.324   5.031   2.188 -0.1403 -0.3897 -0.0102
18344W        W33961  15.605  12.688  13.785  0.2513  0.0783  0.1046
18345W        W33962   8.272   1.437   1.651  0.0977  0.5522 -0.1241
18346W        W33963  16.836   6.979   2.786 -0.2440 -0.3487 -0.2139
18347W        W33964  14.744   6.142  13.827 -0.0486  0.2332  0.1734
18348W        W33965  13.695  12.436   2.860 -0.2773 -0.3256 -0.1322
18349W        W33966  13.023   7.383   1.577  0.3125  0.0837  0.0314
18350W        W33967  10.519   5.319  13.142  0.3708 -0.2393 -0.0595
18351W        W33968  13.571   5.091   5.293  0.3840  0.1868 -0.5247
18352W        W33969  10.577   5.808  16.160 -0.0853 -0.0648  0.4379
18353W        W33970  16.684  13.104   2.525  0.1250  0.0846 -0.1490
18354W        W33971  16.202   9.369  13.644  0.1013  0.0596 -0.0568
18355W        W33972   2.266   1.380  10.460 -0.0983 -0.0945 -0.1539
18356W        W33973  14.355  11.886  13.608  0.2218 -0.0357  0.0020
18357W        W33974  10.522   9.931   4.325 -0.2466 -0.0862 -0.0773
18358W        W33975   8.673   1.097   1.725  0.0553 -0.2661 -0.3383
18359W        W33976   3.768   3.531   2.530 -0.1222 -0.0545 -0.0666
18360W        W33977  11.093   0.690   1.613  0.0034  0.1112 -0.1719
18361W        W33978   2.771   9.153  13.633  0.1594 -0.0502  0.1084
18362W        W33979  13.938  10.901  11.671  0.1838  0.7519 -0.0439
18363W        W33980  16.394  16.912   3.959 -0.0631 -0.1489  0.3621
18364W        W33981   8.777   4.573  11.791  0.1443 -0.1880 -0.1373
18365W        W33982  15.085   8.198   3.690 -0.1924  0.0108 -0.0960
18366W        W33983   8.502   0.957   4.371 -0.1327 -0.0537 -0.1410
18367W        W33984  10.249  12.949   0.114  0.3542 -0.1816 -0.0563
18368W        W33985   2.491   2.702   4.516  0.1394  0.2735 -0.0069
18369W        W33986   3.168  12.212  13.148 -0.3409  0.0744 -0.0565
18370W        W33987   0.485  13.094   0.515 -0.1929 -0.1347 -0.1284
18371W        W33988  10.911  12.854  13.462 -0.1695 -0.0644  0.2731
18372W        W33989  17.975  17.440  13.170  0.0405  0.0722  0.2513
18373W        W33990  13.193  10.324   0.491 -0.3221 -0.2691 -0.0741
18374W        W33991   6.126  14.194  15.983  0.4304  0.0032 -0.1553
18375W        W33992  14.930  17.769   0.601 -0.3976  0.1956  0.0382
18376W        W33993  14.908   7.737   5.813 -0.0582 -0.0224 -0.1694
18377W        W33994  15.370   2.366   3.807  0.1972 -0.0531  0.0492
18378W        W33995   0.725   9.858   1.441 -0.0790  0.0019  0.2264
18379W        W33996   9.936  16.932   4.150 -0.1214 -0.0729 -0.2570
18380W        W33997   6.680   6.101  13.140  0.3544  0.1538 -0.2632
18381W        W33998   4.457  13.826  14.981  0.2006 -0.2327  0.0100
18382W        W33999  13.158   0.510  11.982 -0.1802 -0.0264 -0.1390
18383W        W34000   7.643   9.852  15.990 -0.0335  0.0888 -0.0663
18384W        W34001   0.039   5.463  14.251  0.1586  0.0178 -0.2336
18385W        W34002   0.274  16.630   5.958 -0.1818 -0.1131 -0.1470
18386W        W34003  15.989   5.659  15.232  0.2053 -0.2748 -0.0802
18387W        W34004  15.513   3.667  14.230  0.1361  0.0880  0.1677
18388W        W34005   5.040   7.191  16.667  0.0252  0.3216  0.0601
18389W        W34006   6.524  13.661  12.008  0.2121  0.1547  0.0447
18390W        W34007   2.396  17.249   3.742 -0.0730 -0.2167 -0.1843
18391W        W34008   6.948  14.996   1.605  0.0199 -0.0819  0.1053
18392W        W34009   9.312  14.979  13.117 -0.1222  0.0291  0.2105
18393W        W34010  15.789   7.353  12.312  0.1863  0.2605 -0.0005
18394W        W34011   3.664   0.675   2.004 -0.3707  0.2061  0.2913
18395W        W34012  17.031  11.539   0.931 -0.2066  0.0607  0.1228
18396W        W34013   3.358  15.024  14.045 -0.2532  0.0106  0.5923
18397W        W34014  15.928   0.075   5.815 -0.1555  0.2517 -0.2134
18398W        W34015  15.358   6.111   0.893  0.1081 -0.3868 -0.2609
18399W        W34016   6.861   9.678   5.254 -0.1450 -0.0244  0.0046
18400W        W34017   4.365  14.408  14.309  0.1472 -0.0416  0.1663
18401W        W34018   3.161  13.240  12.661 -0.1612  0.0505  0.1037
18402W        W34019  12.951  17.870   1.362 -0.0507  0.1694 -0.0772
18403W        W34020   0.146   4.830  13.128  0.3959 -0.3156 -0.3710
18404W        W34021   6.452  13.042  16.457  0.2593 -0.1727  0.0414
18405W        W34022  10.843   5.368   5.250 -0.1560 -0.0097  0.1242
18406W        W34023  17.822   1.045  13.870 -0.1475 -0.2632  0.2458
18407W        W34024  17.572  12.755  11.721 -0.2222 -0.0492  0.0498
18408W        W34025  17.338   8.877   1.132 -0.4579  0.2497 -0.0051
18409W        W34026  13.288   8.707  13.210 -0.1663 -0.0292  0.3669
18410W        W34027  14.450  12.692   0.112  0.0004 -0.2584  0.0500
18411W        W34028   1.258   5.978  12.198 -0.0311 -0.3767 -0.0622
18412W        W34029  11.149  11.811  15.753 -0.0381  0.1859  0.0522
18413W        W34030  12.014  17.134  12.514 -0.0441 -0.0949  0.3126
18414W        W34031  12.866   4.134  12.311  0.2421 -0.0449  0.1472
18415W        W34032  15.646  14.460  15.025 -0.3436  0.0538 -0.0007
18416W        W34033   8.589   0.225   4.750 -0.0125  0.2348  0.3372
18417W        W34034  11.091   3.393   0.226 -0.2289  0.0856  0.1526
18418W        W34035   2.788   4.533   4.160 -0.1590  0.0734 -0.0045
18419W        W34036  17.142   8.349   5.859  0.3088 -0.0068  0.0301
18420W        W34037  11.809   7.308  15.801  0.0198 -0.0335  0.2966
18421W        W34038   4.088  12.129  11.160 -0.0579  0.1658  0.0626
18422W        W34039  11.615  15.385   3.292 -0.1387  0.2742 -0.0655
18423W        W34040  12.234  15.200   3.654  0.1617 -0.2657 -0.0497
18424W        W34041   4.076  12.513  13.219  0.0219  0.1057  0.1628
18425W        W34042  12.567   2.043   5.149  0.1683 -0.1772  0.3056
18426W        W34043   7.076   0.121   4.072  0.1190  0.2622  0.1720
18427W        W34044  11.676  12.807  12.954  0.1330 -0.0016  0.0517
18428W        W34045   9.802   9.205  13.546 -0.2592 -0.1093  0.0303
18429W        W34046  12.433   2.523   2.525 -0.0149  0.0900  0.1233
18430W        W34047  17.422  15.832  16.008  0.1292 -0.2960 -0.0697
18431W        W34048  17.636   2.591   5.960  0.1699 -0.2885 -0.0595
18432W        W34049  11.855   2.272   1.152  0.1463 -0.2674 -0.2215
18433W        W34050   1.926  13.806  13.601 -0.1516 -0.1988  0.0240
18434W        W34051   7.675   4.188   2.888  0.2844  0.1579  0.0307
18435W        W34052  10.708   5.208   1.714  0.1784  0.0502  0.0216
18436W        W34053   2.378  16.271   0.098  0.0338 -0.0541  0.0394
18437W        W34054   4.381  10.407   2.060 -0.1087 -0.0483  0.3104
18438W        W34055   8.444   9.482  16.591 -0.1378 -0.0573  0.0657
18439W        W34056   6.166   4.261   3.040  0.3171  0.2366  0.0885
18440W        W34057  12.864  17.163  15.838  0.1495  0.1819 -0.0112
18441W        W34058  11.496   2.254   2.490  0.0519 -0.0858  0.1010
18442W        W34059   5.321   8.601   1.593  0.2026 -0.0774  0.2779
18443W        W34060  15.386  11.576   4.031 -0.2407  0.1034 -0.0154
18444W        W34061  11.700   5.288   5.660 -0.1674 -0.1999  0.0963
18445W        W34062  10.611   6.677   2.486  0.2014  0.2299 -0.2450
18446W        W34063   6.504   4.713   2.898  0.0293 -0.1761  0.0232
18447W        W34064   2.245  16.760   3.756 -0.2216 -0.3424 -0.1380
18448W        W34065   8.835  17.967   5.071 -0.1105  0.0068 -0.1263
18449W        W34066  10.575   8.119  14.003 -0.0888 -0.0974 -0.0573
18450W        W34067   1.126   6.677   2.154 -0.1037 -0.0633  0.3974
18451W        W34068  12.854  11.402   1.279 -0.0331 -0.0358  0.4120
18452W        W34069   0.663   5.400   2.512  0.1165 -0.0176 -0.0636
18453W        W34070  17.633   5.393  12.038 -0.0289  0.0959 -0.0381
18454W        W34071  13.244   4.073  12.680  0.1730 -0.1896 -0.2228
18455W        W34072  14.865  14.052   3.521 -0.1023 -0.1779 -0.1405
18456W        W34073  10.891   9.452  14.151  0.1837  0.1852 -0.2213
18457W        W34074   3.876  16.611  13.593 -0.0981 -0.0897 -0.1788
18458W        W34075   5.512   5.714  13.358 -0.3526  0.2358  0.0504
18459W        W34076   8.074  16.471   1.613 -0.0070 -0.0392 -0.0964
18460W        W34077  13.521  16.870  15.800 -0.2002 -0.3091  0.0640
18461W        W34078  11.566  10.136  16.710 -0.2905  0.5232 -0.1750
18462W        W34079   9.586  17.339   3.415 -0.3562  0.1667  0.0723
18463W        W34080   5.522   4.239   1.847 -0.1630  0.1190  0.0930
18464W        W34081  15.749   4.483  14.799 -0.0220 -0.1773 -0.0722
18465W        W34082   7.536  16.368   4.169 -0.3438 -0.0896 -0.0524
18466W        W34083  16.266  18.002  13.699 -0.0029  0.0619  0.1953
18467W        W34084   8.440   2.860   5.776  0.0090 -0.2198 -0.0929
18468W        W34085  13.234   8.630   0.313  0.0931 -0.1825  0.1074
18469W        W34086   0.694  15.873  15.042  0.3144  0.0584  0.3057
18470W        W34087   0.623   9.615   1.041  0.1332 -0.3811  0.1803
18471W        W34088   4.377   4.910   3.574 -0.1399  0.3095 -0.0026
18472W        W34089  14.030   9.862  15.937 -0.2454 -0.2889 -0.1819
18473W        W34090  11.781   8.332   1.293 -0.2911  0.0790 -0.1609
18474W        W34091   9.094  12.487   3.208 -0.3002 -0.1422 -0.0969
18475W        W34092  11.727   3.269  14.933  0.0815  0.0240 -0.1718
18476W        W34093  10.048  16.161  13.713  0.2405  0.3346 -0.2042
18477W        W34094   9.955   7.195   5.468 -0.0929  0.0713 -0.0303
18478W        W34095  17.283  12.710  14.882 -0.0198 -0.1181 -0.2212
18479W        W34096   5.976   1.343  15.014  0.0652  0.1107  0.0359
18480W        W34097   1.843  10.521   1.757 -0.0108  0.1197  0.2313
18481W        W34098  15.633  14.863  16.003 -0.0549 -0.0817  0.0214
18482W        W34099  12.421   4.518   0.290  0.0217  0.0002 -0.3450
18483W        W34100   9.261   4.002  11.046 -0.1020  0.2041  0.1330
18484W        W34101   3.480   0.114   3.956  0.0047  0.1099  0.1809
18485W        W34102   5.039   9.929  13.595 -0.1065 -0.4244  0.1506
18486W        W34103  10.725   9.267  11.298  0.0535 -0.0560  0.0819
18487W        W34104   4.291   6.509  12.938 -0.1465  0.1585 -0.2166
18488W        W34105   4.832  13.251   5.081 -0.0503 -0.1330 -0.0292
18489W        W34106  14.022   4.375   1.789 -0.3349 -0.3302 -0.1318
18490W        W34107  16.478   4.966  11.684  0.2282  0.0557 -0.2734
18491W        W34108  15.807   0.962  15.200 -0.0961  0.1499  0.1452
18492W        W34109  10.971  16.204   4.616 -0.1899 -0.1295  0.3213
18493W        W34110   8.188  13.212  15.511 -0.0678  0.0383 -0.1666
18494W        W34111   7.411  14.375   3.998  0.3867 -0.0627 -0.1384
18495W        W34112   6.312   2.384   0.756 -0.0865 -0.2346 -0.1699
18496W        W34113   0.992  13.683  11.853  0.1982  0.1258  0.1048
18497W        W34114  17.457   3.121  16.170  0.3491 -0.0617 -0.1986
18498W        W34115   9.489   4.843   1.683  0.0663 -0.0890 -0.0380
18499W        W34116   2.845   8.857   0.975  0.3667  0.2725  0.2744
18500W        W34117   6.507   7.131   5.423 -0.1158  0.1845 -0.2445
18501W        W34118   4.783  13.194   0.566  0.2527  0.0419  0.2016
18502W        W34119  16.865  16.695   3.964  0.0629 -0.1403 -0.0848
18503W        W34120  17.194   2.023  16.475  0.0861 -0.0523 -0.0874
18504W        W34121  13.596  14.774   5.611  0.0753  0.4036  0.3692
18505W        W34122  14.991  16.978  14.309 -0.0815 -0.2113  0.1099
18506W        W34123   6.763  12.509   1.481  0.2735  0.0206 -0.0470
18507W        W34124   8.685   8.516   0.082  0.1345  0.0654  0.2101
18508W        W34125   2.196   3.944  15.586  0.3755 -0.1655  0.2508
18509W        W34126  16.868  15.729   1.750  0.2434  0.2371  0.5639
18510W        W34127   9.033  13.115  12.070 -0.0155  0.3525  0.1213
18511W        W34128  15.726   7.664   3.097  0.3069 -0.1381  0.3078
18512W        W34129   8.373   7.262   4.872 -0.1637 -0.1600  0.3137
18513W        W34130   9.496   2.720   0.611 -0.1456 -0.0187 -0.1346
18514W        W34131   7.617   5.183   4.702  0.1355  0.0354 -0.1141
18515W        W34132  11.974   7.084  15.234  0.1850  0.0500  0.1119
18516W        W34133   1.650   3.337  15.961 -0.0234 -0.2736 -0.1337
18517W        W34134   0.420   6.018   4.748  0.0193  0.1512 -0.0973
18518W        W34135   9.999   9.407  15.304  0.2013 -0.3083 -0.1662
18519W        W34136  12.643  12.969   4.744 -0.1758 -0.1921  0.0044
18520W        W34137  16.827   7.992  12.265 -0.0293 -0.1281  0.1842
18521W        W34138   4.251   3.486  14.847 -0.0705  0.1493  0.0535
18522W        W34139   1.159  13.511   2.163  0.3785  0.1850 -0.0194
18523W        W34140   5.390  11.234  16.440  0.3772 -0.0562  0.0498
18524W        W34141   0.970   9.877  13.632  0.1154  0.2088 -0.0206
18525W        W34142   5.299  11.975  14.693  0.0847  0.1956 -0.0558
18526W        W34143   8.514   1.651  12.824  0.3695  0.0035 -0.2649
18527W        W34144  16.933   7.768   1.808 -0.2360 -0.1228 -0.1311
18528W        W34145   7.132   8.169  15.827 -0.0308  0.1442  0.1731
18529W        W34146  14.671   6.677   4.358  0.0561 -0.0261  0.1920
18530W        W34147   5.407   6.015  16.642  0.0755 -0.0256  0.0652
18531W        W34148   1.784   2.057  14.032  0.1322 -0.0296  0.4082
18532W        W34149  14.671  10.722   1.785  0.2306 -0.1748 -0.1583
18533W        W34150   6.804  10.349   3.558 -0.0275  0.1827 -0.2132
18534W        W34151   1.786  10.153  14.729  0.3065  0.2512  0.1604
18535W        W34152  17.462   4.140   3.836 -0.0031  0.1038  0.0086
18536W        W34153   5.777   2.186   2.337 -0.4857 -0.1794  0.1818
18537W        W34154   3.166  11.806  15.045 -0.1746 -0.2004 -0.3222
18538W        W34155   8.680   2.893   2.098 -0.1148  0.0380  0.0289
18539W        W34156   4.636  10.859   5.363  0.0761  0.0806  0.1140
18540W        W34157  13.276  14.257   1.021  0.1151  0.2420  0.1797
18541W        W34158  11.452   7.737  15.742 -0.0995  0.1237 -0.0371
18542W        W34159   2.630  18.002   1.540  0.1064 -0.0708  0.1146
18543W        W34160   9.345  16.721  13.196 -0.0090 -0.0384 -0.1626
18544W        W34161   0.797   0.830  13.668  0.2004 -0.3292  0.1840
18545W        W34162  13.488   5.054  14.467  0.0678 -0.0873 -0.0472
18546W        W34163   4.715   1.990   6.200 -0.0507 -0.0928 -0.1511
18547W        W34164  17.515   2.649   2.580 -0.2889 -0.1798  0.0009
18548W        W34165   8.855   4.258  16.717  0.1164  0.0673  0.0217
18549W        W34166   2.266   9.833  13.507  0.2277  0.2753 -0.2309
18550W        W34167   7.046  15.512   1.435 -0.1284 -0.1001  0.3443
18551W        W34168   0.063   5.921  10.990  0.2943 -0.0991  0.2078
18552W        W34169  15.337  16.366  16.082  0.0529 -0.0223 -0.0432
18553W        W34170   9.544   3.693   0.115 -0.2137 -0.1358 -0.4332
18554W        W34171   5.219  13.614   3.719  0.1860 -0.0695 -0.0306
18555W        W34172  14.853  15.900  13.802 -0.1118  0.0342  0.1068
18556W        W34173   8.664   0.174  12.559  0.0286 -0.1044 -0.3643
18557W        W34174   4.026  14.413   0.237  0.4175 -0.1742  0.0790
18558W        W34175   2.889  10.422  13.413  0.0657  0.1496 -0.0746
18559W        W34176  15.158  13.225  14.756 -0.2696  0.0410 -0.1610
18560W        W34177  15.439   2.374   0.373 -0.1208 -0.0505  0.2659
18561W        W34178  14.823  16.052  13.330  0.1602  0.1250 -0.0042
18562W        W34179   7.531   6.547   3.761  0.0033  0.2399  0.0066
18563W        W34180  11.689   5.750  16.666  0.2776  0.0437 -0.1525
18564W        W34181   1.060   8.928  13.422 -0.2688 -0.2555 -0.1428
18565W        W34182   8.276   4.510  15.638  0.0242  0.1630 -0.3026
18566W        W34183   2.313   3.169   3.754 -0.2054  0.0598 -0.0442
18567W        W34184  12.780   6.715  11.988 -0.0433  0.0273  0.1047
18568W        W34185  17.844   4.358   1.030 -0.2455 -0.0979  0.1246
18569W        W34186   5.458  16.245   4.084  0.0099  0.2112  0.1503
18570W        W34187  15.610  17.477   2.920  0.1484 -0.1465  0.1455
18571W        W34188   1.062   6.517  12.851 -0.2386 -0.1197  0.0443
18572W        W34189  11.691   4.863   3.273  0.1454  0.0293 -0.0713
18573W        W34190  11.331  13.373  12.191 -0.1284  0.0195 -0.4288
18574W        W34191   5.655   4.018   2.263 -0.0847 -0.2320  0.1679
18575W        W34192  16.713   8.115   5.609  0.1163  0.0141 -0.3178
18576W        W34193   2.229   6.073  15.867 -0.0383 -0.0045  0.1257
18577W        W34194   4.592  10.432   3.265  0.0026 -0.2075  0.0588
18578W        W34195  14.511   0.352  15.302  0.0143 -0.1705 -0.2607
18579W        W34196  11.610   7.212   4.015 -0.1138  0.2934 -0.1696
18580W        W34197   2.571   2.015   1.301  0.2709  0.1530  0.0577
18581W        W34198  13.524   1.727   2.946 -0.1356 -0.1431  0.0320
18582W        W34199   9.468  13.934   1.319 -0.0864 -0.1838 -0.0170
18583W        W34200   6.642   9.765  12.291 -0.2394  0.1460  0.1925
18584W        W34201   7.030   2.685  15.135  0.1390 -0.2221  0.0409
18585W        W34202  16.257   1.650  12.216  0.1031 -0.1092  0.1519
18586W        W34203   5.574  17.830  14.693 -0.0220 -0.1592 -0.2020
18587W        W34204   4.605  17.182  13.916 -0.2543  0.1188 -0.0085
18588W        W34205   0.166  15.001   5.671  0.1627 -0.0971  0.0791
18589W        W34206   0.448   9.369   1.518  0.2418 -0.0849 -0.2310
18590W        W34207   2.061  13.619   3.287 -0.2372  0.1175 -0.0928
18591W        W34208  12.705  13.333   3.006  0.5016  0.0287  0.1696
18592W        W34209   5.945   0.005   1.378 -0.1023 -0.1406  0.0061
18593W        W34210  18.037   3.979   1.276  0.3642 -0.0513 -0.2059
18594W        W34211   2.158   3.615   1.651  0.1179  0.3055  0.2236
18595W        W34212  16.668   4.264  15.150  0.0647 -0.0781 -0.1509
18596W        W34213   9.214   2.317  14.621 -0.0136  0.2979  0.1482
18597W        W34214   2.421   1.077  11.635 -0.2392 -0.0903 -0.1396
18598W        W34215   3.127   8.528  12.412 -0.0910  0.0885 -0.2158
18599W        W34216   7.397  10.289   2.868  0.1157 -0.1003  0.2494
18600W        W34217  16.548  13.263   1.573 -0.1953 -0.0243  0.2873
18601W        W34218   8.796   5.823  12.506 -0.2092  0.1423 -0.0599
18602W        W34219   0.724   4.743   6.295  0.0434  0.1967 -0.0930
18603W        W34220  14.681   6.040   5.324 -0.0452 -0.0369  0.1000
18604W        W34221   9.587  14.508  13.332  0.2120  0.1228 -0.2523
18605W        W34222   7.580   5.070   4.180  0.0228 -0.2155  0.0582
18606W        W34223  15.758   3.260  12.361 -0.3124  0.0824  0.2621
18607W        W34224  17.237   2.244   5.572 -0.1264  0.0879 -0.0383
18608W        W34225  16.929   2.193   3.645  0.0708 -0.1017  0.2855
18609W        W34226   8.083   8.336  12.058 -0.1312  0.0954  0.0650
18610W        W34227  16.584  12.346  12.989  0.2139  0.0999 -0.0030
18611W        W34228   3.946   5.860   6.394  0.1453 -0.0647  0.0679
18612W        W34229  17.637  12.079  16.632 -0.0938 -0.1655  0.1221
18613W        W34230   6.957  11.603  15.091  0.1152  0.1282 -0.1174
18614W        W34231  17.007  13.935   2.794 -0.0449 -0.0915 -0.1188
18615W        W34232   6.396   9.695   2.378 -0.1499  0.1466 -0.3577
18616W        W34233   7.705   5.884  12.407  0.1629  0.2208  0.0413
18617W        W34234   0.704  10.598  13.232  0.2300  0.0523  0.2425
18618W        W34235   4.447   7.060   3.573  0.0988  0.0459  0.1370
18619W        W34236  11.533   0.839   5.139 -0.1276 -0.3200 -0.3548
18620W        W34237   6.948  16.790  16.155 -0.3570  0.0570  0.2056
18621W        W34238   5.796   0.170  15.442 -0.1578 -0.1993 -0.2162
18622W        W34239  11.299   6.809   3.139 -0.0331  0.0755  0.1427
18623W        W34240  13.613   5.607   4.975 -0.0649 -0.0463  0.0388
18624W        W34241   9.411  17.285  14.759  0.3711  0.2428 -0.2453
18625W        W34242   4.846   6.026   0.603  0.2991 -0.3553 -0.0192
18626W        W34243   5.448   9.422   1.034  0.1599 -0.1859  0.1970
18627W        W34244   4.056   6.940   5.445  0.2847  0.0091  0.2227
18628W        W34245   7.271   6.939  12.426 -0.2670 -0.1656  0.1658
18629W        W34246   0.913   5.539  14.156 -0.1319  0.0149 -0.3812
18630W        W34247   0.546   2.313  16.751  0.1035 -0.1306  0.0785
18631W        W34248  13.474  11.055   1.887 -0.2660 -0.3133  0.2161
18632W        W34249  13.481   2.730   0.495  0.0292  0.0902  0.2574
18633W        W34250   5.551   3.111  13.075  0.0148  0.1455  0.0397
18634W        W34251  17.409   9.864   3.636 -0.1346  0.0278 -0.3449
18635W        W34252   0.807   2.088  14.356 -0.2197  0.1397 -0.1514
18636W        W34253   3.676   2.056  12.418 -0.1568  0.2826  0.2999
18637W        W34254  16.982   4.850  10.821  0.0898  0.1705  0.0196
18638W        W34255  17.376   5.574   5.492 -0.1716  0.2250  0.1614
18639W        W34256  13.213  16.022   1.824 -0.1542 -0.1944  0.0081
18640W        W34257   6.971  12.588   4.235 -0.1765 -0.1162 -0.1637
18641W        W34258   5.473   5.204   2.040  0.0894 -0.0205 -0.0929
18642W        W34259  14.624   1.256  14.259 -0.0575 -0.0908 -0.2064
18643W        W34260  15.429   0.046   1.721 -0.1145 -0.2056 -0.4294
18644W        W34261   2.763  13.637   1.839  0.0912  0.0122  0.2340
18645W        W34262  11.388   3.564  14.204 -0.0399  0.1285 -0.4162
18646W        W34263   2.270   3.969   5.710  0.1584 -0.2643 -0.2639
18647W        W34264  15.250  17.324  12.282  0.0188  0.1571 -0.2341
18648W        W34265   0.762   7.442  15.378 -0.2127  0.0813 -0.3426
18649W        W34266   7.304   5.558  12.432 -0.0615  0.0339 -0.0031
18650W        W34267  12.711  13.869  11.464  0.0483 -0.0416 -0.0970
18651W        W34268   3.392   7.601  13.895  0.3382 -0.1460  0.3585
18652W        W34269  16.297   9.994  13.471  0.1001 -0.0995 -0.1993
18653W        W34270   9.167   3.006  13.946  0.0741 -0.2540 -0.0761
18654W        W34271   6.525  13.363  11.571  0.2331 -0.0818 -0.2555
18655W        W34272  13.491   2.428  13.678  0.0476  0.3449 -0.2528
18656W        W34273  16.645  13.007  14.285  0.2679 -0.0087  0.0024
18657W        W34274  16.212   1.689  16.277 -0.0035  0.1412 -0.1550
18658W        W34275   7.968  13.981   4.481 -0.0136  0.0306  0.1153
18659W        W34276   8.426  12.139   5.052 -0.1806  0.0966  0.1032
18660W        W34277   4.872   5.968  14.687 -0.7275 -0.0285 -0.1258
18661W        W34278  12.538   5.531  12.998  0.1090 -0.0579  0.1177
18662W        W34279   7.937   7.712   0.573 -0.1463 -0.0205 -0.1389
18663W        W34280  11.829   9.751  12.082 -0.2523 -0.1248 -0.2879
18664W        W34281   6.826   9.164   0.690 -0.3528  0.0306  0.1778
18665W        W34282   7.782   9.462   4.141 -0.1649 -0.0453 -0.2390
18666W        W34283  11.914   6.072  12.937 -0.0145  0.3784  0.3104
18667W        W34284  10.517   5.974   3.197 -0.1947 -0.2119 -0.3943
18668W        W34285   0.519   2.904  12.402 -0.1635  0.3762  0.1205
18669W        W34286   8.599   7.923   3.709  0.1325 -0.0567  0.0845
18670W        W34287  14.933  16.724   0.772 -0.1344 -0.1785  0.0942
18671W        W34288  15.969  13.877   6.108  0.1255  0.1326 -0.2385
18672W        W34289  13.429   2.666   3.080  0.2118  0.1224 -0.0384
18673W        W34290   6.065   2.800  15.401 -0.3492 -0.0102  0.0954
18674W        W34291   3.744  10.426  11.999 -0.0782 -0.1256  0.0262
18675W        W34292  16.115   7.964  12.242  0.0646 -0.3325  0.5050
18676W        W34293  13.084  12.130   2.094  0.0737 -0.1207  0.1862
18677W        W34294  10.047   3.848  12.937  0.3002  0.0091  0.1599
18678W        W34295   4.031  16.532   4.225 -0.2473 -0.1207 -0.0036
18679W        W34296   3.013  15.011   3.324 -0.0044  0.0872 -0.0744
18680W        W34297   3.920   7.683   0.636  0.0671  0.3777  0.0245
18681W        W34298   0.240   9.351   4.266 -0.0382 -0.0576  0.0478
18682W        W34299   0.219   8.429  16.491  0.1680 -0.3521  0.1805
18683W        W34300  11.781  11.159   0.628  0.2062 -0.1128 -0.1838
18684W        W34301   5.139   5.728  11.647  0.3884  0.0400 -0.0654
18685W        W34302  11.455   9.064   5.439 -0.1127  0.0318  0.1968
18686W        W34303  13.985   6.512   4.564  0.3398 -0.0612  0.2168
18687W        W34304   8.987   2.980   2.887  0.0909 -0.1876 -0.1050
18688W        W34305   8.952  13.365  13.289 -0.0989 -0.1950  0.0135
18689W        W34306   8.316  12.148   2.226 -0.0374 -0.2723  0.4516
18690W        W34307   4.772   9.779   2.781  0.0240  0.1519 -0.0217
18691W        W34308  14.216  14.383  12.011  0.2356  0.1600  0.0522
18692W        W34309  14.065   7.041   3.631  0.0861 -0.1094  0.0564
18693W        W34310   6.329  10.404  13.453  0.0471 -0.0619  0.2180
18694W        W34311   0.720   7.527   0.955 -0.0210 -0.1223 -0.4054
18695W        W34312  16.720  15.493   1.302  0.1846 -0.1032  0.1260
18696W        W34313  13.712   2.069  14.742  0.2643 -0.1127 -0.1562
18697W        W34314  12.920  12.063  16.397  0.2929  0.0038  0.2701
18698W        W34315  16.344   3.417   1.265 -0.1869  0.2671  0.1722
18699W        W34316  10.627  13.153  13.904 -0.1643  0.1880 -0.2976
18700W        W34317   4.829  16.801   4.291  0.0350 -0.1986 -0.0259
18701W        W34318  13.125  16.679   5.855  0.0643  0.1544 -0.1023
18702W        W34319   9.214   2.404   4.711 -0.0461 -0.2690 -0.1618
18703W        W34320   3.754   4.350   5.516  0.0739  0.0648 -0.0084
18704W        W34321   5.496  11.776  11.823  0.1100 -0.0551 -0.0283
18705W        W34322   5.049   9.157  15.668  0.2453 -0.2475  0.0905
18706W        W34323  11.336  10.220   3.220 -0.3899  0.2133 -0.0502
18707W        W34324   6.768   6.776  15.958  0.4467 -0.0701 -0.1433
18708W        W34325  12.293   7.906  12.289 -0.0036  0.2447  0.1261
18709W        W34326  15.751   9.002  12.061  0.1604 -0.0179 -0.1817
18710W        W34327   3.570   7.950  13.618 -0.2182  0.1066  0.4822
18711W        W34328   6.928  10.960  11.582  0.1082  0.3354 -0.1073
18712W        W34329  14.776   7.445  14.857  0.1180 -0.0946 -0.1616
18713W        W34330  12.976  17.473   1.659  0.0104  0.2025 -0.1987
18714W        W34331  17.492   5.591   3.423 -0.0691  0.1425 -0.2424
18715W        W34332  11.298  12.813  15.452 -0.4059 -0.1072 -0.2154
18716W        W34333  11.540   3.759   6.057 -0.1102  0.0911  0.1507
18717W        W34334  12.643  11.927  12.872 -0.3649 -0.1022  0.3026
18718W        W34335  16.503   5.119   0.460 -0.0591 -0.3223 -0.0922
18719W        W34336   0.199   6.846  15.605  0.0781  0.2516  0.3226
18720W        W34337  10.106   8.815   3.908  0.2712  0.2435  0.0169
18721W        W34338   4.400  16.938   0.560  0.3527 -0.0477  0.2654
18722W        W34339  17.093   6.467   0.335  0.1070  0.1202  0.1388
18723W        W34340   0.993  14.597  12.871  0.2229  0.2364 -0.0223
18724W        W34341  15.451  12.729  16.324 -0.1735  0.1856 -0.1357
18725W        W34342   0.457   7.700   2.121 -0.1942 -0.1205 -0.2664
18726W        W34343   4.377   1.578  11.249  0.0344 -0.0805  0.3515
18727W        W34344  12.479  10.092   3.644 -0.1015  0.0182 -0.1665
18728W        W34345  11.300   4.761   1.143  0.0275  0.0138 -0.2237
18729W        W34346  16.407  16.813   4.995  0.2069  0.4488 -0.3758
18730W        W34347   8.240   1.608  16.350 -0.3592  0.1186 -0.3837
18731W        W34348  14.303   4.952   6.560  0.1510 -0.0737 -0.2080
18732W        W34349   6.890   2.696   2.464 -0.0264 -0.0672  0.4138
18733W        W34350  16.680   6.244   3.795 -0.2210  0.1029  0.2595
18734W        W34351   2.207  15.030  12.383 -0.0531 -0.0772 -0.2316
18735W        W34352   4.477   8.848  12.439  0.1634  0.0817 -0.0015
18736W        W34353   1.310  14.061   5.800  0.0255 -0.5426 -0.4126
18737W        W34354   6.202   3.071  11.788 -0.1092 -0.0091  0.0298
18738W        W34355  14.447  15.146   3.686 -0.1772 -0.0890  0.2745
18739W        W34356  14.021   4.887   5.164 -0.2688 -0.4930 -0.0949
18740W        W34357   8.403  10.715  11.806 -0.2262  0.1121 -0.1652
18741W        W34358  15.816  12.487   5.686  0.1609 -0.2496  0.1016
18742W        W34359   5.892  18.035  13.223 -0.1426 -0.3731 -0.1184
18743W        W34360   6.751  10.449   0.344  0.2475  0.3226  0.0166
18744W        W34361  12.343  12.020   1.005  0.3542  0.2326 -0.0128
18745W        W34362  16.363   1.445   2.304  0.0488 -0.2480  0.0852
18746W        W34363   1.306   3.283   4.482  0.2823  0.0568 -0.2393
18747W        W34364   7.307   6.817   4.100 -0.0271 -0.0606 -0.2125
18748W        W34365   5.214  10.670  16.126 -0.3055 -0.2002  0.0949
18749W        W34366   2.229   8.663  15.688  0.3509 -0.2580  0.1371
18750W        W34367  10.942   3.231  14.820  0.1563 -0.0754 -0.3761
18751W        W34368  15.184   8.816  12.381  0.0317 -0.0378 -0.1525
18752W        W34369  15.291  13.667  15.684 -0.1629  0.1182 -0.0433
18753W        W34370  15.385   5.704   4.192  0.0583 -0.3107 -0.2905
18754W        W34371  11.483   6.989  15.128  0.1527 -0.3439  0.0937
18755W        W34372  18.031  14.140   2.887  0.0248 -0.2223 -0.0415
18756W        W34373   7.992  11.141   2.753 -0.2366  0.2546  0.1594
18757W        W34374   2.803   1.735  11.536 -0.1339 -0.1473  0.0289
18758W        W34375  17.068  10.594  11.587 -0.0339 -0.0206  0.3348
18759W        W34376   2.237   0.672   4.179 -0.0530 -0.0822 -0.0791
18760W        W34377  12.123   6.239   0.543 -0.1618 -0.1221 -0.1178
18761W        W34378   9.561   2.523   6.316 -0.1589 -0.1648 -0.2823
18762W        W34379  12.300   1.645   4.214  0.4259 -0.1616  0.2705
18763W        W34380  10.161  10.520  13.722  0.0190 -0.0598  0.0774
18764W        W34381  18.018  14.750  13.735 -0.2735 -0.1864 -0.1809
18765W        W34382   9.191   7.868  10.404  0.1032 -0.0507  0.4947
18766W        W34383   1.193   6.797   4.429 -0.3005 -0.0276  0.1841
18767W        W34384  16.158  12.949  12.579  0.2077 -0.1604 -0.1026
18768W        W34385   6.814   7.839  15.103  0.3424  0.0271 -0.1115
18769W        W34386   2.598  14.124  14.055  0.1445 -0.0753 -0.1581
18770W        W34387  10.114   1.935   6.199 -0.1364 -0.0101 -0.0105
18771W        W34388   2.060  12.961   2.939  0.2854 -0.0263  0.1266
18772W        W34389   7.919   2.188  13.269 -0.0252  0.4755 -0.0854
18773W        W34390  12.378  11.898   5.597  0.2934  0.1422 -0.3146
18774W        W34391   5.252  13.065   5.685  0.0381  0.0250  0.0419
18775W        W34392  14.781   1.748   3.756 -0.4818  0.3237 -0.3582
18776W        W34393  11.653  13.070   4.062 -0.0761  0.0293  0.2435
18777W        W34394  17.462  12.923  12.225 -0.1925  0.1133 -0.2099
18778W        W34395  13.973   3.795   0.690 -0.3008  0.3201 -0.0374
18779W        W34396   3.993   8.900   5.200  0.0085  0.0810  0.1837
18780W        W34397  13.985   8.644  11.686  0.2645  0.0040 -0.1411
18781W        W34398   6.054   3.897   2.053 -0.0732 -0.1299 -0.0936
18782W        W34399   9.600  14.159  11.706  0.4464 -0.1268  0.0979
18783W        W34400  13.482   9.227  13.146  0.1247 -0.1116 -0.1851
18784W        W34401   2.838  15.577   2.151 -0.0601  0.0045  0.1472
18785W        W34402   1.636  16.941  13.379  0.0419  0.0166 -0.2665
18786W        W34403   6.703   0.939  14.448  0.0006  0.2586  0.0255
18787W        W34404  18.032   2.979   5.989  0.1566  0.2357 -0.0789
18788W        W34405   6.463   9.480   4.512 -0.2765  0.0204 -0.0072
18789W        W34406  11.386   0.590  13.737  0.2085 -0.4179  0.2918
18790W        W34407  13.539   5.572   0.359 -0.1222  0.2691 -0.1524
18791W        W34408   0.607  17.806   4.845 -0.0273  0.3068  0.0409
18792W        W34409  12.042  17.021  14.826 -0.1316  0.1145 -0.1587
18793W        W34410   0.545   8.177   5.765  0.1537  0.0628 -0.3320
18794W        W34411  10.864  17.026  11.787  0.2871  0.1726  0.1328
18795W        W34412  17.779   6.966  12.591 -0.0919  0.3942  0.3339
18796W        W34413   9.196  14.267   4.143  0.0764 -0.0289 -0.0492
18797W        W34414   4.920   8.482  11.157 -0.0800 -0.0629  0.0063
18798W        W34415   4.089  12.379  15.380 -0.0642  0.1268  0.2269
18799W        W34416   6.995   1.430  16.698 -0.0698 -0.1540 -0.1857
18800W        W34417   5.160  11.426   4.772 -0.1357 -0.0782 -0.1717
18801W        W34418   6.941   0.913  15.560  0.5461 -0.1299 -0.2510
18802W        W34419  15.576   1.428  15.515 -0.1201 -0.3096  0.1051
18803W        W34420   3.094   6.918   0.717 -0.0621 -0.1666 -0.0616
18804W        W34421  16.908   7.440   0.059  0.1021  0.2952  0.0215
18805W        W34422  17.115  14.391  15.658 -0.3048  0.2147  0.4001
18806W        W34423  13.921  10.630   4.062 -0.2859 -0.3022 -0.2147
18807W        W34424  17.019  17.923  12.987  0.0588 -0.3639 -0.1829
18808W        W34425  11.336   0.229  14.936 -0.2335  0.1838 -0.0186
18809W        W34426  13.027   2.548  15.497 -0.0669 -0.1015  0.0213
18810W        W34427  15.688  15.727   2.261  0.0510 -0.0774 -0.0967
18811W        W34428   6.709   4.317  13.747 -0.0305  0.0274  0.2814
18812W        W34429  11.677  14.915   3.617  0.0439  0.0097  0.2081
18813W        W34430   5.737  16.519  14.134 -0.2305 -0.4229 -0.1039
18814W        W34431   2.280  16.306   3.215  0.2097  0.1979 -0.1311
18815W        W34432  12.805   7.425   0.995 -0.1551 -0.1474 -0.0721
18816W        W34433  11.673  11.143  13.696 -0.2829  0.2695 -0.0981
18817W        W34434   3.980   3.892  14.121 -0.1226  0.2229 -0.2776
18818W        W34435   0.793  14.731  12.407 -0.1863  0.3279  0.1521
18819W        W34436  15.493   4.455   6.068  0.0284  0.2237  0.0143
18820W        W34437   5.806  13.221  15.084  0.2936 -0.3303  0.0554
18821W        W34438   8.213  14.238   1.447  0.0714  0.1592 -0.2320
18822W        W34439   2.270   9.465   6.473  0.0531 -0.4653  0.2819
18823W        W34440   1.621  10.363  13.154  0.3004  0.4119 -0.0178
18824W        W34441  10.272  12.711   3.695  0.1422 -0.0196 -0.0431
18825W        W34442   4.522   1.515   5.278  0.1294 -0.0222  0.0354
18826W        W34443   3.614   8.688  12.524  0.2961 -0.1644  0.0793
18827W        W34444  11.812   6.068  13.984 -0.0439 -0.1799 -0.1301
18828W        W34445   6.261   7.730   0.094  0.0402 -0.1844 -0.3891
18829W        W34446   3.292   6.845   3.948  0.2095 -0.2623  0.0980
18830W        W34447   1.032   3.515  14.181  0.4407  0.2493 -0.1373
18831W        W34448  14.114  11.455   3.338 -0.2166  0.1018 -0.1434
18832W        W34449   8.375   1.329   4.807  0.0597 -0.0898 -0.0975
18833W        W34450  11.728  13.453  14.788  0.3484 -0.1555 -0.0180
18834W        W34451  17.182  17.952   1.558 -0.3823 -0.0830  0.0699
18835W        W34452  16.125  12.175  15.269 -0.0369  0.5650 -0.4647
18836W        W34453   3.769   1.732   4.183  0.0432 -0.1031 -0.2368
18837W        W34454  10.240  15.386   1.760 -0.1216  0.0041  0.2433
18838W        W34455  12.351  11.517   1.859  0.2021  0.0815  0.1907
18839W        W34456  16.306  12.380  14.823  0.0355  0.0788  0.3072
18840W        W34457   7.431   8.560  15.512  0.1101  0.0673 -0.2245
18841W        W34458   0.021  16.508   4.217  0.0736  0.2388  0.0267
18842W        W34459  10.114   8.841  12.704  0.0927  0.2520  0.1210
18843W        W34460   9.064  13.935  13.671  0.3608 -0.1755 -0.0932
18844W        W34461   2.544   3.980   1.651 -0.2327 -0.1073  0.1241
18845W        W34462  16.742  11.796  13.851 -0.0512  0.0123 -0.2787
18846W        W34463   5.985  10.277  15.294 -0.0060 -0.4055  0.2998
18847W        W34464   0.789   2.519   3.110 -0.0168  0.1871  0.1881
18848W        W34465  13.365   6.871   0.813  0.2898  0.1870 -0.1233
18849W        W34466  15.081   1.766  13.437  0.3444  0.1963  0.3389
18850W        W34467   1.153  15.610   3.107  0.0758 -0.0375 -0.0248
18851W        W34468  14.311   2.093   4.400 -0.0558 -0.0517  0.0507
18852W        W34469   6.834   4.326   0.052  0.0267  0.2471 -0.0373
18853W        W34470  10.103  11.408   2.089 -0.0868  0.2284 -0.0178
18854W        W34471   1.435   4.378  15.284  0.4331 -0.0795  0.0671
18855W        W34472   3.271  14.877   1.843  0.1071 -0.1876  0.0851
18856W        W34473  16.887  16.726  14.831 -0.0993 -0.0530  0.2243
18857W        W34474  10.578  12.319  12.361 -0.0558 -0.2386  0.1467
18858W        W34475  10.118   0.725  13.744  0.1515 -0.0835 -0.0056
18859W        W34476  15.812   6.377   2.729 -0.0858 -0.2162  0.0069
18860W        W34477   2.565   8.317   2.342 -0.0406 -0.2879 -0.3801
18861W        W34478   7.569  17.225   4.368 -0.1496 -0.0370 -0.0597
18862W        W34479   4.358   7.718  16.732 -0.1372 -0.1904  0.2024
18863W        W34480   5.179   4.108  15.974  0.2168  0.0856 -0.0096
18864W        W34481  10.188   6.639   2.161 -0.1425 -0.3478 -0.0623
18865W        W34482   9.073  17.433  11.662  0.3449  0.0510  0.2722
18866W        W34483   9.362   2.306   3.747 -0.0477 -0.1851  0.1730
18867W        W34484   5.696  12.285   3.436  0.1787 -0.1484 -0.0636
18868W        W34485   8.988  11.251  14.008 -0.0974  0.5059 -0.1141
18869W        W34486   0.736   5.644   2.072 -0.3382  0.2631 -0.1404
18870W        W34487   3.015  12.282  11.768  0.1027  0.1201 -0.1870
18871W        W34488   2.868   0.804   2.361  0.0695 -0.2610 -0.1174
18872W        W34489   8.888  17.129   5.811 -0.0467  0.0847 -0.0354
18873W        W34490   2.266  14.512  15.243  0.0195 -0.1326 -0.0295
18874W        W34491   7.188   3.955  16.789 -0.4073  0.0807 -0.0595
18875W        W34492  11.197  12.751   3.804 -0.0378  0.1269  0.0041
18876W        W34493  13.551  12.310  15.119 -0.4630 -0.0011  0.0705
18877W        W34494   0.487   2.857   2.093  0.1739 -0.0733 -0.0088
18878W        W34495   6.809  11.774  13.868  0.0534 -0.1221 -0.0359
18879W        W34496   3.972   1.862   2.790  0.4724 -0.0323 -0.0326
18880W        W34497  10.451  13.245  11.798  0.2501  0.2669 -0.0720
18881W        W34498  16.392   1.382   6.014  0.1011 -0.1303  0.2170
18882W        W34499  12.673   2.528  16.334  0.1961  0.0871 -0.3043
18883W        W34500   3.021   3.613   0.139 -0.0919  0.2082  0.3954
18884W        W34501   8.963   2.958  13.499 -0.1865  0.1083 -0.1366
18885W        W34502  11.641   6.323   4.531 -0.2943  0.1266 -0.1743
18886W        W34503   2.983  14.127  14.942 -0.1271  0.0804  0.0748
18887W        W34504   4.566  11.801   2.106 -0.0087 -0.3089  0.0528
18888W        W34505   9.336  17.712   2.088  0.1411  0.0765  0.1213
18889W        W34506  16.287  12.834   2.310 -0.1091  0.1187 -0.2750
18890W        W34507  11.327   3.179   2.624  0.0943  0.0032 -0.2558
18891W        W34508  14.646   1.955   3.178 -0.0485 -0.0752 -0.1716
18892W        W34509   4.078  13.176   0.527  0.1177 -0.0963 -0.1658
18893W        W34510   4.281  16.383  16.703 -0.1283  0.1552  0.1447
18894W        W34511  13.852  16.696  14.852 -0.1945 -0.1411 -0.1092
18895W        W34512   9.162   0.965   2.694 -0.0378 -0.1982 -0.2131
18896W        W34513  10.882  10.794  14.361  0.0558 -0.1662 -0.1278
18897W        W34514  16.564  13.272  12.517 -0.1566 -0.2275 -0.0224
18898W        W34515  14.029   5.478   3.340 -0.1599  0.0567 -0.1335
18899W        W34516   9.452  16.733  16.776 -0.4054  0.0787 -0.0966
18900W        W34517  14.373   2.512  14.489 -0.0034  0.3168 -0.1308
18901W        W34518  13.475   3.862   0.662  0.1621  0.1048  0.0753
18902W        W34519  14.563   7.002  11.723 -0.0254  0.0701  0.4071
18903W        W34520   2.196  13.779  12.979  0.0605 -0.0734 -0.0054
18904W        W34521   2.441   3.072   5.177  0.2948  0.3676  0.0252
18905W        W34522   9.321   5.833  11.263 -0.1482  0.2283  0.0319
18906W        W34523  13.234   0.764   1.871  0.1289 -0.0879  0.0950
18907W        W34524   9.949   5.691   2.153  0.1011  0.2169 -0.1314
18908W        W34525   1.519  12.280  15.131  0.0566 -0.2424  0.1156
18909W        W34526   0.621   9.216   3.126 -0.2158 -0.0384 -0.0761
18910W        W34527   6.411  10.181   3.858 -0.1408 -0.0391 -0.0755
18911W        W34528  14.692  12.414   3.360  0.1469  0.0830 -0.0719
18912W        W34529   5.689   5.586   0.613  0.0120 -0.1759  0.3178
18913W        W34530  10.287  16.271  10.435  0.0422  0.0114 -0.0003
18914W        W34531  15.281  14.630  16.420 -0.0084 -0.0056  0.2421
18915W        W34532   2.281   1.316   4.945  0.0568  0.0265  0.0264
18916W        W34533  17.397  11.520  15.634 -0.2612  0.0972  0.2098
18917W        W34534  10.313   0.838   0.721 -0.0685  0.2038 -0.2154
18918W        W34535   3.647   8.384  12.865  0.2338 -0.1804 -0.0294
18919W        W34536   8.903  13.566  14.657  0.0237  0.0600  0.1609
18920W        W34537   4.107   2.728  13.591  0.2990 -0.1345  0.3645
18921W        W34538  13.897   2.405  14.391 -0.1104  0.2456  0.1900
18922W        W34539   2.561   5.333   1.787  0.1215  0.0284  0.0147
18923W        W34540  10.036  10.387   0.238 -0.2669  0.0090 -0.3299
18924W        W34541  15.830   5.656   3.386  0.0888  0.1233  0.3121
18925W        W34542  15.933   7.013   2.224  0.0622 -0.1710  0.0750
18926W        W34543  17.048  11.780  14.769 -0.1783  0.1923  0.0095
18927W        W34544   9.530  12.490  16.429 -0.0115  0.0682 -0.1971
18928W        W34545   3.050   0.654   3.474 -0.0365 -0.0179  0.1118
18929W        W34546  10.883  11.582  13.571 -0.0573  0.0392 -0.0325
18930W        W34547  10.234   3.595   5.277  0.0613  0.1248 -0.0883
18931W        W34548   0.669  13.539   0.836 -0.0101  0.0937 -0.0607
18932W        W34549   7.838  15.860  14.452  0.2162  0.1902 -0.2950
18933W        W34550  16.029   2.007   5.099 -0.2505  0.3418  0.0768
18934W        W34551   6.528  10.234   0.879 -0.0888  0.4337 -0.1840
18935W        W34552  16.619  14.722  14.838 -0.1577 -0.0424  0.0240
18936W        W34553   9.070   1.190   1.399 -0.0458  0.3708 -0.2903
18937W        W34554  16.849  13.256   2.107  0.0862 -0.1724  0.0898
18938W        W34555   9.799  17.770   5.653  0.2482  0.1926 -0.1166
18939W        W34556  14.097   1.200  15.571 -0.2269  0.3781  0.1479
18940W        W34557  17.231   4.082   2.258  0.0013 -0.0227  0.2978
18941W        W34558   8.069   6.394   4.311  0.1983 -0.2462  0.0887
18942W        W34559  17.996  12.608  15.514 -0.1895 -0.2236  0.3366
18943W        W34560   0.479  16.011  14.071  0.1373  0.1251  0.2147
18944W        W34561  11.470  13.125  16.273 -0.0158  0.0126  0.1476
18945W        W34562  15.553   5.266   2.639  0.1786 -0.0128 -0.1058
18946W        W34563   4.764   5.165  14.555  0.0607 -0.1230 -0.1734
18947W        W34564   9.336   3.187  10.714 -0.0742 -0.1824 -0.2522
18948W        W34565   4.045   1.060   1.141  0.3364  0.0703 -0.0623
18949W        W34566   8.798   4.497  15.807 -0.0496  0.0135 -0.1852
18950W        W34567   1.900   7.250   1.306  0.0230  0.0876 -0.1279
18951W        W34568   3.941   3.951  15.028  0.1330  0.1300  0.0066
18952W        W34569  11.344   4.311   4.756  0.2635 -0.0091  0.1835
18953W        W34570   6.742   0.941   2.251  0.0341  0.1013 -0.1417
18954W        W34571   0.254   1.976  13.149 -0.0954 -0.0469  0.0810
18955W        W34572  11.830   7.122  12.834 -0.0584 -0.1383 -0.0116
18956W        W34573   3.713  10.794   5.529  0.2199  0.1142  0.0631
18957W        W34574  12.787   6.299  14.289  0.1380  0.4243 -0.3430
18958W        W34575  16.191  17.166  13.540 -0.4740  0.1588  0.0683
18959W        W34576   8.735  14.905  11.034 -0.0751 -0.0243 -0.0155
18960W        W34577   8.399   3.862   4.524 -0.0127 -0.1504  0.2921
18961W        W34578   8.403  11.342   2.512  0.1289  0.1707  0.0224
18962W        W34579  12.409  12.827   1.116 -0.2855  0.2457  0.1549
18963W        W34580  11.107  14.737  15.230 -0.0447 -0.2123 -0.1291
18964W        W34581  16.826  15.695   0.414  0.2100 -0.0010 -0.3994
18965W        W34582   7.829   9.905  14.834  0.1700  0.2518 -0.0113
18966W        W34583  11.412   7.506   3.015 -0.1248 -0.1199  0.1282
18967W        W34584  14.108   4.698   5.620  0.1468 -0.0747 -0.0800
18968W        W34585   1.043  12.952  15.664 -0.0941 -0.3081 -0.1786
18969W        W34586   4.931  15.325  14.058  0.0610 -0.0114 -0.1822
18970W        W34587   2.590  11.918   3.194 -0.5591 -0.2266  0.0196
18971W        W34588   5.511  13.593  14.168 -0.1562  0.2119 -0.0589
18972W        W34589  17.349  14.067  14.538 -0.1487 -0.0528  0.0939
18973W        W34590   7.317   4.257  13.014 -0.0348 -0.2410  0.1202
18974W        W34591  15.520   1.292   0.794  0.1972  0.0856  0.0344
18975W        W34592   9.254  11.610   5.004  0.1146  0.2967 -0.2585
18976W        W34593   8.317  15.224   5.166  0.4311  0.0574  0.0409
18977W        W34594  13.452   0.678   3.694  0.0364 -0.0390 -0.0753
18978W        W34595   6.440  10.305  15.002 -0.0387 -0.0623  0.0512
18979W        W34596  10.291  14.900   3.587 -0.2840 -0.0574  0.0802
18980W        W34597  10.147   3.582  16.515 -0.0214  0.0906  0.2052
18981W        W34598   4.529   0.693  15.033 -0.0141  0.0864 -0.0847
18982W        W34599  17.386   7.104   0.721  0.1184 -0.1938  0.0452
18983W        W34600  16.883  12.696   2.753  0.0135 -0.0421 -0.0502
18984W        W34601  11.548  16.756   0.299 -0.1678  0.4237  0.2854
18985W        W34602  14.347  13.254   3.341 -0.0463  0.1328 -0.1326
18986W        W34603   2.088   3.495  15.776  0.1663  0.0284  0.0690
18987W        W34604   3.454  11.386  15.079  0.0549 -0.0068 -0.1532
18988W        W34605   1.856  11.653   1.064 -0.0823  0.1454  0.1345
18989W        W34606  10.739   5.198   6.256 -0.0717 -0.2323  0.1277
18990W        W34607  12.129  16.016  16.510 -0.1166  0.3803 -0.1907
18991W        W34608   2.851   4.468   2.017 -0.0333  0.0134 -0.1123
18992W        W34609  17.157   9.538  16.034 -0.1994 -0.4773 -0.0691
18993W        W34610   4.226   5.376  11.991  0.3170 -0.2527  0.3177
18994W        W34611  15.165   9.996  11.638 -0.2759  0.0594  0.0575
18995W        W34612  12.377  12.853  14.318 -0.1979 -0.2706  0.1723
18996W        W34613  13.570  17.298  14.878  0.4623 -0.1264 -0.0401
18997W        W34614   6.911   8.529   1.482  0.0478  0.0818 -0.1153
18998W        W34615  12.675   3.558  13.752 -0.0277 -0.1398  0.3709
18999W        W34616   5.100  14.662  15.332  0.2926  0.0853  0.0354
19000W        W34617  14.582   2.630  12.003 -0.1602 -0.0346 -0.2518
19001W        W34618   4.683  14.202  13.003 -0.0847  0.2478  0.4385
19002W        W34619  11.962  17.701  15.039 -0.0795  0.0321  0.1498
19003W        W34620   3.019  17.258  11.795 -0.1093 -0.1878  0.0281
19004W        W34621   3.424   0.681   5.291 -0.0680  0.1357 -0.0767
19005W        W34622   7.426  15.667   1.648 -0.0546 -0.0853  0.5205
19006W        W34623  12.328   1.022   3.551 -0.1373 -0.0122  0.0028
19007W        W34624   1.044   0.064   4.696  0.3777 -0.1738  0.3822
19008W        W34625  15.863   2.242  14.094  0.2104  0.1108  0.1710
19009W        W34626  11.047   5.849   5.107  0.3263  0.2616 -0.0827
19010W        W34627   1.404   7.694   4.402  0.1068 -0.1150  0.0054
19011W        W34628   3.008   7.187   4.216  0.0339  0.4826 -0.4588
19012W        W34629  11.749   6.585   5.688  0.1202 -0.0124  0.0318
19013W        W34630   5.988   4.767   3.149  0.1149 -0.1984  0.0663
19014W        W34631   0.487  17.149   1.790  0.3199  0.2690 -0.1203
19015W        W34632   4.483   5.781  11.584 -0.0006  0.2838  0.3216
19016W        W34633  15.939   0.612  14.390 -0.1028 -0.0713 -0.0626
19017W        W34634  17.032   7.682   5.610 -0.3777  0.1064 -0.2222
19018W        W34635   3.288  13.394  16.102 -0.2231  0.1210 -0.0021
19019W        W34636   8.959  17.897   4.578  0.1409  0.1419  0.0546
19020W        W34637  11.337   2.968   0.539  0.0312  0.2037  0.0045
19021W        W34638  17.166  15.917  14.274  0.3518 -0.0495  0.2218
19022W        W34639  15.493  14.484  11.777  0.2014 -0.1913  0.1752
19023W        W34640   7.441   5.249  16.789  0.0335  0.0721  0.0220
19024W        W34641   2.269  14.400  13.810  0.0331  0.1037  0.0422
19025W        W34642   9.702  16.610   2.944 -0.0309  0.0047 -0.2101
19026W        W34643   1.683   1.146  12.020  0.0958 -0.0395 -0.0930
19027W        W34644  17.730  17.802  12.865  0.2607 -0.0928  0.0375
19028W        W34645   9.958  13.247   4.457 -0.1238  0.0694  0.3247
19029W        W34646   7.597  17.545  14.962 -0.2499  0.1602 -0.0950
19030W        W34647   3.527  10.285   3.301  0.1348 -0.3252 -0.0894
19031W        W34648   1.754   5.683   1.845  0.1268  0.0929  0.1964
19032W        W34649   4.841   9.926   3.272  0.3801  0.0157  0.2167
19033W        W34650   1.607   8.531   2.193 -0.4404 -0.0505  0.0257
19034W        W34651   6.101   0.568   5.484  0.1349 -0.0508  0.0313
19035W        W34652   9.504  12.085  13.724  0.1728  0.1207  0.0784
19036W        W34653   7.635  12.853   2.818 -0.0827  0.0175 -0.0986
19037W        W34654   3.942   4.915   2.773 -0.2331  0.1277  0.0867
19038W        W34655  13.578   1.290   5.006  0.0929  0.0329 -0.1185
19039W        W34656   6.417  15.750  15.508 -0.2031 -0.0142  0.1440
19040W        W34657   2.034  16.889   0.806 -0.5080 -0.0620 -0.0876
19041W        W34658  14.048  11.788  14.137 -0.0071  0.1419  0.3426
19042W        W34659  11.518  13.812  13.514 -0.0016 -0.1242 -0.3052
19043W        W34660  10.727   4.670   1.620  0.2908  0.1244 -0.0815
19044W        W34661   8.919   2.008  14.955 -0.1514  0.3885  0.2455
19045W        W34662  12.556  12.058  10.961  0.2393 -0.0927  0.0562
19046W        W34663  13.992   5.592   0.578  0.1583 -0.0938  0.4603
19047W        W34664  16.931  15.634  15.988  0.0523 -0.3501 -0.0483
19048W        W34665  16.927   0.759  14.454  0.0166 -0.0303  0.0906
19049W        W34666   0.006   8.424   1.573 -0.1552  0.1684  0.2666
19050W        W34667  10.399   1.427  12.379  0.2230  0.1151  0.0886
19051W        W34668   6.587  17.502   0.458  0.4110  0.1707  0.0115
19052W        W34669   9.083  16.071   1.334  0.1637 -0.3429 -0.3647
19053W        W34670  16.466  12.430  15.550 -0.1431  0.0119  0.1813
19054W        W34671   5.979  12.876   0.930  0.1530  0.0807 -0.2940
19055W        W34672   0.362   9.430  16.573  0.3873 -0.2442 -0.1276
19056W        W34673   1.698  17.257  14.558  0.0247 -0.1145 -0.0682
19057W        W34674  13.071  15.235   1.060 -0.3189  0.2983 -0.2431
19058W        W34675   7.214   2.242  15.869 -0.0142 -0.2456  0.2972
19059W        W34676   9.692   8.577  12.556  0.0064  0.0372 -0.1659
19060W        W34677   3.220   2.398  15.988  0.1114 -0.3565 -0.2226
19061W        W34678  15.034  14.402   2.065  0.0309  0.1091 -0.2923
19062W        W34679   0.356  16.898   4.108 -0.2329 -0.0742  0.2168
19063W        W34680  11.464   2.304   6.352  0.2794  0.4138  0.0118
19064W        W34681   6.419   1.269  16.000  0.0753  0.1323 -0.4969
19065W        W34682  14.601  17.282  16.700 -0.0471 -0.1666 -0.0118
19066W        W34683   3.208   7.138  14.681 -0.3366  0.1733 -0.0601
19067W        W34684   4.438  10.527   4.987 -0.1664 -0.0559 -0.0515
19068W        W34685   9.998   1.300  11.431  0.0583 -0.3649  0.0923
19069W        W34686   1.387   5.603   5.610  0.2650 -0.1169  0.1674
19070W        W34687   7.445   7.385  13.338 -0.1141 -0.5613  0.0946
19071W        W34688  12.987  13.310   1.292  0.1947  0.2937  0.0614
19072W        W34689   8.822  13.907   3.069  0.0827 -0.1068 -0.2523
19073W        W34690  15.918   7.174   5.818  0.3668 -0.1370  0.1776
19074W        W34691   0.199   6.383  14.306 -0.1629 -0.0861 -0.0087
19075W        W34692   9.545   7.067  12.935 -0.1505  0.2288 -0.1012
19076W        W34693   3.320   4.130   5.816 -0.0535  0.3135  0.0610
19077W        W34694  10.416   1.261  16.279  0.3785  0.3894  0.2788
19078W        W34695  17.796   0.723  16.008 -0.2261  0.2069  0.2084
19079W        W34696   9.883  13.288   3.549  0.3302  0.1073 -0.1873
19080W        W34697  11.989  17.260  11.682 -0.1187  0.3456 -0.2259
19081W        W34698   0.228   7.864  12.564 -0.1664 -0.0879 -0.3031
19082W        W34699   3.684   2.724   4.387 -0.0865  0.0834  0.0150
19083W        W34700   5.068  12.877   2.653  0.0407 -0.1152 -0.0596
19084W        W34701  16.702  17.703   1.639 -0.1841 -0.0110  0.1587
19085W        W34702   8.462   5.026  11.421  0.0915 -0.0161 -0.1243
19086W        W34703   9.444   7.430  14.428  0.0060 -0.0811 -0.0636
19087W        W34704   1.107   8.107  13.733 -0.0941  0.0428 -0.0278
19088W        W34705  13.185   7.335   0.694  0.0837 -0.0590  0.1380
19089W        W34706   9.934   3.763  12.034 -0.1130 -0.2804 -0.1240
19090W        W34707   7.262   4.046   3.452  0.0362  0.0733 -0.1036
19091W        W34708   3.801   7.145   0.153  0.0458  0.1952 -0.2342
19092W        W34709  13.086   0.700  10.994  0.0485 -0.0993  0.2832
19093W        W34710  11.824   7.866   5.041  0.0272  0.3094  0.2595
19094W        W34711  11.476   7.177   3.520 -0.1784 -0.0942 -0.3014
19095W        W34712  13.300   6.321  13.841 -0.2584 -0.1829  0.4367
19096W        W34713  17.833   5.154   4.708  0.0213  0.0514  0.1955
19097W        W34714   9.436   3.085  14.433  0.4215  0.2469  0.2701
19098W        W34715  10.403   1.343  11.782 -0.3722 -0.0506 -0.0717
19099W        W34716   6.197   6.883   0.587 -0.1316  0.0876 -0.1052
19100W        W34717   0.735  14.456  13.285 -0.1453 -0.1291 -0.0761
19101W        W34718  16.641   1.644  13.456  0.2256  0.2919  0.5103
19102W        W34719   7.673   6.492   2.233 -0.2909  0.1446  0.2736
19103W        W34720  16.276   8.238   0.412 -0.1060  0.1630 -0.0536
19104W        W34721   6.649   6.079  15.759  0.1030 -0.2062 -0.3404
19105W        W34722   1.378  12.121  13.485  0.2236  0.0844  0.0221
19106W        W34723   1.487  12.756  11.824  0.0446 -0.1509  0.0880
19107W        W34724   2.901   5.998   0.354  0.0503 -0.0602 -0.1539
19108W        W34725   8.368   6.983   2.734  0.3897  0.0513  0.0625
19109W        W34726   8.240  15.968  12.117 -0.0182  0.1283  0.3234
19110W        W34727   7.887  10.703  11.650  0.0388 -0.0149 -0.3681
19111W        W34728  10.173  12.705  13.102 -0.0702 -0.2696 -0.0690
19112W        W34729  16.119   0.352  16.221 -0.0835  0.2484 -0.1932
19113W        W34730  13.026   9.193   0.378 -0.1842 -0.1504  0.0964
19114W        W34731  13.749   9.927  14.290  0.0397  0.0534 -0.4639
19115W        W34732   9.667   7.380   0.448 -0.1410  0.0989  0.0356
19116W        W34733   8.655  15.049   1.779  0.0236 -0.1013 -0.2894
19117W        W34734   7.648   2.599   5.277  0.0920  0.1125  0.0109
19118W        W34735   6.536  16.176  14.051 -0.0814 -0.2448 -0.2430
19119W        W34736   4.165   3.106  13.989 -0.1843 -0.0931  0.0865
19120W        W34737  13.081  15.337   2.272 -0.4059 -0.3322  0.1479
19121W        W34738   9.029   7.866  11.847 -0.1508  0.5571  0.0399
19122W        W34739  16.908   8.139  15.308  0.1526 -0.1466  0.0846
19123W        W34740   6.554   4.536  12.475 -0.1137  0.0086 -0.0224
19124W        W34741   1.434   2.413   1.793  0.2239  0.0037  0.3051
19125W        W34742   6.724   6.912   0.687  0.3108  0.0683 -0.3533
19126W        W34743   7.454   7.515  11.734 -0.0562  0.0969  0.2346
19127W        W34744   8.267   0.780   1.690 -0.1031 -0.3002  0.0175
19128W        W34745  13.330  16.877   0.283  0.0155  0.1308 -0.0258
19129W        W34746  10.030  11.275   4.584 -0.1535  0.0302  0.2285
19130W        W34747   7.504  11.987   4.558 -0.1684 -0.2019 -0.0246
19131W        W34748   6.170  12.201  15.151  0.2455  0.0873  0.1175
19132W        W34749   9.780   7.752   0.757 -0.2018  0.0374  0.1942
19133W        W34750  13.483   2.821   3.522  0.1190 -0.3794 -0.1483
19134W        W34751  14.547   9.498   4.006 -0.1535 -0.0383 -0.2527
19135W        W34752   4.533   9.459  15.675  0.0548  0.1615 -0.1694
19136W        W34753  12.874  15.270   0.605  0.0144  0.1524  0.1366
19137W        W34754   6.420   3.927   0.958 -0.1650  0.0138 -0.2213
19138W        W34755   6.945   4.533   2.664  0.1019 -0.2875 -0.0715
19139W        W34756   2.025   1.741   0.423 -0.2296 -0.0450  0.2037
19140W        W34757   7.752   0.772   1.035  0.2774 -0.3996  0.1885
19141W        W34758   4.100   6.318  13.496  0.1742 -0.3344 -0.2488
19142W        W34759   5.653   7.127  15.109  0.3556 -0.2098 -0.2933
19143W        W34760   4.814   8.150  15.161  0.0523 -0.0107 -0.3751
19144W        W34761  11.715   9.481  15.975  0.5006  0.1268  0.0341
19145W        W34762  13.732   5.046  15.704  0.2883 -0.0269 -0.0121
19146W        W34763  13.755   3.966  15.430 -0.0749 -0.1718 -0.2656
19147W        W34764   6.189  10.272  12.916  0.0782  0.2506 -0.0732
19148W        W34765   4.991   9.765   4.187  0.1590 -0.1449  0.2843
19149W        W34766   4.404  14.908   3.660 -0.0305  0.0398  0.2002
19150W        W34767  17.965  11.711   4.520 -0.3052  0.1589  0.0478
19151W        W34768  10.382   3.622   3.881 -0.1980 -0.0686  0.1941
19152W        W34769  17.394   6.521   1.627  0.2435 -0.0871 -0.2835
19153W        W34770   6.156   7.905  12.716 -0.1893  0.0412 -0.0717
19154W        W34771  11.705  13.155   0.386  0.0654 -0.1398  0.1580
19155W        W34772  16.630  17.272   3.129 -0.3605  0.2169  0.1647
19156W        W34773  15.360   5.638   5.541  0.0301  0.0945  0.3175
19157W        W34774   6.396   1.343   3.358  0.1050  0.2752 -0.0726
19158W        W34775  10.156  17.355  13.523 -0.1199  0.2171  0.0754
19159W        W34776   2.253   3.599   6.034 -0.1506 -0.0579 -0.1282
19160W        W34777   0.092   8.860  15.018  0.0425  0.1453 -0.0539
19161W        W34778   7.918   9.448  14.151 -0.2939  0.0282  0.0877
19162W        W34779   5.273   8.847   0.244 -0.3218  0.0817  0.0374
19163W        W34780  12.638   2.191   0.431  0.2867  0.0718  0.0418
19164W        W34781   5.903  10.164  12.382  0.0011 -0.1591 -0.3541
19165W        W34782  16.586   7.795  15.229 -0.3451  0.1640 -0.3077
19166W        W34783   3.375   4.194   5.082  0.0475  0.1405  0.0612
19167W        W34784  16.309  16.994   5.953  0.0415  0.1900 -0.5359
19168W        W34785  16.221   5.574   0.578 -0.1351  0.0851  0.0022
19169W        W34786   7.088   1.805  15.545 -0.1997  0.2305  0.1063
19170W        W34787   6.227  11.597   1.256 -0.2562 -0.1841  0.1358
19171W        W34788   0.290   5.654  14.971  0.1992 -0.1331 -0.1699
19172W        W34789   5.890   2.027   4.895  0.0210  0.1263 -0.1369
19173W        W34790  10.264   2.130  16.692 -0.0849 -0.1173 -0.0687
19174W        W34791   3.262  11.948  16.470 -0.1511 -0.0226 -0.0493
19175W        W34792   9.148   9.739  14.477 -0.1003 -0.0923 -0.2995
19176W        W34793  17.219   8.091   5.420 -0.0045 -0.1343  0.0013
19177W        W34794  11.303   5.238   3.613  0.0252  0.1151  0.0528
19178W        W34795  16.783  18.037   2.373 -0.0811  0.3015  0.1337
19179W        W34796   8.457  14.346   3.796  0.0845 -0.1470  0.0656
19180W        W34797  12.058   2.008  14.660  0.0843  0.2778 -0.1101
19181W        W34798   7.270   4.771   2.214 -0.2166 -0.1804 -0.1836
19182W        W34799   2.356   7.297   3.362  0.0764  0.0590  0.2311
19183W        W34800   9.703  17.125  13.839 -0.6200 -0.2156  0.1436
19184W        W34801  13.579  15.235  15.669 -0.1503  0.0662  0.2951
19185W        W34802  15.623  13.036  13.420  0.4676  0.2741  0.1821
19186W        W34803   5.250   2.490   1.536  0.1277  0.3314  0.1624
19187W        W34804  17.356   5.095   3.414 -0.1562  0.0165  0.1036
19188W        W34805  12.331   4.673  14.486 -0.1023 -0.2146  0.0199
19189W        W34806   7.699   6.835  15.801  0.1572 -0.0282  0.2078
19190W        W34807  11.920   0.083   3.785  0.3651 -0.1232 -0.0618
19191W        W34808   7.974  13.451   1.985 -0.4006  0.0458  0.0470
19192W        W34809  11.525  17.444  15.510  0.2996 -0.0463  0.0698
19193W        W34810  13.242   5.523  14.711  0.1858 -0.1891  0.2665
19194W        W34811   7.445  10.263   4.711 -0.3554  0.1144 -0.0189
19195W        W34812  11.314   1.222   2.795 -0.0253 -0.0508  0.0311
19196W        W34813  17.109   9.301   1.017 -0.0525  0.2285  0.0091
19197W        W34814  15.581  14.017   2.827  0.0011  0.0025  0.2461
19198W        W34815  14.318  11.343  13.074 -0.0410  0.2004  0.3409
19199W        W34816   4.109  15.430  12.116  0.0533  0.3465 -0.1275
19200W        W34817   4.468   9.631   2.411  0.0618 -0.0092 -0.1752
19201W        W34818   6.749   7.388   4.996  0.3755 -0.0922  0.0679
19202W        W34819   4.047  11.225  15.729  0.0205 -0.0472 -0.3716
19203W        W34820   4.288  15.060   5.289  0.1452 -0.1431  0.2435
19204W        W34821  10.211   5.654  13.935 -0.1179 -0.3025 -0.1602
19205W        W34822   3.582  13.893  16.679  0.1627 -0.1012  0.1950
19206W        W34823  16.494  10.921   4.641  0.2809 -0.1970  0.0487
19207W        W34824   9.061  17.285   3.849  0.2895 -0.1465 -0.0989
19208W        W34825  17.857   8.188  16.301  0.0247 -0.2344 -0.2322
19209W        W34826  14.726  16.279   2.618  0.2703  0.1882  0.0493
19210W        W34827  17.572  17.377  12.676  0.1300 -0.0562 -0.1500
19211W        W34828  15.440   9.243  12.556 -0.0021 -0.2440  0.0194
19212W        W34829   0.459   0.050  16.116 -0.2063  0.2371  0.4504
19213W        W34830   3.742  12.661  14.170  0.4956 -0.1649 -0.0241
19214W        W34831   2.185   4.003   1.279  0.0755  0.0551 -0.2420
19215W        W34832   5.679  17.719  16.458  0.0497 -0.2519 -0.0215
19216W        W34833  15.152  11.834  11.371  0.1697  0.1054  0.1601
19217W        W34834   0.916   6.670  16.158 -0.4258 -0.0181  0.0676
19218W        W34835   3.494  14.473   5.039  0.0686 -0.0988  0.0556
19219W        W34836  11.542  11.102  16.153 -0.3553 -0.2337  0.0268
19220W        W34837  13.411   3.374   1.923  0.0763  0.0685 -0.3107
19221W        W34838  17.051   7.921  13.208  0.0486  0.1621 -0.0250
19222W        W34839   4.363  11.070  13.625  0.0855 -0.0030  0.0848
19223W        W34840   4.338  10.130   2.853  0.2739  0.0083 -0.0381
19224W        W34841   4.078   2.406  12.646  0.2865 -0.2002 -0.2374
19225W        W34842   9.839  13.761  11.637 -0.1033  0.3219  0.2579
19226W        W34843   2.514   4.705  14.365  0.1906  0.0711 -0.5295
19227W        W34844  15.243  10.619   5.228  0.2062 -0.0220 -0.0281
19228W        W34845   0.934   0.751   0.446  0.1416 -0.2037  0.0940
19229W        W34846   9.309   1.845  11.570 -0.1324 -0.0562  0.0944
19230W        W34847   9.887  17.437  14.621 -0.1029  0.0366 -0.2755
19231W        W34848  17.813  16.964   6.005  0.0727  0.2110 -0.2464
19232W        W34849  10.448   9.896  11.921 -0.1053  0.3712 -0.1233
19233W        W34850   5.852  10.259   4.537  0.0495  0.3462  0.0302
19234W        W34851  14.467   2.336  13.359  0.0608  0.1400 -0.0138
19235W        W34852  10.394  12.988  15.231  0.1291 -0.2402  0.0661
19236W        W34853   5.433   1.855  12.734  0.1819  0.2322  0.1287
19237W        W34854   0.870   7.440  13.753 -0.0222 -0.1312 -0.1131
19238W        W34855   6.427   6.345   4.425 -0.0536  0.2090  0.1463
19239W        W34856   0.257   4.914   6.143  0.0594 -0.0691 -0.0947
19240W        W34857   7.388   5.284  14.023 -0.2601  0.3569  0.1102
19241W        W34858  11.643   5.491  13.487 -0.0259 -0.2878  0.0698
19242W        W34859   2.098   8.582   0.794  0.0498  0.0617 -0.0598
19243W        W34860  16.050   3.455   4.384  0.0615  0.1127 -0.1748
19244W        W34861  10.853  17.049  14.491  0.1416  0.1385 -0.2358
19245W        W34862   3.439  11.398  12.026 -0.1125 -0.0275  0.4695
19246W        W34863  16.455  13.564   2.398 -0.1852 -0.1146 -0.0898
19247W        W34864  16.719   9.605   4.795 -0.1051  0.1551  0.2141
19248W        W34865  16.674   8.611  12.797 -0.1819 -0.1125 -0.3031
19249W        W34866   8.314  13.721   1.638 -0.1619 -0.1588  0.1385
19250W        W34867  10.539   1.236   5.113  0.0631 -0.1825  0.0281
19251W        W34868  15.467   0.447  14.391 -0.2618  0.1184 -0.1686
19252W        W34869   9.988   5.108  13.898 -0.0558  0.0784  0.2781
19253W        W34870   3.869  11.267   4.610  0.1751  0.0644 -0.0993
19254W        W34871   5.327   5.079   5.931  0.1245  0.1182  0.3377
19255W        W34872  14.720  14.505  14.378 -0.2415  0.0122  0.0188
19256W        W34873   9.524   4.217   3.226  0.1688 -0.0814  0.1515
19257W        W34874   1.545   3.030   4.068  0.1892  0.1057 -0.0802
19258W        W34875   3.327   2.388  16.465  0.1565  0.3735  0.3054
19259W        W34876  12.798   7.963   2.386  0.2067  0.1419 -0.1071
19260W        W34877   7.009   2.418   2.045 -0.0011  0.1652 -0.2606
19261W        W34878  12.443   3.246  15.993 -0.0739  0.2285  0.0062
19262W        W34879  14.722   6.282   4.098 -0.0358  0.0493 -0.0538
19263W        W34880   5.083  15.969  13.551 -0.0091 -0.0828 -0.1541
19264W        W34881  16.281   0.731  12.639 -0.0492  0.1221  0.3340
19265W        W34882  16.293   4.724  15.223 -0.0436  0.0347  0.1276
19266W        W34883   9.645  12.949   1.467  0.1708  0.0666  0.0161
19267W        W34884   0.026  15.045   6.177 -0.0403 -0.4832 -0.0974
19268W        W34885   3.204  10.144  16.586 -0.2385  0.1627  0.0536
19269W        W34886   3.162  16.701  15.277  0.2153  0.1545  0.2054
19270W        W34887  12.515  13.314  12.105  0.3284 -0.0774 -0.0660
19271W        W34888   5.122  11.665   2.039  0.0505 -0.1602  0.1792
19272W        W34889  14.107  16.066  11.819 -0.0183 -0.0025 -0.0012
19273W        W34890   8.252   4.464  13.364  0.1193  0.0373 -0.1056
19274W        W34891   5.806  12.176  15.526 -0.3453  0.0883  0.2319
19275W        W34892   0.211   9.967  13.461  0.0867 -0.0141  0.1928
19276W        W34893  11.960  16.922  16.785 -0.1898  0.2475  0.4164
19277W        W34894   9.387  10.073   5.004 -0.2603  0.0460  0.1509
19278W        W34895   9.856   6.563   4.504  0.0059 -0.2358  0.1894
19279W        W34896  10.945  12.619  11.082  0.2244 -0.2559  0.0951
19280W        W34897   0.849  17.953  14.028 -0.3107  0.2081  0.2342
19281W        W34898  15.200   9.647   4.339  0.0136 -0.3065  0.2663
19282W        W34899   7.004   6.307  16.109  0.1438 -0.2896  0.1843
19283W        W34900   7.006  17.445   0.184 -0.0931  0.0383 -0.1411
19284W        W34901   2.744   4.605   2.945  0.3363  0.0043  0.1758
19285W        W34902  11.365   5.732   3.802 -0.1865  0.0652 -0.0037
19286W        W34903   6.007  15.410   0.573  0.0717  0.1645 -0.3746
19287W        W34904   1.878  15.472   1.786  0.1451  0.2117  0.0805
19288W        W34905  14.259   4.272   1.328 -0.1551 -0.3156 -0.0865
19289W        W34906  13.040  14.487  14.489 -0.1585  0.2064 -0.0340
19290W        W34907   3.349  10.512   0.512 -0.0596 -0.0809  0.0187
19291W        W34908  12.485   9.465   4.285 -0.2784  0.0235 -0.5150
19292W        W34909   1.623  16.993   0.209 -0.2674 -0.0300 -0.0234
19293W        W34910   9.364   6.204  15.222  0.1013  0.0902  0.2076
19294W        W34911   1.976   6.164   3.230 -0.3126  0.4015 -0.0851
19295W        W34912   2.664  17.374   2.366 -0.1102 -0.0069 -0.1058
19296W        W34913  10.939  15.877   3.576  0.2019  0.0530 -0.1588
19297W        W34914   8.668  13.102   2.347  0.1046 -0.4708  0.1501
19298W        W34915   8.519   4.427   3.525  0.0721  0.2753 -0.0036
19299W        W34916   8.453   9.990  16.455 -0.2321 -0.5227 -0.0610
19300W        W34917  10.880   1.130   1.616 -0.2577  0.0240  0.1859
19301W        W34918   5.349   7.953  13.352 -0.0938  0.0323 -0.0511
19302W        W34919  13.165  11.170  16.168  0.1590  0.1554 -0.0966
19303W        W34920  11.240  11.423   1.212  0.0438  0.0419  0.1729
19304W        W34921  11.108   2.677  13.988 -0.1375  0.3486 -0.2030
19305W        W34922  12.016   7.861  16.583  0.1057  0.0114  0.3810
19306W        W34923   2.050   8.515   5.688 -0.1983  0.1230 -0.0470
19307W        W34924  12.463  16.393   1.231 -0.0579  0.2251 -0.1090
19308W        W34925   3.556   7.246  14.273 -0.0159  0.1070 -0.0552
19309W        W34926  14.012   0.621   4.351  0.1373  0.4009  0.1015
19310W        W34927   0.315   3.882  12.054 -0.3388  0.4060 -0.3032
19311W        W34928   6.337   4.366  14.936 -0.0402 -0.1520  0.1292
19312W        W34929   7.614   3.104  13.132 -0.1393  0.0376 -0.0536
19313W        W34930   9.792   0.985   0.618 -0.1368  0.0261 -0.1687
19314W        W34931   4.715  15.288   5.362 -0.1666  0.1347 -0.3540
19315W        W34932   8.203   5.776  12.378  0.1080 -0.1171 -0.0501
19316W        W34933  14.607  17.232   4.427 -0.2370  0.1831  0.3211
19317W        W34934   0.154  11.168   2.701  0.2966  0.1952  0.1866
19318W        W34935   4.469   4.984   5.155 -0.0776 -0.1045  0.0656
19319W        W34936  14.213   2.607  12.705 -0.0626  0.1502  0.1073
19320W        W34937   3.663   3.400  13.137 -0.0057  0.1103 -0.2962
19321W        W34938   1.280  14.152  16.256 -0.1097  0.0870 -0.1670
19322W        W34939   2.053   4.142  16.046  0.0901 -0.1709 -0.0094
19323W        W34940   3.228   4.153  13.548 -0.1925 -0.3340  0.3396
19324W        W34941  17.478  13.883   3.761 -0.1681  0.2451  0.2281
19325W        W34942   5.238  10.345  16.701 -0.3172  0.1947  0.1107
19326W        W34943   3.807  14.988   2.972  0.2351  0.1225 -0.1128
19327W        W34944   7.808  11.090  14.541 -0.3252 -0.0582 -0.1516
19328W        W34945  14.636  17.937  15.645  0.0524 -0.0565 -0.0262
19329W        W34946  11.388  10.987  15.276 -0.0766  0.3042  0.4202
19330W        W34947  10.975  10.092  11.693  0.0829  0.2978 -0.1153
19331W        W34948  12.610   6.443   5.981 -0.0252 -0.3231 -0.2247
19332W        W34949   3.519  12.014   1.437 -0.0125  0.2825 -0.1122
19333W        W34950   0.910  15.532  12.612 -0.1651  0.2564 -0.1594
19334W        W34951   8.773   2.122   1.790  0.2837  0.1309 -0.0619
19335W        W34952   2.638  15.469   4.693 -0.2055  0.1020  0.1596
19336W        W34953  10.769  16.813   1.855 -0.0441 -0.0658 -0.1248
19337W        W34954   7.025  17.407  11.630 -0.0568  0.0554  0.0148
19338W        W34955  14.743   9.006   2.089 -0.0506 -0.1917 -0.0547
19339W        W34956   1.512   0.918  14.803 -0.2032  0.2586  0.1046
19340W        W34957  13.349   6.006   3.089 -0.0104 -0.2724  0.1330
19341W        W34958   1.431   0.241   1.924  0.1489  0.2923 -0.1054
19342W        W34959   4.513   6.416  15.855 -0.0934 -0.1723  0.0869
19343W        W34960   6.832   5.419  14.423 -0.2990 -0.5827 -0.0161
19344W        W34961  13.332   2.370  12.250 -0.0784  0.1162  0.3616
19345W        W34962  13.731  15.202   5.293 -0.4629 -0.0994  0.0678
19346W        W34963   7.848  13.337   2.964  0.2542  0.2101 -0.0756
19347W        W34964  14.722  14.069  11.767  0.1154 -0.0890 -0.1528
19348W        W34965   8.158  10.727   1.252  0.4162  0.1571 -0.2289
19349W        W34966   5.736  16.044  13.375  0.0272  0.0392  0.2619
19350W        W34967   2.841   0.608  11.581  0.2628 -0.1061  0.1468
19351W        W34968   8.630   1.939  12.360 -0.1755  0.0106  0.0472
19352W        W34969   9.703   4.162   3.733 -0.0769 -0.0660 -0.2189
19353W        W34970   6.879   1.676  13.999 -0.0117  0.2851 -0.0459
19354W        W34971   1.929   7.474  11.781 -0.1004  0.3592  0.2155
19355W        W34972   7.448  15.747  13.752 -0.0015  0.0860  0.2491
19356W        W34973   4.571  13.030  15.442  0.3318 -0.1275 -0.0975
19357W        W34974  17.055   3.691   2.663  0.0325 -0.1439  0.1678
19358W        W34975  14.923   3.624   0.377 -0.3189 -0.0151 -0.1148
19359W        W34976  12.648  11.507   5.425 -0.0502 -0.1642 -0.2618
19360W        W34977   4.113  17.613   2.003 -0.0282 -0.1081  0.0763
19361W        W34978  10.395  14.672  12.175 -0.0459  0.3439 -0.1670
19362W        W34979   5.775   7.435  11.420 -0.0869 -0.2080 -0.1033
19363W        W34980   9.602  12.382  15.064  0.0003  0.2306  0.2652
19364W        W34981   4.788  10.298  14.879  0.1012  0.0416 -0.0814
19365W        W34982  17.843   0.757  14.489 -0.2282  0.2426 -0.0702
19366W        W34983   4.032  15.437   2.692 -0.0404  0.0822  0.1308
19367W        W34984  12.909  13.331  15.326  0.2448  0.0376 -0.1890
19368W        W34985   0.876  16.757  16.746 -0.0114 -0.0572  0.0028
19369W        W34986  12.451  15.749  12.274 -0.2800  0.0388  0.2384
19370W        W34987   1.709   3.556   6.222  0.0042 -0.4972 -0.1256
19371W        W34988   0.924   9.114   1.059 -0.2161 -0.2227  0.5964
19372W        W34989   0.181   3.814   3.707  0.1401  0.1476  0.1737
19373W        W34990  14.440   6.677   2.357  0.0284 -0.1305 -0.0974
19374W        W34991  17.435  17.296   5.158  0.5017 -0.0012 -0.2790
19375W        W34992  11.564  14.936  11.743 -0.0733  0.2056 -0.2576
19376W        W34993  17.541  17.701   1.830 -0.0785 -0.0572  0.0008
19377W        W34994  11.118   0.764  15.846  0.2319 -0.2273  0.0728
19378W        W34995  12.050   3.519   0.965 -0.4215 -0.1963  0.1656
19379W        W34996   4.571  14.461   0.930 -0.0939 -0.3485  0.1604
19380W        W34997   3.469  10.835  15.046 -0.3437 -0.2264 -0.1599
19381W        W34998   3.425   9.237  12.966 -0.1508  0.2950  0.0319
19382W        W34999   2.419   3.823   2.539  0.1528  0.0632  0.2153
19383W        W35000   4.524  13.541  16.405  0.0734  0.2485  0.1063
19384W        W35001   4.207   2.451  11.626  0.0753 -0.0710 -0.0493
19385W        W35002   8.936   3.664  16.045  0.3437 -0.0979 -0.2378
19386W        W35003  10.787   8.829   1.571 -0.1168 -0.2178 -0.0277
19387W        W35004   7.523  17.245   5.670  0.2950 -0.0185  0.1387
19388W        W35005   3.046   7.807   5.932  0.1675  0.1419 -0.0183
19389W        W35006  11.333   7.164  12.717 -0.1285 -0.1456  0.0496
19390W        W35007   1.242  16.083  12.573 -0.1862 -0.0947  0.1222
19391W        W35008  14.050  15.933   1.475 -0.2032  0.1780  0.3085
19392W        W35009   8.717  13.762  13.369  0.0939 -0.1898 -0.0497
19393W        W35010   3.938  17.148   3.157  0.0398  0.3224  0.0406
19394W        W35011   5.102  13.610   2.281  0.0541 -0.2635 -0.3639
19395W        W35012   4.389   9.084   1.526  0.0021 -0.2644 -0.1837
19396W        W35013   5.621   5.496  14.121 -0.0322 -0.0160 -0.0309
19397W        W35014  14.472   0.479   2.739  0.0703 -0.1029  0.1295
19398W        W35015  16.250  16.511   5.921  0.3222 -0.0080 -0.0756
19399W        W35016   6.800  10.317  14.169  0.1733  0.0309 -0.0181
19400W        W35017  11.271  13.582   1.865  0.5762  0.1659  0.0767
19401W        W35018   9.321  17.100  13.533  0.1712 -0.1724 -0.2187
19402W        W35019   1.987   0.382   2.006 -0.0171 -0.0459  0.3644
19403W        W35020   9.058  10.455  11.191  0.3292  0.0578  0.1988
19404W        W35021   4.228  11.050   5.499 -0.0487  0.1617  0.3384
19405W        W35022  17.933  13.781   5.142 -0.0131 -0.1227  0.3295
19406W        W35023   3.853   4.267   1.856  0.2061 -0.1766 -0.0503
19407W        W35024  14.358   4.878  15.543  0.2230 -0.1471  0.1898
19408W        W35025  12.974  12.108   3.712 -0.2620  0.0497 -0.0580
19409W        W35026   3.709   4.468   1.019 -0.2619  0.4545  0.2894
19410W        W35027   9.872   2.661  15.655 -0.0796 -0.1976 -0.1706
19411W        W35028  14.902  17.027   0.361 -0.0853  0.0800  0.0813
19412W        W35029  13.977  11.099   4.708 -0.0135  0.2035 -0.4656
19413W        W35030  14.666  12.381   0.987  0.1004 -0.0122  0.0840
19414W        W35031  13.827  13.359  14.241  0.3470  0.1282 -0.0700
19415W        W35032  15.378  15.926   5.720  0.0595  0.1079 -0.1789
19416W        W35033   0.923  10.076  14.871  0.0316  0.3072 -0.4371
19417W        W35034  16.568   9.641   1.227  0.2379 -0.1726 -0.1657
19418W        W35035   7.113  11.551  14.654 -0.1942  0.0842  0.0539
19419W        W35036   6.771   0.556   1.352 -0.3643 -0.3197 -0.0027
19420W        W35037  11.870  13.154  12.299 -0.2885  0.1588 -0.0114
19421W        W35038  13.667  10.670  13.588  0.2171 -0.0238  0.1711
19422W        W35039   1.284  11.251  13.773  0.2129  0.0659  0.4991
19423W        W35040   0.910   0.249  11.690  0.1163 -0.3309  0.1395
19424W        W35041  11.413  14.877  15.604  0.1838  0.4574 -0.3612
19425W        W35042   8.019  12.229  11.216  0.4248  0.5104 -0.1230
19426W        W35043  17.893   3.417  14.085 -0.2063  0.2058  0.0981
19427W        W35044   2.978   9.188   0.018  0.0035 -0.0328  0.0695
19428W        W35045   1.491   8.613   1.703 -0.2786 -0.2621 -0.1367
19429W        W35046  16.695   5.130  15.679 -0.1963  0.1369  0.1802
19430W        W35047  11.913   6.599  12.041 -0.0947  0.1414 -0.1947
19431W        W35048  15.070  12.378  13.158 -0.4246 -0.0467 -0.0368
19432W        W35049  10.925  14.037   4.220  0.0910 -0.0597 -0.2782
19433W        W35050  16.100   4.228   4.334 -0.2655 -0.4387 -0.0822
19434W        W35051  13.332  13.547  14.673  0.3753 -0.2684  0.0629
19435W        W35052   7.495  11.989  12.998  0.0798 -0.0467  0.2302
19436W        W35053  12.979   4.898   5.130  0.2725 -0.0486 -0.2468
19437W        W35054  16.319   1.623   0.287 -0.0161 -0.0049  0.2092
19438W        W35055  17.103   4.449   3.881 -0.0229 -0.0754 -0.1598
19439W        W35056  15.334   2.825   4.084 -0.1335  0.0857 -0.0540
19440W        W35057  13.754   3.945   1.793 -0.0417 -0.0415 -0.1700
19441W        W35058  13.080   8.199  16.296  0.2005  0.0874  0.0252
19442W        W35059   4.483   0.431   3.592 -0.1179  0.3261 -0.1510
19443W        W35060  14.419  12.444  12.932  0.3238  0.1909 -0.2817
19444W        W35061  15.144  14.220  12.608  0.2141 -0.2552  0.0044
19445W        W35062   3.916   5.630   5.518  0.2541 -0.0184  0.0233
19446W        W35063  13.229   6.465   3.672 -0.1068  0.0268 -0.0387
19447W        W35064   8.528   1.906  11.768  0.1680 -0.1795 -0.2003
19448W        W35065   2.223  15.005  16.804 -0.0187  0.0249 -0.0053
19449W        W35066  15.823   3.574   4.843 -0.0672  0.0947  0.3751
19450W        W35067   7.114   6.745   1.930  0.0455  0.0886 -0.2331
19451W        W35068  12.305   0.619  14.561 -0.3287 -0.1605  0.2742
19452W        W35069   4.412   3.828   4.042 -0.1491 -0.0364 -0.1173
19453W        W35070  17.145   6.958   0.275 -0.1996  0.1852 -0.0260
19454W        W35071   4.197  13.611   4.924 -0.0832 -0.2604  0.1401
19455W        W35072   5.978   1.193   3.593 -0.2878 -0.1367 -0.0445
19456W        W35073   2.149   7.813   0.089  0.2271  0.0422  0.2345
19457W        W35074  17.396   1.232   0.263  0.3384 -0.0103 -0.1131
19458W        W35075   6.633  15.263   4.179 -0.0397 -0.1147  0.2112
19459W        W35076   3.170  10.706   5.101 -0.1676 -0.2583 -0.1057
19460W        W35077   2.536   7.088   4.211 -0.2933  0.1354  0.4293
19461W        W35078   3.312   6.988   0.251 -0.0193  0.3512 -0.0519
19462W        W35079   4.347   1.831   4.949  0.1267 -0.0944  0.1980
19463W        W35080   9.979   8.652   1.010  0.0060 -0.1632 -0.1227
19464W        W35081  14.331  16.548   3.199 -0.0163 -0.0331  0.1073
19465W        W35082   0.571  15.567   3.218 -0.4062 -0.0513  0.1631
19466W        W35083   8.649   4.073  15.559 -0.0395 -0.0606 -0.0501
19467W        W35084   2.446  12.923  14.425  0.4554 -0.2095 -0.0179
19468W        W35085   2.399   3.689   0.807 -0.1281 -0.1442  0.0451
19469W        W35086  10.740   8.179   4.027  0.0992 -0.1732  0.0468
19470W        W35087   2.862   6.751  14.614 -0.1564  0.1915 -0.2032
19471W        W35088  14.957  17.472   0.187 -0.0416 -0.0450 -0.1831
19472W        W35089   6.898   3.861   2.249 -0.1471  0.1276 -0.1473
19473W        W35090  11.479   6.437  11.380  0.3556  0.0989  0.0931
19474W        W35091  17.376   9.557   6.195 -0.2262  0.1876 -0.1073
19475W        W35092   7.093   5.266   3.001 -0.1334 -0.0136 -0.2665
19476W        W35093  13.059  17.734   5.692 -0.2852  0.1587  0.3379
19477W        W35094  14.628   3.939   3.800  0.2641 -0.0989  0.0141
19478W        W35095  17.257   5.216   5.185 -0.0536 -0.1971 -0.0709
19479W        W35096  14.451  12.493   5.357  0.1377 -0.0753  0.1237
19480W        W35097   1.142   5.565  11.940  0.4022  0.2400  0.0683
19481W        W35098  10.384   6.130  13.982  0.1727  0.0634 -0.0370
19482W        W35099  14.215   9.870  15.324 -0.1237  0.0036 -0.0342
19483W        W35100   7.931  10.352  12.475 -0.0001  0.0635  0.0619
19484W        W35101  10.331   7.511  16.674 -0.0187 -0.1234  0.3078
19485W        W35102   4.080   7.435   3.585 -0.2341 -0.3526  0.0127
19486W        W35103   5.283   5.472  11.049  0.0155  0.2161 -0.0157
19487W        W35104   3.476   3.744  12.374  0.1491 -0.2620 -0.2046
19488W        W35105   8.770  11.831  13.357 -0.0024 -0.0905  0.1139
19489W        W35106   5.678   6.571  12.726 -0.0027  0.0952  0.0033
19490W        W35107   2.570  16.964   0.531 -0.0847 -0.1161 -0.0679
19491W        W35108   8.527  16.431  12.803  0.3198 -0.1080 -0.2371
19492W        W35109   7.018   4.515  12.196  0.1518 -0.1460 -0.2833
19493W        W35110   2.162  10.169  16.018 -0.2871 -0.1832  0.3087
19494W        W35111  16.455   8.668   0.191 -0.1453  0.0541  0.2739
19495W        W35112   4.272  14.994   4.157  0.0659 -0.2083  0.0344
19496W        W35113   1.144  17.289   2.047 -0.2796 -0.0298 -0.1949
19497W        W35114   2.232   5.183   3.511 -0.2458 -0.2356 -0.2335
19498W        W35115   1.140   0.526   1.284  0.3968  0.2751  0.2715
19499W        W35116   1.450  17.111   3.676 -0.2160  0.0234  0.0285
19500W        W35117  11.750  11.554   5.395 -0.3559  0.0680 -0.2600
19501W        W35118  10.540  11.787   0.507  0.0995 -0.0391  0.0988
19502W        W35119  15.150  17.101   1.338 -0.0464  0.0564  0.2422
19503W        W35120   9.634  13.901   9.847  0.2549  0.0086  0.1279
19504W        W35121  17.042   7.412   3.168  0.1117 -0.0387  0.0009
19505W        W35122   8.070  13.082  11.918  0.1667 -0.0280  0.0110
19506W        W35123  12.540  13.288   0.943  0.1876  0.0224  0.3205
19507W        W35124   9.167  17.488  12.688 -0.1109 -0.0574  0.3492
19508W        W35125   9.965  15.491   2.326  0.3491  0.3539  0.0897
19509W        W35126  14.567   9.592   4.536  0.1838 -0.1645 -0.0056
19510W        W35127   8.188  14.640  12.766 -0.4703 -0.1058 -0.0817
19511W        W35128   7.836   2.386   4.431  0.3352  0.0961  0.1602
19512W        W35129  11.424  11.864   5.125  0.1793  0.4277  0.1808
19513W        W35130   8.695  11.624  11.884  0.1958 -0.0536  0.3082
19514W        W35131  17.824   9.177   3.691 -0.0184 -0.2013  0.1146
19515W        W35132   3.920   9.918  15.251 -0.1563 -0.0766  0.1267
19516W        W35133  10.436  10.106   2.392 -0.0218  0.1729 -0.0714
19517W        W35134   9.827  15.896  13.302  0.2079 -0.0626 -0.0200
19518W        W35135  12.243   1.914   0.882  0.0995  0.0251 -0.2063
19519W        W35136   5.580  14.621   0.481 -0.3956  0.0986  0.0964
19520W        W35137   6.472  17.646   3.718  0.0979  0.5386 -0.0945
19521W        W35138   9.801   7.403  16.755  0.4330  0.3326  0.1672
19522W        W35139  10.943  12.247   4.413  0.0697 -0.0127  0.1405
19523W        W35140  15.232  14.866  15.725 -0.1295  0.0600 -0.2766
19524W        W35141   3.894   7.375   2.252 -0.1152  0.0350 -0.3604
19525W        W35142  14.505   8.327  13.934  0.1880  0.0180 -0.0561
19526W        W35143  17.322  13.774   0.720 -0.0486 -0.1589 -0.0748
19527W        W35144   3.919   7.890   4.515 -0.1439  0.1406  0.1497
19528W        W35145  17.347  16.503   0.482  0.2388  0.1591  0.0316
19529W        W35146  14.297  12.294   2.781 -0.3438 -0.2189 -0.0600
19530W        W35147   7.232   4.349  14.283 -0.3307  0.2538 -0.2062
19531W        W35148  15.885  12.657   4.304  0.3648 -0.0996  0.0046
19532W        W35149  12.887   0.539  13.476 -0.0452  0.1288 -0.1012
19533W        W35150   0.780   0.105   0.562 -0.1183 -0.0640  0.4436
19534W        W35151   9.627  16.094   3.680 -0.1560  0.2779 -0.0847
19535W        W35152   5.897  10.302   2.131 -0.1245  0.1940  0.1065
19536W        W35153   5.448   7.328   5.492  0.1820 -0.1399 -0.1226
19537W        W35154  11.749   3.711  15.335 -0.1432 -0.1429  0.1044
19538W        W35155   7.787   2.238   4.930  0.0235 -0.2035 -0.0422
19539W        W35156   7.278   5.219  12.793 -0.1696  0.0012  0.0203
19540W        W35157   7.370   0.358  10.256 -0.1686  0.3098  0.0266
19541W        W35158   0.087   4.965   5.641  0.0157 -0.0890 -0.3321
19542W        W35159   9.910  17.521  15.668  0.2073 -0.1681 -0.2441
19543W        W35160   7.150   0.477  15.603 -0.1138 -0.2910  0.0401
19544W        W35161  12.505   0.865   4.952  0.0002 -0.3330 -0.0790
19545W        W35162  16.732   7.332   1.643  0.1844  0.2442 -0.0807
19546W        W35163  15.008  15.283   0.369 -0.0260 -0.0603 -0.0381
19547W        W35164  14.648   8.046  12.747 -0.3551 -0.2026  0.1939
19548W        W35165   7.718   1.738   3.739 -0.1592 -0.0642 -0.1068
19549W        W35166  14.150  14.467   1.040  0.0902  0.0527 -0.1431
19550W        W35167   4.163  14.368  12.143  0.3489  0.0978  0.0976
19551W        W35168  14.360  16.723   2.650  0.0850  0.0112  0.1209
19552W        W35169   7.219   2.547   0.002 -0.1492  0.0226  0.0186
19553W        W35170  13.632   2.842  16.404 -0.0788  0.1135 -0.1035
19554W        W35171  14.288   3.145  12.911  0.2739  0.2463 -0.1966
19555W        W35172   5.140  10.834   1.934  0.0115 -0.4301  0.1315
19556W        W35173  11.529   9.689  15.530 -0.1314 -0.2365 -0.0848
19557W        W35174  12.628   1.780   0.127  0.2439 -0.0949 -0.0467
19558W        W35175   8.406  16.592   2.002 -0.0522 -0.4488 -0.1217
19559W        W35176  16.342   5.376   5.558 -0.1137 -0.0236  0.2131
19560W        W35177  16.910  16.112  13.311  0.1587  0.3263 -0.2845
19561W        W35178   2.024   6.493  15.733 -0.2052  0.3134 -0.4110
19562W        W35179   8.539  17.291   1.531 -0.3565  0.0816  0.0719
19563W        W35180   8.353  13.242   3.947  0.0942 -0.3413 -0.1109
19564W        W35181   1.379   1.382  14.471  0.0457 -0.0996  0.0596
19565W        W35182   4.749  15.251  16.485 -0.0108  0.1472 -0.0161
19566W        W35183  12.016   7.679  15.488  0.0851 -0.3120  0.0379
19567W        W35184   8.661  13.943   0.247 -0.0164 -0.2252  0.1776
19568W        W35185   3.904  15.102  14.072 -0.1147 -0.1193  0.2399
19569W        W35186   7.341   7.977  13.246 -0.0987 -0.0869  0.0972
19570W        W35187   3.707   6.851  12.715 -0.0524  0.4167 -0.2746
19571W        W35188   5.454   5.010  16.731 -0.2460  0.0337  0.0308
19572W        W35189   4.695   1.230  14.284  0.1202  0.0169  0.2167
19573W        W35190   6.897   5.977   5.606  0.0222 -0.1083  0.1129
19574W        W35191   4.486   4.053  11.840  0.0376  0.1007  0.3889
19575W        W35192   8.173   9.224   1.059  0.0757 -0.2874 -0.0980
19576W        W35193   2.441   5.852  13.213  0.1206 -0.0395  0.0760
19577W        W35194  16.062  17.687   2.285  0.0257 -0.0893 -0.0203
19578W        W35195   6.578   1.210   3.824  0.1302  0.3179 -0.0654
19579W        W35196  11.037  16.899   3.516  0.0766  0.0648 -0.0943
19580W        W35197  14.623  14.821   4.509  0.0486 -0.3711 -0.2905
19581W        W35198  14.133   0.392   1.774  0.2062  0.0430 -0.1299
19582W        W35199   7.196   6.756   0.376  0.0520  0.1838  0.0590
19583W        W35200  12.736   6.599  14.682 -0.0708  0.3470 -0.0835
19584W        W35201   2.038   9.424   1.337  0.0062  0.2558  0.0535
19585W        W35202  12.160  16.216   5.235  0.3364 -0.2465  0.0489
19586W        W35203  12.953   5.127  14.466 -0.1043  0.0607 -0.1832
19587W        W35204   6.234   0.745   2.335  0.0762  0.2155 -0.0807
19588W        W35205  10.605   9.692  13.758 -0.0181 -0.0156 -0.0597
19589W        W35206  12.500   9.610  16.021  0.1567 -0.1220  0.4995
19590W        W35207   9.530  11.575   4.474  0.0152 -0.0342 -0.3755
19591W        W35208  15.152   1.958  16.450  0.1258  0.1037  0.2518
19592W        W35209  12.480   6.993   2.256 -0.1176  0.1903 -0.2333
19593W        W35210  16.437  12.442   1.587 -0.2190 -0.0426 -0.2457
19594W        W35211   9.322   8.807   2.856  0.1490 -0.2180 -0.3017
19595W        W35212   3.262  10.890   0.243 -0.0074 -0.0078 -0.0499
19596W        W35213  14.397  14.272   1.428 -0.0098 -0.1848  0.0279
19597W        W35214   5.920   2.939  13.386  0.5129 -0.1192 -0.1574
19598W        W35215  12.666  11.109  15.499 -0.1793  0.0522  0.2226
19599W        W35216   4.847  16.031  12.685  0.2121  0.0949  0.1801
19600W        W35217  10.480  12.512   1.439  0.1912 -0.0717 -0.1002
19601W        W35218   2.974  13.744   2.887 -0.1855  0.0269 -0.2329
19602W        W35219  13.529   8.717   3.396 -0.3965  0.2960 -0.0919
19603W        W35220   4.827   7.722   6.241  0.2062  0.1207  0.2058
19604W        W35221   6.625   4.823   0.196 -0.1592  0.2596  0.3066
19605W        W35222   5.026  12.171   1.245  0.0997  0.1096  0.1531
19606W        W35223   2.808  17.916   2.535  0.1368  0.1409 -0.2589
19607W        W35224   3.294   9.561  14.771  0.1454  0.1472  0.1511
19608W        W35225   0.695  17.740   3.671 -0.0243  0.1474 -0.3750
19609W        W35226  17.959  10.075   4.000 -0.1449  0.2427  0.1021
19610W        W35227   8.619   4.919   1.278 -0.0233  0.2262 -0.3006
19611W        W35228  15.697  13.391   2.932 -0.1141  0.1537  0.0273
19612W        W35229  17.920  10.192  15.831 -0.1515  0.3143 -0.3145
19613W        W35230   7.172  10.009   3.374  0.0570  0.1651 -0.1520
19614W        W35231   5.785  11.461  16.142  0.1257 -0.0921  0.1271
19615W        W35232   7.413  13.687   3.692 -0.1047 -0.0224  0.0680
19616W        W35233  16.487  13.893  13.939 -0.0569  0.2781 -0.0798
19617W        W35234   5.142  13.914   5.391 -0.0057 -0.1286 -0.0289
19618W        W35235  15.754  11.711   6.013  0.0467  0.3600 -0.0233
19619W        W35236   3.648  12.374   3.437  0.2891 -0.1186  0.0406
19620W        W35237   7.228   2.236  12.937  0.1585  0.0352  0.0152
19621W        W35238  17.407   3.825   6.005  0.1331 -0.2066  0.1242
19622W        W35239   3.961   8.475   3.078 -0.1619 -0.0447  0.2650
19623W        W35240  11.836   9.323   3.499 -0.0053 -0.1343  0.0792
19624W        W35241   8.933   9.098   1.766  0.2297 -0.1995  0.1304
19625W        W35242  13.283   2.706  12.691 -0.0481 -0.1205 -0.0055
19626W        W35243  10.641  14.611   3.899 -0.1311  0.0024 -0.1883
19627W        W35244  10.447   7.273   3.970 -0.1950 -0.0830  0.0138
19628W        W35245  13.272   4.004   5.575  0.3330 -0.1748  0.1579
19629W        W35246   0.249   9.636   1.914 -0.1364 -0.0804  0.2291
19630W        W35247   8.938  14.817  11.621  0.1165  0.2637  0.1919
19631W        W35248   2.615   7.094  15.496 -0.0938  0.2730 -0.1638
19632W        W35249   8.261  10.845  12.504  0.0544  0.2291  0.1019
19633W        W35250  15.934   8.465  15.188 -0.0603 -0.1271 -0.0671
19634W        W35251   9.713   9.102  11.321 -0.0913  0.1355  0.0026
19635W        W35252   9.310  15.591   3.963  0.1890 -0.1130 -0.1321
19636W        W35253   4.621  15.418   3.487 -0.0842  0.2246  0.3078
19637W        W35254   5.533   0.893   1.859 -0.2644 -0.0200 -0.1599
19638W        W35255   4.841   3.376  12.367  0.1901 -0.2566  0.1131
19639W        W35256  14.446   0.094  16.195 -0.0459 -0.0203  0.0769
19640W        W35257  17.340   5.626   0.804  0.4113  0.0976 -0.3880
19641W        W35258   7.520   2.862  15.208 -0.0308 -0.1398  0.1395
19642W        W35259   6.462   5.402   1.645  0.0350  0.1667  0.0686
19643W        W35260   9.437   4.948  15.992  0.1501 -0.2106 -0.0893
19644W        W35261  17.830   3.284   5.630  0.1874 -0.2130  0.0149
19645W        W35262  10.132  11.044  16.245 -0.2873 -0.2157 -0.0572
19646W        W35263  13.654   2.310   4.703  0.2106 -0.3828 -0.0568
19647W        W35264   4.007   6.893   3.345 -0.0731 -0.0110  0.0985
19648W        W35265   6.373   2.889  12.695  0.0267 -0.0814 -0.1818
19649W        W35266  13.019   6.583  10.974  0.0114  0.1565  0.0528
19650W        W35267   4.509   9.584   4.278  0.2112 -0.0194 -0.0212
19651W        W35268  17.302  17.956  15.709  0.0853 -0.0475 -0.0198
19652W        W35269   4.207   5.110  13.558  0.1678 -0.2081  0.0869
19653W        W35270   7.617   2.732   4.051  0.0397  0.2323 -0.3128
19654W        W35271  15.309   6.593  12.681 -0.0103 -0.0934 -0.0308
19655W        W35272   4.445   6.010   6.265 -0.0107  0.0154 -0.1374
19656W        W35273   4.207   6.465   4.671 -0.2887 -0.0861  0.3767
19657W        W35274  12.085  12.555  14.706  0.0427  0.4003 -0.1249
19658W        W35275  14.179   3.808   1.468  0.3949  0.3220  0.2650
19659W        W35276  16.890  12.770  15.365  0.1413  0.0543  0.2237
19660W        W35277  13.230   7.776   2.661  0.1244 -0.1662 -0.1048
19661W        W35278   5.579  14.765  11.685  0.1061 -0.0249  0.0230
19662W        W35279   0.530   8.827  16.624 -0.1120 -0.0375 -0.0377
19663W        W35280   7.803   9.152  14.499  0.3833 -0.2091  0.3303
19664W        W35281  10.054  11.425  15.895 -0.4577  0.1842  0.1600
19665W        W35282  14.190   7.110   5.149 -0.3276 -0.0007 -0.0877
19666W        W35283   5.052   8.599  15.127 -0.1515  0.0261  0.1393
19667W        W35284  14.702   1.610   2.472 -0.4863 -0.1471  0.1630
19668W        W35285   2.572   4.841  15.802 -0.0333  0.2991 -0.0314
19669W        W35286  14.586   0.731   3.550 -0.1387 -0.0912  0.4413
19670W        W35287  17.399  12.750  12.679 -0.0291  0.1651 -0.0083
19671W        W35288   3.889   1.700   5.150 -0.0692 -0.1438 -0.1612
19672W        W35289   9.398   2.865  15.822 -0.3986  0.0808  0.0005
19673W        W35290  11.260   6.657  15.634  0.0702 -0.2391  0.1802
19674W        W35291  14.693   9.004   3.903  0.5192 -0.0100 -0.0863
19675W        W35292   8.730  12.527   5.659  0.1605  0.1457 -0.1945
19676W        W35293  10.873   6.393  13.622 -0.1717  0.1829  0.0213
19677W        W35294  17.394   9.926  11.645  0.0485  0.2123  0.2529
19678W        W35295   4.784   7.732  15.467 -0.1514 -0.4680  0.2028
19679W        W35296  11.825  17.622  12.735  0.2099  0.1597  0.0795
19680W        W35297  11.429   8.190  13.926  0.0136 -0.2710  0.0727
19681W        W35298  15.640   3.072   1.889  0.1208  0.0361  0.0334
19682W        W35299  16.147   9.945   5.780  0.4296  0.2092  0.0548
19683W        W35300  15.722  15.234   2.397  0.1310  0.3309 -0.1786
19684W        W35301   0.804   9.128   2.261  0.1207  0.1033  0.1217
19685W        W35302  13.948   2.885   4.317 -0.1314  0.2061  0.0571
19686W        W35303   3.706  12.840  16.339 -0.1991  0.0789 -0.0638
19687W        W35304   7.648  15.418   5.778  0.1109  0.2269  0.1269
19688W        W35305   8.140   3.226   4.720 -0.2398 -0.3654 -0.1840
19689W        W35306  12.536   6.968  12.407  0.0648  0.0213 -0.2128
19690W        W35307  13.486   2.942   4.530 -0.2488  0.2658  0.0728
19691W        W35308   0.412   4.309  13.377 -0.1085  0.2133  0.0480
19692W        W35309   4.978   1.733  12.924 -0.2557  0.1872  0.0092
19693W        W35310   6.570   4.367  11.998 -0.0891  0.3273 -0.2652
19694W        W35311  14.839   5.362   6.004  0.0643 -0.0233  0.1089
19695W        W35312   6.691  15.793   1.707 -0.5710 -0.2304  0.4006
19696W        W35313   4.488  11.855   3.324 -0.1441  0.3265 -0.0722
19697W        W35314   8.681  13.145  14.274  0.1213 -0.1556  0.2434
19698W        W35315  16.254  16.910   1.701 -0.2619 -0.0963  0.1075
19699W        W35316   0.613  14.225  12.130 -0.0314  0.0691  0.0839
19700W        W35317   5.472   6.041   2.956  0.0617  0.2043  0.1776
19701W        W35318   6.960  16.864   0.110  0.1489  0.1050 -0.1584
19702W        W35319  16.534   3.286   5.548 -0.0558 -0.3502  0.0275
19703W        W35320   9.561   4.112  12.931 -0.2341 -0.1400 -0.1479
19704W        W35321   5.505   8.925  16.590  0.0388  0.0495 -0.1500
19705W        W35322   4.017   3.949   3.799 -0.1877  0.0245 -0.0080
19706W        W35323   4.320  12.957   0.097  0.0878  0.0472 -0.1312
19707W        W35324  12.383   3.859   4.112 -0.3580 -0.0448 -0.0134
19708W        W35325  12.879   5.961  16.339 -0.0929  0.0664  0.2436
19709W        W35326  16.375  10.259   3.049 -0.1124  0.2513  0.0925
19710W        W35327  14.638   8.548  13.511  0.0410  0.2605 -0.5257
19711W        W35328  14.983  11.867  13.645  0.0974  0.1450 -0.0399
19712W        W35329   9.321   7.201   1.329  0.0276  0.1426  0.1784
19713W        W35330  12.536   0.070  12.525 -0.3614 -0.3170  0.3738
19714W        W35331  16.754   2.476  12.464 -0.1275  0.1835  0.0095
19715W        W35332   7.742   1.814   0.935  0.3729 -0.3051 -0.0634
19716W        W35333   4.575   7.077   5.446  0.1976 -0.2317 -0.1983
19717W        W35334   0.153  13.705  14.511 -0.2314 -0.0958 -0.0117
19718W        W35335   1.571  14.503   4.852  0.1027  0.2297 -0.0518
19719W        W35336  15.040   8.465  11.559  0.2430  0.1150  0.0274
19720W        W35337   0.109   5.085  12.596  0.3136  0.0304 -0.2181
19721W        W35338   1.403   3.428  13.830  0.0900 -0.0304  0.0401
19722W        W35339   0.208  16.069  15.002  0.1903  0.5344  0.0096
19723W        W35340   5.223  16.374   5.195 -0.1698 -0.1182  0.0605
19724W        W35341  17.892  10.260   0.771  0.0664 -0.2433 -0.2422
19725W        W35342   6.910  13.063   2.873 -0.1512  0.2163  0.0330
19726W        W35343  17.258   4.527   4.831 -0.2697 -0.1083  0.2330
19727W        W35344   3.739  10.597   3.737 -0.0618 -0.2851 -0.1604
19728W        W35345  14.709   3.276   0.643  0.0154  0.3720 -0.2225
19729W        W35346   2.503   7.606  12.718  0.1959 -0.3906  0.2496
19730W        W35347   3.319  14.877   0.744 -0.1315  0.0406  0.0745
19731W        W35348   8.422  14.844  15.684 -0.0025  0.1113  0.0823
19732W        W35349   4.162  15.564   0.253 -0.2129  0.2315  0.0690
19733W        W35350  17.764  14.973  14.238  0.1682  0.2316 -0.2375
19734W        W35351  11.121  14.046  16.233 -0.0321 -0.0725  0.1797
19735W        W35352  15.258  15.456   5.485  0.3962  0.0982  0.2009
19736W        W35353   5.721  16.734   3.994 -0.0306  0.4402  0.2520
19737W        W35354   7.780   2.575   3.621 -0.3744  0.1218 -0.1452
19738W        W35355   1.746  10.793  13.571  0.2753 -0.3160 -0.2480
19739W        W35356   6.157   7.837   4.910 -0.2950  0.2083  0.2705
19740W        W35357   1.204   8.308   3.448  0.0715  0.0807  0.1267
19741W        W35358   6.470   4.373  16.044 -0.0823  0.0308  0.1092
19742W        W35359  12.623   3.013  13.940 -0.1409 -0.0271  0.1343
19743W        W35360   5.782   2.672   2.962  0.2726  0.0078 -0.2873
19744W        W35361   9.691  12.326  13.159  0.0648 -0.0178 -0.0790
19745W        W35362   3.085   8.911  11.987 -0.0587  0.0509 -0.0650
19746W        W35363  13.315   9.391   3.242  0.0751 -0.1787 -0.2699
19747W        W35364  12.469   8.665  14.204 -0.0726  0.1915 -0.3282
19748W        W35365  16.921   8.686  11.312  0.1135  0.1282 -0.0234
19749W        W35366   0.360  15.497  14.838 -0.0080  0.0595 -0.0821
19750W        W35367   3.953  17.084   1.904 -0.0363 -0.0197  0.1139
19751W        W35368   5.198   3.971  11.867 -0.1897  0.3678 -0.1571
19752W        W35369  13.542  18.003   3.861  0.0211 -0.1007 -0.2641
19753W        W35370  15.175  11.821  11.897 -0.1782  0.1273  0.0268
19754W        W35371   4.269  14.770  13.448 -0.0080  0.2686  0.0407
19755W        W35372   1.346   5.479   4.562  0.1036 -0.0623  0.0914
19756W        W35373   1.236  12.792   0.505 -0.1084 -0.0202  0.2279
19757W        W35374  13.894  13.537  15.475  0.2109 -0.2662 -0.0264
19758W        W35375   9.067  14.303  11.895 -0.0955  0.0212 -0.1464
19759W        W35376   9.662  14.137   2.537  0.0077 -0.1031  0.2390
19760W        W35377   0.754   1.020   4.038 -0.0335  0.0702 -0.1534
19761W        W35378  13.524  13.915  16.353  0.2330 -0.1977 -0.1838
19762W        W35379   0.567   6.665  11.993  0.1725  0.2270  0.1686
19763W        W35380   4.390   1.750   3.688 -0.2802  0.0581  0.1904
19764W        W35381  16.570  10.078   0.757  0.1291 -0.0834  0.1902
19765W        W35382   2.633   1.467  14.014  0.0976 -0.0936 -0.1165
19766W        W35383  16.751  11.670   6.912  0.0501  0.2117  0.3803
19767W        W35384  17.160  12.023   4.911 -0.0808  0.1701  0.3287
19768W        W35385   7.740   7.176  11.233 -0.3499 -0.1495  0.2949
19769W        W35386  13.472   9.585  14.574 -0.1524  0.0009  0.1459
19770W        W35387   7.693   2.607  14.310 -0.0614  0.1663  0.0571
19771W        W35388  17.827   8.020   5.278 -0.2179  0.0276  0.0037
19772W        W35389  15.006   1.163   5.573 -0.1297  0.0740 -0.1424
19773W        W35390  16.438   2.314   0.033 -0.0692 -0.0495 -0.1344
19774W        W35391   0.299   9.659   4.745 -0.2783 -0.0272 -0.1039
19775W        W35392  11.183   9.735   3.354 -0.0633  0.0439 -0.1651
19776W        W35393   2.486   5.372  15.437 -0.2605 -0.0576  0.1290
19777W        W35394   4.142   6.450  15.359 -0.1117  0.4451  0.1741
19778W        W35395  12.351   7.962   3.740 -0.0230  0.2355  0.0199
19779W        W35396   2.099   2.355   5.754  0.0210 -0.0117 -0.0772
19780W        W35397   3.726  12.616   5.077 -0.1271  0.2563  0.3095
19781W        W35398  13.357  11.283   1.457  0.0148  0.0890  0.1796
19782W        W35399   5.987   6.409   0.335  0.0884  0.1871 -0.0338
19783W        W35400  11.563  11.110   3.639  0.0837 -0.0496  0.0715
19784W        W35401  14.182   7.500  15.507  0.0412  0.1315 -0.2019
19785W        W35402   3.595   5.420  14.603  0.3813  0.2382 -0.0242
19786W        W35403  13.061   7.730   3.202  0.0384  0.0630  0.3323
19787W        W35404   9.847   5.424  13.499  0.2045 -0.3007 -0.0045
19788W        W35405  16.809   5.656   0.838 -0.1519 -0.3157  0.3188
19789W        W35406   3.898  16.595   1.854  0.0039 -0.1072 -0.0071
19790W        W35407   6.137  16.365  13.221 -0.1465 -0.2505  0.1688
19791W        W35408   8.044  15.205   3.692  0.1532  0.1160  0.3884
19792W        W35409   5.272   1.871  14.810 -0.3692  0.2818 -0.2244
19793W        W35410   1.276  15.611  12.277  0.0475 -0.2381  0.2742
19794W        W35411  16.683  15.833   4.392  0.4279  0.0016 -0.0124
19795W        W35412   1.056   3.974  14.419  0.1531  0.1428 -0.2383
19796W        W35413  16.722  11.321  15.528  0.2586 -0.0416  0.1939
19797W        W35414  10.810   5.221  16.571  0.1898  0.0782 -0.1337
19798W        W35415  13.388  15.970  16.722  0.2628 -0.0165 -0.0803
19799W        W35416   7.020  12.469  15.076 -0.0302 -0.1571 -0.0258
19800W        W35417  13.687  12.852   2.522  0.1957 -0.0903  0.1042
19801W        W35418  14.024   2.483  13.549  0.1728  0.1729 -0.1810
19802W        W35419  15.390   2.322  16.227 -0.2068 -0.1397  0.4283
19803W        W35420   6.008  10.792   4.302  0.0245 -0.1367  0.4233
19804W        W35421   8.476  14.044   4.392  0.2666 -0.1481 -0.2148
19805W        W35422   1.358   1.039   3.815 -0.2718  0.3793 -0.2295
19806W        W35423  16.812   1.838   1.452 -0.0955  0.0989  0.1528
19807W        W35424  16.255  11.213  12.060  0.1527 -0.3056 -0.3779
19808W        W35425  13.600  13.385   2.482  0.2724 -0.2907 -0.1182
19809W        W35426  13.841   3.808   5.887  0.1876 -0.1690  0.1755
19810W        W35427  15.570   0.983  14.610  0.0348 -0.1953  0.2622
19811W        W35428  10.315   4.177  14.520 -0.1987  0.2818  0.2261
19812W        W35429   6.647   3.793  13.862  0.1364 -0.0850 -0.1632
19813W        W35430  14.149   7.759   0.042  0.0172 -0.1033  0.3080
19814W        W35431   3.705  12.669   1.986 -0.0291 -0.1972  0.2028
19815W        W35432   7.365  17.035   0.403 -0.2162  0.1793  0.0824
19816W        W35433   2.788   1.990  14.526  0.0489 -0.0121  0.1432
19817W        W35434  10.615  14.593  11.720  0.1036  0.0208  0.0949
19818W        W35435   6.386  14.434  13.603 -0.0200  0.1395  0.1640
19819W        W35436   1.305   7.649  15.958 -0.1258  0.2045  0.0677
19820W        W35437  10.331  13.063   1.947  0.0695 -0.1328  0.1258
19821W        W35438  13.526   3.473  15.236 -0.0774  0.0626  0.1241
19822W        W35439  13.324   4.539  12.865  0.2482  0.3503 -0.2987
19823W        W35440   2.190  14.186  12.178  0.0766 -0.1484  0.2693
19824W        W35441   3.555   0.449  12.553  0.2745 -0.0198 -0.1968
19825W        W35442  12.451   5.402   4.757  0.2807 -0.0508 -0.0875
19826W        W35443  10.332   1.545   4.086 -0.0683  0.3985 -0.0530
19827W        W35444   5.621  12.828   2.344 -0.0271  0.1146 -0.2139
19828W        W35445   0.938   4.402  13.338 -0.1588  0.1705 -0.0727
19829W        W35446   8.945  14.354  10.967  0.2013  0.2502  0.1042
19830W        W35447   2.590   8.566  16.785 -0.0212  0.0622  0.0290
19831W        W35448  14.887  10.669  14.398 -0.0988 -0.0016  0.0186
19832W        W35449   5.854  10.943  14.818  0.1471  0.1137  0.0223
19833W        W35450   5.372   0.784   2.602  0.1630 -0.3341 -0.1160
19834W        W35451   1.215   6.108  15.332  0.0691 -0.0312 -0.0377
19835W        W35452   0.969  14.988   2.013 -0.2569  0.1522 -0.2168
19836W        W35453  11.235   6.545  13.968 -0.0678  0.3043 -0.2081
19837W        W35454   9.796   2.270  12.309 -0.1945  0.1913 -0.1638
19838W        W35455  11.394   3.532   3.548 -0.2122 -0.2679  0.0938
19839W        W35456  14.743   3.330   4.784  0.1034 -0.2304  0.1198
19840W        W35457  14.965   8.632  13.984  0.2448  0.1051  0.3046
19841W        W35458  13.700  16.660   4.399  0.0725  0.2378 -0.1646
19842W        W35459   4.091   0.880  16.069 -0.6012  0.2837 -0.0451
19843W        W35460   9.963  17.445   4.317  0.1191  0.1590 -0.2128
19844W        W35461   8.832  17.036  11.102  0.2545  0.1507 -0.5089
19845W        W35462  15.056   5.864   3.047  0.3746 -0.1659  0.1725
19846W        W35463   3.680   9.218  12.551 -0.0306  0.2301  0.0532
19847W        W35464   7.047   1.320  11.541  0.1314 -0.2145 -0.1690
19848W        W35465  10.690  14.603   4.499 -0.0585  0.1423  0.2552
19849W        W35466  10.449  16.322  11.545  0.2432  0.4858  0.0886
19850W        W35467   4.897   8.460   3.474  0.1494  0.0452  0.2281
19851W        W35468  10.494  14.806   0.287  0.0170  0.1521 -0.0282
19852W        W35469   5.376   8.498   5.470  0.1794  0.1534  0.1108
19853W        W35470  12.577   0.942   0.346 -0.0214  0.0851  0.0663
19854W        W35471   7.213  11.139   3.386  0.0856 -0.2502 -0.0589
19855W        W35472   0.901   2.594  12.549  0.0677  0.1282 -0.0514
19856W        W35473   7.901   6.734   3.021  0.0733 -0.3054 -0.0542
19857W        W35474   3.848   6.452   3.315 -0.0957 -0.2376 -0.1716
19858W        W35475  13.024  16.747  15.018  0.0297 -0.1420  0.0138
19859W        W35476  11.018   4.128  13.196 -0.1642 -0.1166 -0.2763
19860W        W35477  16.055  15.233   0.522  0.0617 -0.0642  0.0254
19861W        W35478   5.041  11.994   2.480 -0.2912 -0.1087 -0.2781
19862W        W35479  16.169  15.162  12.936  0.1467 -0.0569 -0.3230
19863W        W35480   0.938  17.642   0.733 -0.1526  0.0819 -0.0411
19864W        W35481   2.518   6.512  11.916 -0.5328 -0.0522 -0.0234
19865W        W35482  15.753   1.764   5.433 -0.1138 -0.1542 -0.3493
19866W        W35483   6.909   7.062  11.563 -0.1032 -0.2795  0.0121
19867W        W35484  13.733  15.484   4.897  0.1208  0.1021  0.1366
19868W        W35485   8.984  12.284   1.452  0.0723  0.0967 -0.0771
19869W        W35486   2.263   2.628  12.299 -0.2859 -0.0071 -0.1066
19870W        W35487   6.906  15.486  12.054 -0.2238  0.1113  0.2143
19871W        W35488   0.195  16.488   1.952 -0.2851 -0.0771 -0.0196
19872W        W35489   5.910   1.975  11.073  0.1455  0.6493  0.0605
19873W        W35490   6.687  15.964   3.707  0.2751 -0.3346 -0.1846
19874W        W35491  15.661  10.612   1.940  0.0427 -0.0190  0.0603
19875W        W35492   4.163   2.152   0.443 -0.0204  0.1808  0.2110
19876W        W35493   2.047   9.701  13.057 -0.3430 -0.0018  0.1065
19877W        W35494  16.834   9.114   2.964 -0.4106 -0.1933  0.1852
19878W        W35495   1.128   1.332  16.067  0.0914 -0.4204  0.1669
19879W        W35496   3.302   3.038   2.881  0.1948  0.0013  0.3064
19880W        W35497  17.411   9.370   3.401 -0.0075  0.0766  0.1659
19881W        W35498  17.638  15.681  11.197  0.2354 -0.0945  0.0278
19882W        W35499   6.569  11.914  15.189 -0.1058  0.0869  0.0241
19883W        W35500  13.614   9.833   2.253 -0.0992  0.1720  0.1833
19884W        W35501  17.949  14.103   5.848  0.1671  0.0783 -0.1027
19885W        W35502  13.123  12.487   0.991 -0.0642 -0.0395 -0.0750
19886W        W35503  14.837   8.819  11.229 -0.5210 -0.0238 -0.0792
19887W        W35504   3.900   2.851  15.914 -0.0159 -0.1519  0.2072
19888W        W35505   4.195  15.806  13.294 -0.1157  0.0862 -0.2883
19889W        W35506  15.763  10.158  12.289  0.4645 -0.1185 -0.1292
19890W        W35507   5.471   3.360   0.668 -0.0216 -0.3248 -0.0135
19891W        W35508  16.569   5.702   5.042 -0.2948 -0.2664  0.1823
19892W        W35509  13.495   5.195  16.209  0.0133  0.0724  0.1188
19893W        W35510  15.646   7.885  12.374 -0.0491 -0.0136  0.1099
19894W        W35511  15.568   1.246   5.551  0.0067 -0.0606  0.1632
19895W        W35512  15.895   9.643   5.248 -0.3105  0.0700 -0.0981
19896W        W35513   0.221  14.138   1.361  0.0797  0.3542  0.1951
19897W        W35514   4.860   8.024   5.415  0.3918 -0.0994  0.1175
19898W        W35515   6.515   6.398  13.559  0.1104  0.4657 -0.4448
19899W        W35516  15.430   7.795  15.740 -0.2304  0.1599  0.0907
19900W        W35517  16.268   4.128   6.209  0.0188 -0.1705 -0.1178
19901W        W35518  16.013  17.367  15.587  0.2636 -0.1411  0.0705
19902W        W35519  15.562   8.432   0.618 -0.2163  0.0462  0.0585
19903W        W35520   4.810   0.183   0.764  0.1014 -0.1364 -0.1246
19904W        W35521   2.834  13.688  14.053  0.1369 -0.0474  0.0101
19905W        W35522   2.341   6.221  12.734  0.0866 -0.0246 -0.0330
19906W        W35523   6.788  11.621   1.204  0.1242  0.1424 -0.1131
19907W        W35524  15.748   9.914   1.565  0.2081 -0.2703  0.1016
19908W        W35525   0.381   0.807   2.721 -0.2280 -0.0152  0.0313
19909W        W35526  11.757   9.047  15.578  0.3417 -0.0018 -0.0574
19910W        W35527   0.662   0.899  16.171  0.2165  0.1991  0.0279
19911W        W35528  16.561  17.309  12.592 -0.1996 -0.0871 -0.0102
19912W        W35529  13.325   0.832   5.025  0.1717 -0.1599 -0.0038
19913W        W35530  10.315   5.006   3.535  0.1029  0.0727 -0.0529
19914W        W35531   0.668  12.529  16.348  0.0987  0.1056 -0.0718
19915W        W35532   4.616   3.081  12.796 -0.3257  0.0219  0.2817
19916W        W35533   9.758  17.995  11.465 -0.1034  0.0869  0.0664
19917W        W35534   5.713   0.329   5.949  0.2562 -0.0932  0.1365
19918W        W35535   1.415  16.008  15.506 -0.1555  0.0242 -0.0718
19919W        W35536  10.410   0.501  11.964  0.0112  0.1742 -0.0781
19920W        W35537  10.279  10.084  14.134 -0.1520 -0.3437  0.1148
19921W        W35538  12.936  13.288   3.442 -0.1705 -0.2054 -0.1745
19922W        W35539  17.708   6.805  13.602  0.1132  0.1364  0.1647
19923W        W35540   0.773  17.569  14.366 -0.3464 -0.0763 -0.0054
19924W        W35541   3.408   8.041   2.638 -0.0242 -0.3062 -0.0972
19925W        W35542   6.152   9.010  15.692  0.2187 -0.0073  0.0521
19926W        W35543   3.327   3.937   2.432 -0.2578  0.2118 -0.1028
19927W        W35544   3.724  13.674   5.698 -0.1005 -0.3690  0.3108
19928W        W35545  17.039   1.279  15.348  0.1172  0.1798  0.0867
19929W        W35546   0.560  14.848   3.528  0.1818  0.2005  0.1259
19930W        W35547   9.143   4.631  16.353 -0.3354  0.2385  0.1551
19931W        W35548   5.088   7.024  12.683  0.2503 -0.1555 -0.1595
19932W        W35549   1.405   1.645  15.768 -0.3001  0.3046  0.1205
19933W        W35550  11.108  16.416  14.585 -0.0127 -0.3173  0.3109
19934W        W35551  13.926   7.153  14.931  0.0158 -0.0731  0.2075
19935W        W35552   2.687   2.300   2.750 -0.0555 -0.0132 -0.1006
19936W        W35553   7.933  15.571   5.333  0.1043  0.0886 -0.0522
19937W        W35554  17.915  13.325   0.851 -0.0239  0.0420 -0.2310
19938W        W35555  14.043   3.941   3.289  0.0094  0.0359  0.1629
19939W        W35556  16.937  12.297  15.387 -0.3223  0.0863 -0.1852
19940W        W35557   1.756  15.474   4.784 -0.1913  0.0996  0.0902
19941W        W35558   4.112  10.644   0.826 -0.2500  0.1157 -0.1408
19942W        W35559   8.357  11.354  16.476 -0.1836 -0.1451  0.2055
19943W        W35560   5.662  16.871  11.908 -0.2940  0.0004  0.1767
19944W        W35561   6.465  16.540  16.147  0.0444 -0.0110  0.0762
19945W        W35562  17.233  15.476  12.262 -0.0287 -0.0163  0.1499
19946W        W35563  11.133  11.488  11.460 -0.4308  0.0309  0.0668
19947W        W35564  10.900   3.858  14.018  0.2044 -0.0247 -0.0655
19948W        W35565  16.346   6.730  12.688 -0.3337 -0.0744 -0.2343
19949W        W35566  16.780  13.499   2.837  0.1942 -0.2869  0.1754
19950W        W35567  14.532   6.917   3.333 -0.2621  0.0776  0.0393
19951W        W35568  12.224   5.698  15.125 -0.2322 -0.0820 -0.3193
19952W        W35569  10.671  10.631  11.157 -0.2373 -0.3407  0.1730
19953W        W35570   2.631   7.702  14.377 -0.2254  0.1481 -0.2574
19954W        W35571  17.176   4.627   2.363 -0.0938 -0.0396 -0.2396
19955W        W35572   3.537   7.111   2.589 -0.0639  0.0186  0.2467
19956W        W35573   9.386   2.198  15.084 -0.2914 -0.0647  0.2297
19957W        W35574   3.868   1.576  15.940  0.0294 -0.2370 -0.3681
19958W        W35575   1.839   2.032   3.869 -0.1203  0.2707  0.0814
19959W        W35576  16.365  15.488  14.997 -0.4252  0.2648  0.1885
19960W        W35577  16.121  13.718   4.101 -0.0206  0.0037  0.0264
19961W        W35578   6.092   4.437  12.602  0.0140 -0.0801  0.4470
19962W        W35579   1.950  10.539  14.043  0.0855 -0.2244 -0.1346
19963W        W35580  16.220  13.482  16.567  0.1063 -0.0250 -0.3552
19964W        W35581  13.460  12.853  15.242 -0.0429  0.2073  0.1152
19965W        W35582  17.331  10.881   0.466  0.1124  0.0023 -0.0164
19966W        W35583   4.657   6.634  12.562  0.1929  0.0048 -0.0941
19967W        W35584  11.647  11.500   4.410 -0.1200 -0.3372 -0.0038
19968W        W35585   2.552  16.288   5.342 -0.1584  0.2229  0.0859
19969W        W35586  16.783  16.375   2.248 -0.1738 -0.2534  0.5415
19970W        W35587  10.565   4.949  11.527 -0.1910  0.1852 -0.1508
19971W        W35588  13.182  12.079   0.651  0.4144  0.1247 -0.2447
19972W        W35589  17.744  15.640   2.420 -0.0091 -0.0636 -0.0053
19973W        W35590   3.340  14.651  12.288  0.0621 -0.1116  0.1085
19974W        W35591  16.124  13.630   4.698  0.0792  0.0347 -0.2613
19975W        W35592  15.555   9.759   3.218 -0.0800 -0.3405  0.3706
19976W        W35593   9.414   7.036  15.794 -0.4357  0.0671  0.2653
19977W        W35594   1.600  17.092   5.116 -0.0677  0.0473 -0.0988
19978W        W35595   4.819  11.786  15.994 -0.0903  0.0931 -0.0276
19979W        W35596  15.063   0.370   1.658 -0.1276 -0.3770 -0.0959
19980W        W35597  10.042   3.227   3.808  0.2429  0.0995  0.2539
19981W        W35598  14.735  16.158   5.326  0.0134  0.1288  0.2084
19982W        W35599  14.258   8.147   2.116 -0.1299 -0.2998  0.3764
19983W        W35600   7.699  15.273  11.369 -0.0392 -0.1063 -0.0992
19984W        W35601  12.293   4.780   3.361  0.1234  0.1307 -0.2044
19985W        W35602   2.475   4.877   3.849 -0.0510 -0.1857 -0.3120
19986W        W35603  17.096   7.104  15.732  0.1141  0.3630  0.1156
19987W        W35604  12.870  10.680  16.225 -0.1203  0.0637 -0.3394
19988W        W35605   2.381  13.363  16.017 -0.0919  0.1267  0.4861
19989W        W35606  13.170   1.718  13.013 -0.1861 -0.3219  0.2318
19990W        W35607  11.565   8.740   1.629  0.0073  0.3698 -0.0130
19991W        W35608  15.875   5.672   3.959 -0.0252  0.0580 -0.2715
19992W        W35609  14.142   9.101  11.351 -0.5062 -0.2174 -0.3011
19993W        W35610  12.773  13.441  11.740  0.1367 -0.0852  0.0677
19994W        W35611   8.815   9.243  12.383  0.1205  0.1501  0.2531
19995W        W35612   0.876   1.599  15.120  0.1380  0.2194 -0.1360
19996W        W35613   0.224   9.884   1.479 -0.1042 -0.0000 -0.0509
19997W        W35614   7.984  13.668   2.493 -0.2143  0.1512 -0.1670
19998W        W35615  13.009   5.126  16.136 -0.1143  0.2046 -0.0060
19999W        W35616   3.324   0.705   2.618  0.0008 -0.0301 -0.1369
20000W        W35617  12.329   2.131  12.625 -0.0571  0.1656  0.1286
20001W        W35618  13.657   4.835   1.701 -0.0806  0.0466  0.2142
20002W        W35619   5.471   9.217  12.082  0.1311  0.1236 -0.3717
20003W        W35620   1.467  14.566  12.107 -0.0957  0.0281  0.0899
20004W        W35621   2.214  15.128   5.203 -0.2268  0.1178 -0.2040
20005W        W35622   7.083   6.629  14.359  0.0508  0.0362 -0.2607
20006W        W35623  16.445  17.010  15.616 -0.1527 -0.1079 -0.0435
20007W        W35624  17.111  11.607   1.413 -0.1849 -0.3606  0.0468
20008W        W35625   6.103  14.504  11.671  0.1835  0.3110  0.0599
20009W        W35626   4.701  13.852  13.790 -0.1984  0.0860  0.1690
20010W        W35627  15.624   1.951   2.823 -0.0305  0.0828 -0.1169
20011W        W35628  14.469  16.652   0.930  0.1476  0.1236 -0.2905
20012W        W35629   0.189   7.505   5.786  0.0383  0.0178  0.1698
20013W        W35630   5.691  13.126   1.897 -0.0851  0.0857 -0.0876
20014W        W35631  10.340  14.497   1.548 -0.1171 -0.4070  0.1816
20015W        W35632   6.558   0.746  11.453 -0.1733  0.1231  0.0704
20016W        W35633  11.974  15.786   3.587  0.0432  0.0975 -0.0957
20017W        W35634  14.736   4.082   0.533 -0.0923 -0.0968 -0.0584
20018W        W35635  15.589   1.918  15.844  0.1715  0.2388  0.1373
20019W        W35636  13.785   5.165  14.863 -0.2442  0.0309  0.0947
20020W        W35637   7.013   4.486  16.006 -0.1986  0.1693  0.0598
20021W        W35638  10.582   3.152  12.955  0.3800 -0.0501  0.2359
20022W        W35639   6.397  16.733   3.282 -0.0416 -0.0845  0.0304
20023W        W35640  16.724   5.057  12.574 -0.1615  0.1648  0.1261
20024W        W35641   0.376   7.882  15.251 -0.1560  0.1080  0.0633
20025W        W35642   0.590   8.175  11.585  0.0184 -0.2241  0.3425
20026W        W35643   4.913   9.497  12.614  0.0740  0.0250  0.0982
20027W        W35644  15.530  12.523   1.767 -0.0308 -0.2634  0.0263
20028W        W35645   0.640  12.919  14.034  0.1540 -0.0754  0.2082
20029W        W35646   3.313   4.518   2.968 -0.3059  0.2251 -0.0385
20030W        W35647   3.399   3.804   1.907 -0.2773  0.1493  0.1441
20031W        W35648   8.866  12.008   1.008  0.0273 -0.2356  0.0862
20032W        W35649   7.053   5.566  13.687  0.1439 -0.0763 -0.1024
20033W        W35650   9.470   1.876   4.000  0.1450 -0.0415  0.2748
20034W        W35651   8.267   9.231  11.091  0.0003 -0.1673  0.3855
20035W        W35652   6.773  15.525  16.008  0.1085  0.0152  0.0870
20036W        W35653   9.598  13.519   4.637 -0.1761 -0.0853 -0.1102
20037W        W35654   7.005  14.149   5.633 -0.2260 -0.0463  0.0290
20038W        W35655  12.833  17.708  12.496  0.1820  0.1227  0.1867
20039W        W35656   9.772   4.452  10.391 -0.1071 -0.0994 -0.3692
20040W        W35657   9.332  17.079   3.018 -0.1089  0.3163 -0.0608
20041W        W35658  17.203  14.123  12.628 -0.0644 -0.0355  0.2039
20042W        W35659   0.988  15.276   0.950  0.0796  0.0157  0.0410
20043W        W35660   1.860   6.609   0.727 -0.2821  0.1581  0.2307
20044W        W35661   2.615   6.538  15.785  0.0482  0.1262 -0.4928
20045W        W35662  13.184   2.412   3.381 -0.1038 -0.0245  0.0725
20046W        W35663   1.625  15.928   2.069  0.1679  0.0247 -0.0732
20047W        W35664   9.456   4.458  11.256 -0.2648 -0.4169 -0.4839
20048W        W35665   4.339  17.435   2.897  0.1036 -0.0429  0.0114
20049W        W35666   3.135   8.580   5.488  0.0744 -0.1210 -0.2225
20050W        W35667   0.917  13.782  16.282 -0.1350 -0.0576 -0.2073
20051W        W35668  17.673  11.655   4.022  0.1376 -0.4203 -0.1962
20052W        W35669   8.546   6.582  15.754  0.1966 -0.0179 -0.0885
20053W        W35670   3.221  10.241  12.136 -0.0667  0.1089  0.3553
20054W        W35671   5.882  12.246   2.857 -0.0840  0.1944 -0.1615
20055W        W35672   8.804  16.539  12.413  0.0935  0.1197 -0.1983
20056W        W35673  11.016  16.711   0.064  0.1666 -0.1892 -0.2084
20057W        W35674   0.719   3.144  14.297  0.0050 -0.0602 -0.0735
20058W        W35675  15.711  12.143  14.966  0.1567  0.2729  0.2728
20059W        W35676  12.750  15.411   2.639 -0.0700 -0.1724  0.1910
20060W        W35677   5.598  16.232   0.734  0.0702  0.1633 -0.5855
20061W        W35678  10.135  13.279   3.978  0.2937 -0.3785 -0.1353
20062W        W35679  12.146   0.892   1.259  0.1137 -0.2204 -0.0949
20063W        W35680   1.669  10.145   4.567  0.2487 -0.0101  0.0153
20064W        W35681  17.112   4.604   1.078  0.0869 -0.3256 -0.0029
20065W        W35682  13.864  17.745  12.126  0.0504  0.1988 -0.0620
20066W        W35683  15.240   4.658  13.380 -0.2406 -0.1458 -0.0624
20067W        W35684   8.137   6.581  13.880  0.0483 -0.3187  0.0198
20068W        W35685  12.627   5.488   6.253 -0.1811 -0.3917 -0.0019
20069W        W35686   0.650   2.973  15.179 -0.0255  0.3246  0.0694
20070W        W35687   0.632  15.881  14.550  0.1905  0.2645  0.0703
20071W        W35688   5.055  15.988   0.185  0.3536  0.2215 -0.0702
20072W        W35689   9.983  16.665  15.926  0.2892 -0.2741  0.2203
20073W        W35690   7.610   5.574   2.079  0.1872  0.4190  0.2056
20074W        W35691  15.959  15.935  11.757  0.0778  0.1573  0.1057
20075W        W35692  10.662   0.162   5.584  0.0824  0.3235 -0.0711
20076W        W35693   5.669   3.803  16.790  0.2603 -0.1802  0.0559
20077W        W35694   3.764  16.798  12.748  0.1500  0.3375  0.0555
20078W        W35695  11.918  16.752   3.417  0.0686 -0.0640  0.2677
20079W        W35696  11.388   2.264   1.082  0.2857  0.2989  0.1733
20080W        W35697   8.860   4.981   2.210  0.0430 -0.3238  0.2434
20081W        W35698  17.267  12.146   0.355 -0.0627 -0.0255  0.1393
20082W        W35699   1.017  12.439   2.174  0.1342  0.0783  0.0578
20083W        W35700  10.467  10.306   2.853 -0.0208 -0.1809 -0.0038
20084W        W35701   2.534   3.178  13.570 -0.1250  0.0014  0.2330
20085W        W35702  10.713  16.802   2.656 -0.2716  0.1314 -0.0890
20086W        W35703  13.533  12.843   3.863  0.3611 -0.0159 -0.1254
20087W        W35704   1.731  10.620  16.618  0.1105 -0.0210 -0.0599
20088W        W35705   9.521   4.172  15.442  0.0161 -0.0535 -0.1011
20089W        W35706  14.152  10.274  12.293 -0.1948 -0.1285  0.0514
20090W        W35707  17.935  12.032   6.488 -0.1329  0.3387  0.0205
20091W        W35708   3.964  14.801  11.491  0.1577  0.1277  0.2572
20092W        W35709  17.742  13.911  14.805 -0.1596 -0.1626 -0.4029
20093W        W35710   7.192   7.760  14.309  0.0105 -0.3213  0.3170
20094W        W35711  10.253  14.138  11.935 -0.0354  0.0713 -0.0551
20095W        W35712   6.793   6.862  15.466  0.1380 -0.2145  0.0723
20096W        W35713   1.946  14.089   5.026  0.0847  0.0842 -0.0726
20097W        W35714   0.987  10.162  15.427 -0.0442  0.1917 -0.2535
20098W        W35715  11.958  11.296   3.070  0.3433  0.2507  0.0420
20099W        W35716   4.168   0.183  13.056 -0.0244 -0.0824 -0.3583
20100W        W35717  12.869  10.770   4.773 -0.0197 -0.0681 -0.0557
20101W        W35718   8.617   2.708  11.484 -0.0459  0.0590 -0.0618
20102W        W35719  10.700  15.312   3.532  0.1511 -0.2090  0.1242
20103W        W35720  10.314   7.907   3.316  0.0829  0.1046  0.3118
20104W        W35721   8.100  12.113   5.694  0.2098 -0.1692 -0.0615
20105W        W35722   0.003  12.376   4.590  0.0095  0.1516 -0.1460
20106W        W35723   5.080  12.953  14.647  0.0070 -0.1542 -0.1291
20107W        W35724  14.593  11.908  14.171 -0.0966 -0.2838 -0.0262
20108W        W35725   1.415   6.903   0.640  0.2064 -0.0243 -0.1712
20109W        W35726  11.492  12.339  15.804  0.2072  0.1436 -0.3482
20110W        W35727   2.457  17.924  15.777  0.1376 -0.2417  0.2916
20111W        W35728   0.981   7.566   6.301  0.3841  0.0902  0.4080
20112W        W35729   4.171  17.852  12.184  0.0531 -0.0889  0.0295
20113W        W35730  15.475  16.501   5.800  0.3451  0.0624  0.1954
20114W        W35731   2.037  16.640  11.272  0.1822 -0.1404 -0.2554
20115W        W35732   0.296  13.875   5.752  0.0964 -0.3891 -0.3727
20116W        W35733  17.365   4.996   2.591  0.1722 -0.0196 -0.1043
20117W        W35734   6.139   0.225   5.013  0.0844  0.1823 -0.1163
20118W        W35735  16.849   5.276   6.348  0.1390 -0.0794 -0.0323
20119W        W35736  16.442   8.609   2.588  0.1327  0.0040 -0.1002
20120W        W35737  11.388   8.900  13.532  0.0094  0.0323  0.1994
20121W        W35738  17.621   0.262  12.174  0.1303 -0.0550  0.1048
20122W        W35739  11.345  16.963  15.319 -0.3517  0.2473  0.2038
20123W        W35740   9.870  11.831  11.544  0.0082  0.0018  0.2688
20124W        W35741  17.313   2.157   0.191 -0.0598 -0.2580  0.0800
20125W        W35742   3.325  17.007   5.317  0.0879  0.0424  0.0580
20126W        W35743  16.468  14.747   3.890 -0.1289 -0.1273 -0.0380
20127W        W35744  14.103   3.933  12.526 -0.3511  0.4725 -0.1805
20128W        W35745   6.490   4.168   2.021  0.1728  0.1664  0.0249
20129W        W35746  10.576   9.186   3.300  0.1130 -0.2697 -0.0026
20130W        W35747  13.665   1.321   2.024  0.1338 -0.0019  0.2849
20131W        W35748   4.795  16.016  11.274 -0.3568 -0.1614 -0.3341
20132W        W35749  15.165   6.605   5.974 -0.0695 -0.0309  0.0134
20133W        W35750   2.931  11.513   3.257  0.1975 -0.0331 -0.0406
20134W        W35751   9.508  17.824  15.030 -0.4362  0.0916  0.1760
20135W        W35752   7.570   4.216   3.861  0.1003  0.2390 -0.0633
20136W        W35753   2.552  13.123   6.380 -0.1184  0.4051  0.1221
20137W        W35754   0.803   3.579   0.282 -0.1384 -0.2189 -0.0418
20138W        W35755   2.903   3.814  15.869 -0.1470 -0.0986 -0.0580
20139W        W35756   9.840   5.123   2.380 -0.1044 -0.0592 -0.1773
20140W        W35757  12.537   4.726  16.680 -0.0717 -0.2218 -0.0575
20141W        W35758  17.282   9.373   6.682  0.2802  0.2476  0.1692
20142W        W35759  10.496   8.944  11.694  0.0444 -0.1438  0.2104
20143W        W35760  12.451  12.816  13.710  0.3350 -0.1216 -0.2119
20144W        W35761   6.000  15.738  16.344 -0.0278  0.0196 -0.3610
20145W        W35762   8.942   2.798  16.181  0.2649 -0.0875 -0.1413
20146W        W35763  17.465   8.159  13.477  0.0518 -0.1558  0.4492
20147W        W35764   2.804   9.436   4.649 -0.0055 -0.1001  0.1069
20148W        W35765   9.648   3.812  13.332 -0.1170  0.2679  0.2943
20149W        W35766  10.987   1.477  12.782  0.2910 -0.0929 -0.2801
20150W        W35767  10.166   9.397   3.051 -0.0997 -0.0470 -0.1140
20151W        W35768  10.873  11.104   1.948 -0.1379 -0.0631  0.0685
20152W        W35769   6.299   8.030  12.210 -0.0245 -0.3059 -0.3760
20153W        W35770  13.368   1.905   3.410 -0.0294 -0.0236 -0.0315
20154W        W35771  10.930   6.536   2.144  0.0178 -0.1715 -0.1794
20155W        W35772   4.942   4.969   1.077  0.2155  0.2283 -0.0389
20156W        W35773   3.473  10.484   1.881 -0.1780  0.2491 -0.2305
20157W        W35774   7.185   8.532   6.116 -0.0944 -0.1122 -0.5999
20158W        W35775  13.706   8.624  14.559  0.0086  0.1368  0.0072
20159W        W35776  13.023   7.016  16.377 -0.2375  0.0552  0.0119
20160W        W35777  12.203  14.415  14.914  0.2396 -0.0504  0.4056
20161W        W35778  15.758   5.641   0.807  0.0159  0.3830 -0.1468
20162W        W35779  15.937   3.712  14.798 -0.0040 -0.2051  0.1656
20163W        W35780  13.060  12.115   2.593  0.0264 -0.1356  0.2405
20164W        W35781   1.525   5.220   4.075 -0.0296 -0.1945  0.0408
20165W        W35782  10.835  11.742   2.186 -0.0720 -0.1526  0.2188
20166W        W35783  15.506  12.841  11.785  0.0948 -0.1368  0.0499
20167W        W35784   6.124   7.356  11.857 -0.0190  0.0001 -0.1246
20168W        W35785   6.525  15.368   4.922 -0.0991 -0.2135 -0.2032
20169W        W35786   0.235   1.911   4.277  0.1261  0.2212 -0.1061
20170W        W35787   3.546  15.544  14.459  0.0075  0.2808 -0.2498
20171W        W35788   2.135   7.898  12.914  0.0536 -0.3554  0.2364
20172W        W35789   1.363   2.706  14.627  0.1666  0.1429  0.1073
20173W        W35790   4.289   0.405  14.043  0.0545 -0.3692  0.0421
20174W        W35791   1.255   1.011   5.243  0.2516 -0.0064 -0.0300
20175W        W35792  16.490   2.622   1.822  0.0417 -0.2330 -0.0005
20176W        W35793   5.404  11.875   1.614  0.2567 -0.2655  0.1044
20177W        W35794  11.481  13.232  12.665 -0.0207  0.0795  0.1775
20178W        W35795   4.826   7.028   2.102 -0.2048  0.1173  0.1753
20179W        W35796  15.209  11.472  13.329 -0.1098  0.2472  0.1546
20180W        W35797   9.326  10.818  12.068 -0.0618 -0.2519 -0.3276
20181W        W35798  12.826  15.959  16.582  0.1198  0.2949  0.1816
20182W        W35799   4.271   4.646  13.523  0.1577 -0.2247  0.0780
20183W        W35800  14.116   0.313  13.530 -0.0988 -0.0305  0.0725
20184W        W35801   8.820   4.975  12.231 -0.3541  0.0614  0.0189
20185W        W35802   0.158   6.295   0.431  0.0320 -0.2377 -0.2862
20186W        W35803   4.528  11.446  14.745  0.2363  0.1782  0.0951
20187W        W35804   1.395   9.675  13.852  0.0279  0.1195 -0.0074
20188W        W35805   8.909  15.572   1.254 -0.2739  0.0496  0.1567
20189W        W35806   5.334   3.410   2.340 -0.0863 -0.0990  0.1296
20190W        W35807  17.165  14.247  13.557  0.0816  0.1179 -0.0572
20191W        W35808   6.514   2.894   0.872  0.2801 -0.0168 -0.0878
20192W        W35809   4.648   5.001   4.475  0.3612 -0.0188  0.0112
20193W        W35810  15.660   3.075   5.750 -0.1345  0.2811 -0.1226
20194W        W35811   4.804   4.729   3.028  0.0165  0.0618 -0.1996
20195W        W35812  11.287  12.942   1.009 -0.2647 -0.3770 -0.1586
20196W        W35813   2.708  15.936  11.815 -0.0253 -0.2132  0.0286
20197W        W35814  15.032  10.926   5.586  0.1330 -0.1319 -0.0731
20198W        W35815  10.959  10.162   4.853  0.2471  0.1897  0.1401
20199W        W35816   0.955   4.070   0.573 -0.1614 -0.0464 -0.1524
20200W        W35817  17.636  17.665   5.965 -0.2894 -0.1539 -0.1201
20201W        W35818   9.315   0.899   4.781 -0.0061 -0.0284  0.0170
20202W        W35819   0.518   6.898  16.049 -0.0665  0.2460 -0.0225
20203W        W35820   7.805  12.658  11.198 -0.0200  0.1067 -0.0539
20204W        W35821  15.387  11.753   0.293  0.1932  0.1817 -0.0760
20205W        W35822  16.366   6.364   4.205 -0.0504  0.1970  0.2329
20206W        W35823  11.385   0.718   0.054  0.1854 -0.1316  0.0344
20207W        W35824  11.140   6.328   3.033  0.2724  0.0304 -0.0725
20208W        W35825   7.722  13.462  12.526 -0.2981 -0.0867 -0.3033
20209W        W35826  11.695  11.049   2.009  0.1334 -0.2481  0.4699
20210W        W35827   4.398   5.367   5.532  0.1293  0.1967  0.2464
20211W        W35828   4.271  15.877   5.120 -0.1172  0.0729 -0.2038
20212W        W35829   8.137  13.760  16.281 -0.2799  0.0104  0.3153
20213W        W35830  13.221   9.462  15.437 -0.2514  0.2359 -0.1426
20214W        W35831   4.465   0.810   1.426  0.0968  0.3449  0.0555
20215W        W35832   7.660   9.298  15.029 -0.0128 -0.2500 -0.2527
20216W        W35833   8.363   7.683   4.533  0.2107  0.0532  0.2921
20217W        W35834   8.127  12.705  16.237 -0.0686  0.0255 -0.0226
20218W        W35835  11.240   4.672   3.480 -0.2326  0.0570 -0.0513
20219W        W35836  14.607   5.255   1.994  0.0965 -0.0452 -0.0408
20220W        W35837  14.820   3.993   3.054  0.2130  0.1495  0.1907
20221W        W35838   5.326  17.807   2.449 -0.2536  0.0433 -0.2415
20222W        W35839  10.726  11.157   3.995 -0.0939  0.0944 -0.2901
20223W        W35840  16.170   2.127   0.681 -0.4626  0.2626  0.1413
20224W        W35841  16.602   3.096   3.829  0.2856 -0.3929  0.0341
20225W        W35842  10.217   0.450  15.873 -0.0300  0.0112 -0.1096
20226W        W35843   4.673  10.570  15.294  0.4842  0.1007  0.0388
20227W        W35844   5.720  17.340  15.494  0.0631 -0.0742 -0.1788
20228W        W35845   0.344  16.687  14.419  0.1665  0.3593  0.2054
20229W        W35846   1.969   9.586   4.914  0.3595  0.1864 -0.0565
20230W        W35847   1.091  14.153  11.908 -0.0427 -0.3251 -0.1341
20231W        W35848  16.820   7.067  14.052  0.1723  0.1043 -0.0474
20232W        W35849   2.876   2.421   4.725  0.0645  0.0485  0.3439
20233W        W35850  11.992  13.359   5.405 -0.0360  0.3066 -0.1087
20234W        W35851   0.025   5.161   3.991 -0.3078 -0.0244  0.1415
20235W        W35852   1.026  17.106   2.482 -0.0381 -0.0411  0.1254
20236W        W35853   2.140   6.145  16.540 -0.1451  0.1820 -0.1940
20237W        W35854   7.822   3.550  15.902  0.2310  0.1555 -0.1674
20238W        W35855   3.902   7.876   5.330  0.0872 -0.1960 -0.2878
20239W        W35856   9.300   9.583   0.924 -0.0281 -0.2862  0.5397
20240W        W35857   5.193  17.233  11.714 -0.1188  0.2625 -0.1864
20241W        W35858   1.112  17.625   6.746  0.2515 -0.1787 -0.2124
20242W        W35859   4.830  14.587   3.607  0.1713  0.1211  0.1479
20243W        W35860  17.593   5.384   6.604  0.1031  0.2047 -0.4544
20244W        W35861  10.677   1.705  14.647  0.1657 -0.0820 -0.1947
20245W        W35862   5.405  15.954  16.666  0.1259  0.0430 -0.0047
20246W        W35863   2.144   6.756   3.257 -0.1066  0.1461  0.1771
20247W        W35864   3.079   4.774   4.894 -0.0713 -0.2321 -0.1312
20248W        W35865  12.039  10.998  16.568 -0.1901 -0.0998 -0.1045
20249W        W35866  16.590   3.549  12.376  0.0554 -0.1415  0.0633
20250W        W35867   3.410  11.043   1.728 -0.0286 -0.0192  0.2325
20251W        W35868  15.174   6.691   0.986  0.0625  0.1657  0.0596
20252W        W35869   9.016  10.658  16.518  0.0630  0.1750 -0.0234
20253W        W35870   6.464   3.825  15.045  0.0188  0.1304 -0.0376
20254W        W35871   2.934  10.825  14.290  0.2411 -0.0342  0.0209
20255W        W35872  17.353  18.050  14.695  0.2723  0.2312 -0.1821
20256W        W35873  11.000  15.943  11.373 -0.0086 -0.1264  0.2798
20257W        W35874   6.416   9.479  13.281  0.2767  0.1047 -0.2189
20258W        W35875  17.194  11.510   3.766  0.1267  0.0499 -0.1353
20259W        W35876  10.166  12.123   4.738  0.1117 -0.1086  0.1330
20260W        W35877   9.437   8.757  13.260  0.0237 -0.0022  0.3090
20261W        W35878   9.871   3.009   4.494  0.0700  0.1123 -0.0122
20262W        W35879  16.508   8.719   5.040  0.0948 -0.1126 -0.2210
20263W        W35880  11.016   7.756  15.414 -0.1948 -0.0882  0.0580
20264W        W35881   3.304   5.131   0.147 -0.0958 -0.0908  0.0004
20265W        W35882  17.814  14.458   1.277 -0.1751  0.0237 -0.1715
20266W        W35883   6.889  17.863   0.689 -0.1355  0.1053 -0.0187
20267W        W35884   6.873   7.967  13.508 -0.0968 -0.1503  0.1143
20268W        W35885   1.691   0.576   3.570 -0.0472 -0.0502  0.1330
20269W        W35886   1.201  12.847  12.257  0.0446  0.5924 -0.0479
20270W        W35887   6.039  14.021  14.812 -0.3808  0.0191  0.3111
20271W        W35888  13.972   9.485   1.296 -0.0051  0.0937 -0.2793
20272W        W35889  12.943  14.634  15.024 -0.0853 -0.1364 -0.1857
20273W        W35890   8.201   8.454  13.982  0.1704  0.1327 -0.3402
20274W        W35891  11.577   7.062  16.613 -0.2380 -0.2018  0.4528
20275W        W35892  11.355  10.778   5.968  0.2076  0.1671 -0.0831
20276W        W35893  13.130   9.323   0.831 -0.3596  0.1882 -0.0023
20277W        W35894   4.827   6.515   2.956  0.0667  0.0761 -0.1373
20278W        W35895  12.653  16.841   4.919 -0.1927 -0.2899 -0.0607
20279W        W35896   9.661   4.447  13.280 -0.0873  0.0661 -0.0640
20280W        W35897   0.074  11.618  16.110  0.1434 -0.2967  0.0288
20281W        W35898  15.202  13.472   3.739  0.1629 -0.0532  0.3526
20282W        W35899   9.116  10.757  13.949 -0.0341 -0.0560  0.1605
20283W        W35900   1.094   7.244   0.784  0.3331  0.2990 -0.4207
20284W        W35901   3.605   9.368   2.587 -0.1656  0.1573 -0.0151
20285W        W35902  14.153  13.520   1.332 -0.0276  0.0782 -0.2356
20286W        W35903  17.063  10.482  15.880  0.0449 -0.0724  0.0889
20287W        W35904  17.467   3.660   0.235 -0.3643 -0.1908 -0.1547
20288W        W35905   0.066  14.389   2.344  0.2175  0.1242 -0.0866
20289W        W35906   2.538  12.900   5.850  0.0609 -0.0619 -0.3166
20290W        W35907  17.997  15.884  13.953  0.0665  0.1521 -0.0855
20291W        W35908  11.552   8.467  15.339 -0.0207 -0.1703  0.2457
20292W        W35909  10.295  14.915  14.823 -0.1268 -0.1696 -0.0499
20293W        W35910   2.432  16.994  13.966 -0.2955  0.2270  0.0687
20294W        W35911   5.414   4.350   5.400  0.1138 -0.0986 -0.0062
20295W        W35912   5.995   7.601   6.106  0.1160 -0.2465 -0.0231
20296W        W35913  11.120  13.575  15.678  0.0408 -0.1468 -0.3306
20297W        W35914   1.258  17.791   1.840 -0.2087  0.0026 -0.2206
20298W        W35915  17.681   4.853  15.497 -0.1069 -0.1986 -0.1348
20299W        W35916   2.390   9.032   5.633 -0.0378 -0.0046  0.0889
20300W        W35917  15.675  14.412  16.219  0.0452 -0.0039  0.1206
20301W        W35918   3.573  15.970  12.221  0.0691  0.1322 -0.1748
20302W        W35919  13.723  17.647  16.070  0.2956 -0.0013 -0.0849
20303W        W35920  12.291   5.444  11.476 -0.0785 -0.1425  0.1153
20304W        W35921  10.594  12.475  13.266  0.2503 -0.2077 -0.0381
20305W        W35922   3.690  11.031   2.145 -0.0358  0.0335 -0.5012
20306W        W35923   5.106   6.472   0.140  0.0687 -0.0645 -0.0398
20307W        W35924   3.640   0.061  13.666  0.1028 -0.0896 -0.0174
20308W        W35925  17.242  12.143  12.316  0.1203 -0.4174  0.0870
20309W        W35926   3.758  14.180  15.503  0.1336  0.4487 -0.1301
20310W        W35927   5.727  16.778   5.727 -0.5203 -0.0976 -0.2907
20311W        W35928  14.151  17.161   2.372  0.4286  0.1613 -0.1268
20312W        W35929  17.421   6.595   5.557 -0.0560  0.1385  0.0121
20313W        W35930   2.965  17.537   1.595  0.0527  0.0003  0.3645
20314W        W35931   6.413  16.767   0.792 -0.1776  0.0111 -0.1306
20315W        W35932   7.259  13.877   4.505  0.0176  0.0746  0.2599
20316W        W35933  13.268   8.710   4.518 -0.0224 -0.1918 -0.1542
20317W        W35934  13.682  14.337  15.561  0.1650  0.1846 -0.1951
20318W        W35935   6.070  11.089  11.032  0.0327  0.0078  0.3092
20319W        W35936  15.870   3.051  11.901 -0.0659  0.1755  0.1759
20320W        W35937   2.920  17.208   4.489  0.0250  0.0450 -0.2827
20321W        W35938  13.516  15.181   2.666 -0.4632 -0.0361 -0.4394
20322W        W35939   2.872   1.731  16.761 -0.0503 -0.0713 -0.1366
20323W        W35940  13.713  11.367  16.773 -0.0080 -0.0887 -0.1066
20324W        W35941   4.665  15.618  11.518 -0.1315 -0.5523  0.3197
20325W        W35942  17.010  12.478   5.949 -0.0452  0.0278 -0.3083
20326W        W35943   3.742   6.390  14.476 -0.1116 -0.3721  0.2456
20327W        W35944  17.142   7.749  12.686  0.1166  0.0903  0.1031
20328W        W35945   7.524  16.219   2.907  0.2104 -0.2588  0.2481
20329W        W35946  12.219   0.086  14.690 -0.4729  0.3711 -0.2596
20330W        W35947  17.797   2.557  16.031  0.0543  0.4038 -0.4272
20331W        W35948   7.704   0.446  12.821 -0.2462  0.0125 -0.0669
20332W        W35949  13.463  12.053  14.682  0.0893 -0.2306 -0.2125
20333W        W35950   4.742  14.961  13.665 -0.3059  0.2885  0.0034
20334W        W35951  17.466  10.316   0.486  0.2178 -0.2654  0.0085
20335W        W35952  13.384  15.125   4.629 -0.0989  0.2698 -0.0303
20336W        W35953   7.278  17.243  10.507 -0.2280  0.0116 -0.2314
20337W        W35954  14.038   6.530   1.429  0.1787 -0.1825  0.1330
20338W        W35955   1.111  14.342  12.382  0.1191  0.2142  0.2213
20339W        W35956   8.429   1.633   0.817 -0.1484 -0.2618 -0.0682
20340W        W35957   8.290   6.836   3.991 -0.0145 -0.0365 -0.0247
20341W        W35958  16.991   2.869   1.102  0.1784 -0.4416 -0.2374
20342W        W35959  14.959  13.571  12.053  0.1622  0.0751 -0.1217
20343W        W35960  18.049   0.245  15.898  0.1221 -0.1068 -0.0198
20344W        W35961   7.669   6.487   1.241  0.2490 -0.1431  0.0697
20345W        W35962   9.990   7.427  10.250 -0.3295  0.0030  0.1824
20346W        W35963   0.276  13.589   1.209  0.1855  0.0219  0.0005
20347W        W35964   2.035   6.569   2.497 -0.1610 -0.2056  0.1505
20348W        W35965  16.506   3.414  13.862  0.1334 -0.1719 -0.2650
20349W        W35966   7.805  15.395   1.805  0.1881  0.2586  0.0392
20350W        W35967  14.770   0.281   3.687  0.1498  0.2754 -0.0021
20351W        W35968   2.956   0.774   5.312 -0.1886 -0.1814 -0.1869
20352W        W35969  15.469  12.443   4.582  0.4014 -0.2066  0.0299
20353W        W35970  14.076   7.982   6.206 -0.0576  0.0416  0.1306
20354W        W35971   9.660   7.159  11.489  0.0041 -0.0829 -0.0724
20355W        W35972  15.088   3.783  16.112 -0.0935  0.1718 -0.0093
20356W        W35973  15.680   6.963  12.671 -0.0053  0.0447 -0.0835
20357W        W35974   8.287  12.700   4.015  0.1847 -0.1153  0.0864
20358W        W35975   2.328   7.319  13.525 -0.1439  0.0093  0.0128
20359W        W35976  17.862   8.108  16.794  0.0392 -0.0901 -0.2096
20360W        W35977   9.425   4.576  12.661  0.2477 -0.1263 -0.2374
20361W        W35978   1.937   6.156  14.881 -0.3154  0.3009  0.2531
20362W        W35979  10.858  16.248   0.068  0.1876  0.2704 -0.1004
20363W        W35980   0.074   2.232   3.027  0.3138 -0.1930 -0.0781
20364W        W35981   0.726   9.666   4.017 -0.0227 -0.2006  0.1884
20365W        W35982  14.900   2.048  12.668 -0.1438  0.2917 -0.1641
20366W        W35983  16.075  10.128   5.306 -0.0298  0.1671  0.0172
20367W        W35984   4.006   1.324   1.850  0.0825  0.0348 -0.1190
20368W        W35985  13.428   7.681  15.730 -0.1120 -0.1113 -0.0707
20369W        W35986  13.122   0.168  14.237  0.0850 -0.1019  0.2234
20370W        W35987   9.033  12.481  16.273 -0.1353 -0.2170 -0.1172
20371W        W35988   9.293  17.908  13.999  0.1914 -0.0824 -0.1501
20372W        W35989   8.299   9.633   1.879 -0.0062 -0.0654 -0.3473
20373W        W35990   2.521   4.991  13.978 -0.1804 -0.1939  0.3101
20374W        W35991   6.130   2.484   2.101  0.2753  0.1410  0.0288
20375W        W35992   5.175   2.334  13.808 -0.1716  0.0589  0.1346
20376W        W35993   7.595  11.647   4.998 -0.3018  0.1259 -0.2780
20377W        W35994  17.760  10.538  13.698 -0.1063  0.0722  0.4444
20378W        W35995   9.579   7.808   6.325 -0.0387  0.2238  0.0618
20379W        W35996   8.995   2.011  11.944  0.0836 -0.0310 -0.0475
20380W        W35997  13.260   1.346  12.133 -0.1997  0.0427 -0.2181
20381W        W35998   6.374   0.183   2.655 -0.1088  0.2691 -0.0937
20382W        W35999   8.538  13.513  16.633  0.1803  0.2326  0.2930
20383W        W36000   8.465   7.458  11.754 -0.0830 -0.0102 -0.0404
20384W        W36001  12.860   8.638  16.442  0.1772  0.0124 -0.0282
20385W        W36002  13.216   3.799  16.221 -0.4861  0.0705  0.0193
20386W        W36003   9.734   2.059  12.755  0.0386  0.0218  0.2161
20387W        W36004   3.595   6.670   0.961 -0.0768 -0.0002 -0.1447
20388W        W36005   1.813   0.848   3.949 -0.1106 -0.0225  0.0731
20389W        W36006   2.833  16.630  15.663 -0.1460  0.0966 -0.0848
20390W        W36007  11.218  15.620  14.228  0.4510 -0.0544  0.3081
20391W        W36008  15.066   7.411   6.562  0.2089 -0.0650 -0.3014
20392W        W36009   7.597  15.948   5.780 -0.0851 -0.0722  0.0032
20393W        W36010  17.909   1.166  16.281 -0.0378 -0.0327 -0.1264
20394W        W36011  12.881  14.418   3.628 -0.1840  0.0548 -0.1322
20395W        W36012   8.221  10.302  11.484  0.1936 -0.2490 -0.1886
20396W        W36013   6.721   1.282   0.841 -0.2775  0.2295  0.1624
20397W        W36014   3.592   9.657   4.024 -0.0255  0.1861 -0.0616
20398W        W36015  16.281  15.784   4.816  0.1604  0.0455 -0.0772
20399W        W36016   8.583   4.916  15.577  0.2363  0.0715  0.1569
20400W        W36017  17.801  13.247  15.501 -0.2940 -0.1472  0.4033
20401W        W36018  12.600   0.814  14.968  0.0214  0.3900 -0.0960
20402W        W36019  11.235   9.005   0.926 -0.1736 -0.1822 -0.1605
20403W        W36020  16.653  11.728   4.868  0.4166 -0.2961 -0.1455
20404W        W36021  15.023  15.478   1.578  0.0385  0.0662  0.2443
20405W        W36022   8.259  15.584   1.869  0.0153 -0.1479  0.1381
20406W        W36023   2.762   6.690  15.197 -0.2394 -0.0126  0.1947
20407W        W36024  11.915  13.290  12.982 -0.3002  0.0502  0.1774
20408W        W36025   4.325  13.382  15.175 -0.1184  0.1117 -0.1474
20409W        W36026  16.491  15.237  11.780  0.3586 -0.3774 -0.1278
20410W        W36027  13.547   8.350   4.336  0.1010  0.0910  0.3055
20411W        W36028   1.423   1.094  15.770 -0.1652  0.1625 -0.2067
20412W        W36029  12.061   1.507   2.348  0.0699 -0.3018  0.0717
20413W        W36030   1.852  15.261  15.196  0.3448  0.2845  0.0824
20414W        W36031  16.825   9.761  14.642  0.0331  0.1889 -0.3311
20415W        W36032   3.511  16.697  16.778 -0.1449 -0.1258  0.1458
20416W        W36033   5.263   5.676  15.927  0.2226  0.1903  0.1217
20417W        W36034   7.467  12.835   0.887  0.0381  0.0432  0.0101
20418W        W36035   0.121   3.445   1.230  0.0249  0.1352  0.0153
20419W        W36036   6.577  15.481   1.234 -0.1254 -0.4005  0.1687
20420W        W36037   2.013  11.755   1.973 -0.0773  0.0914 -0.4679
20421W        W36038   7.001  12.746  12.578 -0.0043 -0.1267  0.0694
20422W        W36039   0.199   5.763   6.498 -0.2319  0.2450  0.2364
20423W        W36040  17.686   0.824   2.309  0.1424  0.2677  0.2231
20424W        W36041   1.442  13.680  16.092  0.1332 -0.0161  0.3237
20425W        W36042  17.073  11.155   3.363 -0.0591  0.0429  0.1440
20426W        W36043   0.402  17.116  12.544 -0.1210  0.2705 -0.2847
20427W        W36044   5.580   4.605  12.614 -0.0784 -0.0767 -0.1822
20428W        W36045  12.755  12.391   2.827  0.1166  0.0126  0.0393
20429W        W36046  12.922  14.657   0.879 -0.0895  0.1239  0.1939
20430W        W36047   3.003  10.058  14.715  0.3085 -0.0163  0.0071
20431W        W36048   4.125   6.109   2.937  0.2417 -0.0088  0.0242
20432W        W36049  10.479   7.683  14.898  0.3673 -0.1829  0.0098
20433W        W36050   6.108   8.241   2.470  0.0699 -0.1345 -0.0697
20434W        W36051   3.486  13.355   4.494  0.1765  0.2211 -0.0333
20435W        W36052  17.116   4.064  14.847 -0.1291  0.0549  0.2084
20436W        W36053  11.277   3.856  12.417 -0.2027 -0.0413 -0.3142
20437W        W36054  16.164   5.027  15.671 -0.1711 -0.1073 -0.2462
20438W        W36055   7.671  13.585   0.764 -0.0026 -0.1518  0.1370
20439W        W36056   3.762   5.942   5.167  0.0564 -0.1014  0.0204
20440W        W36057   4.987   7.445   4.004  0.0654  0.1364  0.4043
20441W        W36058   7.454  16.371  11.493  0.0353  0.3057  0.2654
20442W        W36059  10.465  10.771   3.076  0.1143 -0.3552 -0.0971
20443W        W36060   6.258   2.637   1.598  0.4404 -0.2785  0.1308
20444W        W36061   8.553   6.398   4.127  0.0957 -0.3054  0.4061
20445W        W36062  10.689  12.675   0.204 -0.0830  0.0131  0.0672
20446W        W36063   9.314  12.505  12.800  0.0243  0.0904  0.0576
20447W        W36064  10.419   0.897   1.261 -0.0169  0.1000  0.0336
20448W        W36065   0.563   1.102   0.860 -0.0838  0.1154  0.3109
20449W        W36066  15.314  16.535  12.550  0.4586 -0.0540 -0.3151
20450W        W36067  14.258   4.272   0.610 -0.2174  0.0054 -0.0588
20451W        W36068   1.965   9.330  14.548 -0.1330  0.0961  0.0444
20452W        W36069   3.566   9.025  12.093 -0.0463  0.0421 -0.0213
20453W        W36070   8.289   3.364  16.216 -0.1086  0.1662 -0.1977
20454W        W36071   2.067  15.869   4.113 -0.0921 -0.0348  0.0077
20455W        W36072  11.230  17.781  12.824  0.0250  0.2078  0.2039
20456W        W36073  13.534   2.426   0.863  0.1861  0.2018 -0.0397
20457W        W36074   2.278   2.056  11.777 -0.3317  0.3122  0.2030
20458W        W36075  13.075   1.492  13.849  0.0266 -0.1625 -0.1097
20459W        W36076  13.383   3.240  12.348 -0.1333  0.0885  0.0091
20460W        W36077  13.838   4.841  15.252 -0.0656  0.0623  0.0183
20461W        W36078  10.179   4.687   6.129  0.0416  0.0039 -0.0375
20462W        W36079  10.956  16.769   5.362  0.0547  0.0030  0.1113
20463W        W36080  11.417   7.952  14.604 -0.2437 -0.2614  0.0958
20464W        W36081   3.104   4.901   3.939  0.1857 -0.0776  0.2151
20465W        W36082   5.861  14.647   5.167  0.3494  0.0818  0.0459
20466W        W36083   6.307   0.547   3.044 -0.1738  0.1702  0.3369
20467W        W36084   3.610   8.608  13.686  0.3446 -0.3411  0.1638
20468W        W36085   1.480   8.065   5.242  0.0151  0.2294 -0.0824
20469W        W36086   2.602  12.984  13.577 -0.0272  0.1786  0.0244
20470W        W36087  15.523  14.289   0.488 -0.0253  0.1884 -0.4583
20471W        W36088   4.079  10.399   3.183  0.0846 -0.4060 -0.2775
20472W        W36089  12.474  12.246  14.589 -0.1187 -0.1813 -0.0342
20473W        W36090  12.280   8.004  11.808 -0.1056 -0.1509  0.1095
20474W        W36091   9.460  17.956   4.614  0.0302 -0.0664  0.0290
20475W        W36092  10.456  13.342   4.403 -0.0370 -0.0196 -0.3116
20476W        W36093  14.930   9.256  12.774  0.1171  0.0320 -0.1206
20477W        W36094   6.611   7.463  15.400  0.0366  0.1424  0.0017
20478W        W36095  12.040   1.531   4.677  0.2229  0.1933 -0.0033
20479W        W36096   0.611   2.979   3.209  0.0991  0.0711 -0.2401
20480W        W36097  12.427  16.021  14.363  0.0614  0.2608  0.1579
20481W        W36098   4.992   5.039   4.039  0.4117  0.0670 -0.0432
20482W        W36099   8.173  11.100  15.990  0.4037  0.1678 -0.1744
20483W        W36100   2.138   5.129  14.949 -0.0103 -0.0048 -0.2761
20484W        W36101   1.854  11.735  11.759 -0.3851 -0.0388 -0.0543
20485W        W36102   2.557   9.388   0.289 -0.2873  0.0868 -0.0350
20486W        W36103   5.222  12.086  14.227  0.0444  0.0363 -0.1445
20487W        W36104  15.113   9.780   6.269  0.0888 -0.2423 -0.1455
20488W        W36105   3.525   3.927  13.934  0.2905 -0.1606 -0.3258
20489W        W36106   4.022   2.985   4.822  0.1206  0.0141 -0.1214
20490W        W36107  13.004  10.323  14.825 -0.2257  0.2111 -0.2727
20491W        W36108  13.407   7.912  14.311 -0.1176 -0.2254 -0.0068
20492W        W36109  17.147  13.564   3.203  0.0231 -0.0711 -0.5856
20493W        W36110   7.579  12.419   3.154  0.1254  0.1627 -0.1990
20494W        W36111   7.402   4.105  16.046  0.1812 -0.1363 -0.1373
20495W        W36112   1.630  11.610   4.249 -0.2512  0.3515  0.3300
20496W        W36113   6.220  10.726   1.148 -0.1539  0.1189 -0.1619
20497W        W36114  12.115   2.104  15.183  0.0936 -0.2702 -0.1613
20498W        W36115   3.886  12.532  10.993 -0.1050  0.0721  0.0901
20499W        W36116  13.117  12.879   4.667 -0.0254 -0.1216  0.0627
20500W        W36117   4.166   8.643  15.706  0.0976 -0.0282 -0.2574
20501W        W36118   9.645   0.932   2.785  0.0023 -0.0925  0.0826
20502W        W36119  15.345  10.392  14.211 -0.0611 -0.2921 -0.0453
20503W        W36120  13.972   3.599  15.713  0.2073 -0.0132 -0.3695
20504W        W36121   0.847  17.485   1.681 -0.0264 -0.3893 -0.0041
20505W        W36122   4.194   4.315  14.254 -0.0067 -0.0099  0.0656
20506W        W36123  13.058  10.844   3.181 -0.2105  0.1239  0.2459
20507W        W36124  16.391   1.465  14.357  0.0853 -0.0904  0.0658
20508W        W36125   6.097   4.972  11.344  0.0018 -0.3765  0.2200
20509W        W36126   5.383   8.267  15.876 -0.2114  0.0229  0.0154
20510W        W36127  13.916  16.056  15.738  0.1282 -0.1627 -0.1385
20511W        W36128  11.985  12.462  16.098  0.3713  0.0116  0.1040
20512W        W36129  17.420   6.897   3.562  0.1585 -0.1112  0.0591
20513W        W36130  15.668   8.858  16.490 -0.1173 -0.1565 -0.2466
20514W        W36131  17.845  15.671   1.860 -0.1283  0.0697 -0.0210
20515W        W36132   5.280   3.820  13.716  0.0106  0.0572  0.1617
20516W        W36133  16.610  16.156   5.090 -0.0883 -0.2997  0.0140
20517W        W36134  14.356   5.394  14.458  0.1836 -0.0906 -0.1575
20518W        W36135  14.301   7.155   2.090 -0.1397 -0.0837 -0.0130
20519W        W36136   0.108   6.610   0.092 -0.0854 -0.0240  0.0307
20520W        W36137   2.951  15.610  12.956 -0.2447  0.1140  0.2774
20521W        W36138  14.971   0.554  15.473 -0.0560 -0.2459  0.1836
20522W        W36139   2.532   9.221  16.596  0.0037  0.1260 -0.1364
20523W        W36140   8.454  17.091   1.958  0.0316 -0.0704 -0.3117
20524W        W36141  12.988  13.717  14.317 -0.0610  0.1028 -0.1510
20525W        W36142   0.252   8.834   4.342 -0.3783 -0.4541  0.0670
20526W        W36143  14.403  15.676  10.773  0.2161 -0.0453 -0.0911
20527W        W36144  12.390  16.705  16.591 -0.1877  0.3525 -0.0523
20528W        W36145   0.547   1.103  14.062  0.0001  0.0630  0.0912
20529W        W36146   6.700  17.805  16.072  0.0162 -0.2151  0.0737
20530W        W36147   8.160  16.003  12.696 -0.0656  0.4728  0.2375
20531W        W36148  15.384   5.450   3.234 -0.1522 -0.0482 -0.0494
20532W        W36149  16.447  15.497   0.832  0.1342 -0.0056  0.1441
20533W        W36150   1.955  10.782   2.436 -0.1837  0.0802  0.0169
20534W        W36151  16.684  15.490  12.176 -0.1418  0.1440  0.0983
20535W        W36152   2.415  11.021   2.520  0.0949 -0.0389 -0.1366
20536W        W36153  10.731   7.132   4.337  0.1654 -0.1128  0.0664
20537W        W36154  16.908   1.669   2.945 -0.0964 -0.0111 -0.1681
20538W        W36155   2.970   9.805  15.127  0.2297 -0.1421 -0.2640
20539W        W36156   8.083   4.131  11.656  0.0609 -0.4006 -0.0906
20540W        W36157   8.988   3.894  14.293  0.1538  0.3188  0.1241
20541W        W36158   5.230   3.716   2.000  0.0502  0.0227  0.1646
20542W        W36159  17.308  14.707  11.728  0.3193  0.0634 -0.1983
20543W        W36160   2.525  16.756  12.766  0.0776 -0.3266 -0.4686
20544W        W36161  17.847   0.719  15.087  0.1164 -0.0827 -0.0654
20545W        W36162   3.709  12.216  16.323 -0.0949  0.2295  0.0964
20546W        W36163  11.304   5.025  16.432  0.3521  0.0117  0.1092
20547W        W36164   0.150   3.803  14.038  0.0936 -0.1569  0.1751
20548W        W36165  15.062   5.683  14.453  0.2373 -0.0883  0.1686
20549W        W36166   1.453   1.598  11.797 -0.3116 -0.0548  0.0693
20550W        W36167   5.697  11.711   4.059 -0.0431 -0.1592  0.0308
20551W        W36168   8.450   8.866   2.907 -0.2145 -0.3591 -0.1003
20552W        W36169  11.011   9.540   0.953 -0.0876  0.0145 -0.0828
20553W        W36170  14.201   6.665  12.084 -0.0853 -0.1093  0.0091
20554W        W36171   2.997  16.135   2.022 -0.0509 -0.1423  0.1976
20555W        W36172   6.050   4.594  11.723  0.2262 -0.0016 -0.0945
20556W        W36173  15.355   2.203  13.493  0.1377  0.1767  0.0733
20557W        W36174  10.490   7.371   0.374  0.1892 -0.6580 -0.2458
20558W        W36175   9.682   1.263  15.884 -0.0133 -0.0902 -0.0300
20559W        W36176   7.200  15.558  11.356  0.0341 -0.1486  0.0019
20560W        W36177   2.020  13.815  15.330 -0.1970 -0.3817 -0.1235
20561W        W36178   3.734  16.925   4.165  0.0650  0.0850 -0.2595
20562W        W36179   4.608  10.056  13.113  0.1094 -0.1546  0.2187
20563W        W36180   4.716  16.378   0.351  0.0991  0.0512  0.2100
20564W        W36181   7.860  10.019   0.886  0.2494 -0.0889 -0.2622
20565W        W36182  16.267   0.476   1.709  0.0444  0.3462  0.0446
20566W        W36183   8.294  16.787  15.100 -0.0312 -0.1064 -0.1701
20567W        W36184   1.871  13.546   4.390 -0.0003  0.0963 -0.0448
20568W        W36185  14.169   0.843  13.427  0.1261  0.0347  0.3443
20569W        W36186   4.592  11.072   2.674 -0.1704  0.1679  0.0823
20570W        W36187  13.444  12.782  11.839  0.1583 -0.2009 -0.3333
20571W        W36188   9.871  16.145  15.153 -0.0306 -0.3193 -0.1904
20572W        W36189   4.494   6.707   5.079  0.1926  0.0585  0.0468
20573W        W36190  15.026  14.374   3.865  0.0020  0.1750  0.0993
20574W        W36191   0.262   8.571   0.914 -0.1430 -0.0811 -0.2196
20575W        W36192   7.638   6.990   1.074  0.1939  0.0120 -0.1694
20576W        W36193  17.720  11.819   0.439 -0.0547 -0.0626 -0.0952
20577W        W36194   2.865  14.216   2.495 -0.0541 -0.1422 -0.2528
20578W        W36195   5.031  13.174  16.158 -0.3286 -0.0321 -0.2678
20579W        W36196   3.754  12.785  12.191 -0.2494  0.4455  0.0755
20580W        W36197   2.922   3.977   2.082 -0.0493 -0.0999 -0.0738
20581W        W36198  16.592   6.469   5.632 -0.1753  0.0584 -0.0845
20582W        W36199   2.832  14.672  14.668  0.1118  0.0939 -0.0049
20583W        W36200   5.846  16.766  13.611  0.1547 -0.0165  0.0345
20584W        W36201  15.372   2.706   5.905  0.0075 -0.0019 -0.2809
20585W        W36202   7.641   1.096  15.919  0.2911  0.0656 -0.2800
20586W        W36203  12.184   1.887   1.430  0.0306 -0.3021  0.1881
20587W        W36204  13.197   5.422  12.860  0.0518  0.4621  0.1539
20588W        W36205  13.847  15.014   0.479  0.2316 -0.1385  0.1242
20589W        W36206  16.228   2.288   5.845 -0.0440  0.1893 -0.1070
20590W        W36207  17.439   4.473   3.404  0.1215  0.0475  0.1245
20591W        W36208  16.379  14.168   3.475 -0.3380 -0.1077  0.1033
20592W        W36209  17.951   6.060  12.268  0.3160 -0.2396 -0.2494
20593W        W36210  15.825  17.684  15.996  0.1138  0.3025 -0.0006
20594W        W36211   6.499  11.647  14.790  0.4660  0.1625 -0.0447
20595W        W36212  13.944   2.707  13.992  0.0554 -0.2454 -0.2464
20596W        W36213  13.966   2.652   3.801 -0.0957 -0.2145  0.1227
20597W        W36214  13.014   2.173   1.286 -0.2372  0.1530 -0.1383
20598W        W36215   7.900   0.397   3.823  0.0275  0.1628 -0.0822
20599W        W36216  12.285  11.785   3.898  0.1840 -0.2390  0.1493
20600W        W36217  14.437  10.319   0.975  0.0422 -0.0820 -0.3371
20601W        W36218  10.113   8.254  14.386  0.0443 -0.0423  0.1944
20602W        W36219  15.063  15.189   4.536 -0.1462 -0.3416 -0.0359
20603W        W36220  15.133  15.624  15.132  0.2166  0.0798  0.1497
20604W        W36221  16.599   2.494   1.351  0.0903  0.2544  0.1636
20605W        W36222   1.284   5.488   3.674 -0.0663  0.2775  0.0021
20606W        W36223  15.213   1.848   4.611 -0.2491 -0.0296  0.2451
20607W        W36224   9.199   8.428   4.085 -0.2460  0.0046  0.0526
20608W        W36225   8.407   5.028   0.827 -0.2303  0.0927 -0.0664
20609W        W36226   9.352   7.835   3.015 -0.2643  0.1016 -0.0919
20610W        W36227   5.635  12.624   4.895 -0.1950  0.0706 -0.2638
20611W        W36228  17.145  16.885   4.483 -0.0159  0.1330 -0.1784
20612W        W36229   2.214   4.521   3.470  0.1304 -0.2826  0.2866
20613W        W36230   0.339   9.685  12.729 -0.1851 -0.0235  0.3134
20614W        W36231  15.839  15.762   6.039 -0.2030 -0.0540  0.0421
20615W        W36232   7.700   1.285   1.105 -0.0642  0.0742  0.0055
20616W        W36233  17.405   6.832  12.952  0.0748 -0.1464 -0.1154
20617W        W36234  17.327   7.906   0.576 -0.0406 -0.0957  0.2415
20618W        W36235   8.306  14.972  15.122  0.2239  0.5171  0.4552
20619W        W36236   0.584   6.360  14.648  0.1198 -0.0001 -0.1821
20620W        W36237  15.175   3.438   2.011  0.0558 -0.3001 -0.0014
20621W        W36238  16.922  17.491   5.276  0.1001 -0.0250  0.1009
20622W        W36239   0.066   9.229   4.715  0.1755 -0.0624  0.1503
20623W        W36240   8.304  16.433  12.238  0.1803  0.0200 -0.0503
20624W        W36241   3.564   5.083  15.316 -0.2550  0.2777  0.2757
20625W        W36242  12.341  17.638  12.546 -0.0073 -0.1940  0.1199
20626W        W36243   0.478  13.175   5.578  0.0951  0.0557  0.1417
20627W        W36244   0.882  17.816  12.084  0.1723 -0.0631  0.0874
20628W        W36245   5.947   2.894   5.084  0.3414  0.2182 -0.1346
20629W        W36246  11.174  12.405   0.427  0.1475 -0.0184  0.2384
20630W        W36247   4.997  17.215   4.828 -0.2160  0.2914 -0.0165
20631W        W36248   5.722  17.980   5.035  0.0078  0.0990 -0.0022
20632W        W36249  18.019  10.178   3.110 -0.2594  0.0249  0.1699
20633W        W36250  16.552   9.544   3.895 -0.1028 -0.1383 -0.0712
20634W        W36251   1.450  17.818   5.835  0.1998  0.0315  0.0283
20635W        W36252   3.920   3.772   1.944 -0.1364 -0.0477  0.0186
20636W        W36253  16.341   5.850   3.578 -0.1916 -0.1060 -0.1724
20637W        W36254  10.764  13.785   2.216  0.3098 -0.4878 -0.0574
20638W        W36255   8.688  13.385   1.773 -0.2914 -0.0668  0.4195
20639W        W36256   1.668  13.644  12.667 -0.1513 -0.2196 -0.1117
20640W        W36257  13.139  13.371  13.271 -0.3340 -0.1613 -0.0958
20641W        W36258  16.789   6.780  15.469  0.1272  0.4316  0.2956
20642W        W36259   2.173  12.319  12.287 -0.1366  0.2145  0.3253
20643W        W36260  10.280   0.757  15.506 -0.3318 -0.2098  0.0247
20644W        W36261  15.105   3.881   1.238 -0.6059 -0.0465  0.0721
20645W        W36262  15.548   2.694   5.411  0.0996 -0.0210  0.0167
20646W        W36263  14.611   2.686   1.882 -0.2185  0.0017  0.1279
20647W        W36264   4.055   0.221   2.656  0.0473  0.1615  0.0036
20648W        W36265  16.756  11.719   3.978 -0.0974 -0.0393 -0.0199
20649W        W36266  14.073  14.774   1.862  0.0573  0.2067 -0.3105
20650W        W36267  13.864   7.478   2.738  0.0942 -0.0914 -0.1321
20651W        W36268  14.527   4.741   4.824  0.0284 -0.1930  0.0754
20652W        W36269  11.685   1.952   1.552 -0.4315 -0.0428 -0.2239
20653W        W36270  11.447   0.030   3.683 -0.3293  0.0971  0.1930
20654W        W36271  15.148   4.388  16.447 -0.0034 -0.1566 -0.4328
20655W        W36272  13.941   5.391   2.757  0.1525 -0.5428  0.1430
20656W        W36273   3.457   2.989   3.774  0.0378  0.1556 -0.3997
20657W        W36274   4.757   5.726   1.819 -0.1721 -0.0723  0.1722
20658W        W36275   1.505   0.761   0.970 -0.1821  0.1866 -0.2282
20659W        W36276  15.792   6.100  11.705  0.1678  0.0379 -0.0543
20660W        W36277  13.387   3.034   1.346  0.0308  0.4177  0.0726
20661W        W36278  11.109  17.793   3.914 -0.5516 -0.1736  0.2185
20662W        W36279  15.260  15.460   4.123  0.0909 -0.1509  0.0848
20663W        W36280  12.355   0.760   4.461  0.0863 -0.3327 -0.1320
20664W        W36281  13.835  16.472  15.987 -0.0549  0.0985 -0.0418
20665W        W36282   9.042   8.933  12.030 -0.0785  0.0545 -0.1892
20666W        W36283   1.852  15.435   0.081  0.0367 -0.0322  0.2597
20667W        W36284   2.983   7.230   1.765 -0.4121 -0.2697  0.2008
20668W        W36285  15.391  11.718  15.021 -0.3112 -0.3199 -0.2606
20669W        W36286   7.011   0.703  14.109  0.2318  0.0766 -0.2350
20670W        W36287   1.336   8.286  16.747 -0.3205  0.2108 -0.0183
20671W        W36288   2.638   7.808  12.115  0.3395  0.2243  0.1366
20672W        W36289   4.160  11.793   3.852  0.1930  0.1072  0.2143
20673W        W36290   2.853  11.921  14.250 -0.1624 -0.0571  0.4861
20674W        W36291  13.761  17.989  12.571  0.1750 -0.2011  0.1355
20675W        W36292   2.427   5.531   3.071  0.0786 -0.0128 -0.2916
20676W        W36293  11.577   7.597  11.188 -0.0957  0.1084 -0.3529
20677W        W36294   2.620  10.848  13.340  0.0900 -0.2228 -0.2679
20678W        W36295   4.078   8.109   1.882  0.1361 -0.0585 -0.0181
20679W        W36296  13.537   4.009   1.242 -0.1693 -0.1203  0.1840
20680W        W36297  17.868  11.244   2.022  0.0015  0.4456 -0.1516
20681W        W36298  11.143   3.527  13.717 -0.0919  0.1280  0.3396
20682W        W36299   3.037  15.141   4.579  0.0144 -0.0178  0.0590
20683W        W36300  13.120  13.786  11.857 -0.1135  0.1292  0.0416
20684W        W36301   1.015  14.579   2.282 -0.0575  0.1653  0.0686
20685W        W36302   6.278   9.800  15.855  0.1743  0.0323  0.1260
20686W        W36303   7.615   4.336  13.921 -0.1034  0.2562  0.0147
20687W        W36304   4.992  11.377  13.182 -0.1982 -0.2099 -0.2039
20688W        W36305   7.541   8.584  13.879 -0.0402  0.1711  0.3239
20689W        W36306  11.687  14.859   4.148 -0.2260  0.0242 -0.0700
20690W        W36307   1.368   6.216   2.073 -0.0332 -0.0740 -0.0801
20691W        W36308  10.683   0.803   0.402 -0.0883 -0.3193 -0.0124
20692W        W36309  13.447   6.033  16.403  0.0554 -0.2657  0.0599
20693W        W36310  12.341  11.109  11.964 -0.2416  0.1083  0.0998
20694W        W36311  16.359   0.969   1.661 -0.0493 -0.0331  0.1603
20695W        W36312  17.075  12.670  12.318 -0.2653  0.1315  0.0850
20696W        W36313   7.952  13.834   1.088 -0.0392  0.0095  0.1591
20697W        W36314  14.532   2.044  15.858 -0.0658  0.2878  0.1670
20698W        W36315   6.396   4.734  12.906  0.1122  0.1235  0.1945
20699W        W36316   6.825  17.139   4.921  0.2789 -0.0696 -0.0809
20700W        W36317   6.522  10.153  16.052  0.3771 -0.2788  0.0296
20701W        W36318   7.305  17.155  12.579  0.2380 -0.0558 -0.1521
20702W        W36319   2.788   1.886   0.892  0.0445  0.0545  0.1379
20703W        W36320   3.551  14.830  11.132 -0.1885  0.5220 -0.1889
20704W        W36321   3.150  14.966   5.103  0.0345 -0.0569 -0.1589
20705W        W36322  11.057   0.604  13.303  0.0982 -0.3277 -0.3397
20706W        W36323  14.512   6.432   1.824 -0.2110 -0.0631  0.0323
20707W        W36324  11.321  15.560   2.175  0.2461  0.0404 -0.0536
20708W        W36325  10.115  13.242   2.992  0.2731  0.0496 -0.1869
20709W        W36326   6.839   0.171  14.810  0.1208 -0.0964  0.3035
20710W        W36327   1.365  17.913  12.289  0.0668 -0.0972  0.1687
20711W        W36328  14.721   6.823  15.094  0.2251 -0.2593  0.1200
20712W        W36329   4.671   3.056  14.129 -0.0352 -0.0750 -0.3682
20713W        W36330   6.518  12.948   1.116  0.1785  0.0552  0.0238
20714W        W36331  14.750  14.045   0.229  0.1713  0.0483  0.1870
20715W        W36332  14.729   4.986  15.021 -0.1380  0.1736 -0.2049
20716W        W36333  17.765   5.750  13.765 -0.1935  0.0196 -0.1325
20717W        W36334   6.294  17.944  11.844 -0.1351  0.1499  0.1729
20718W        W36335  15.370  13.869   1.502  0.0738 -0.2301  0.1489
20719W        W36336   3.203   8.151  12.838  0.0402 -0.0435 -0.2611
20720W        W36337  17.021   5.798  16.306 -0.2072 -0.0873 -0.1148
20721W        W36338  11.158   7.782   4.506 -0.0425  0.1411  0.2691
20722W        W36339   9.414   8.596   3.571  0.0946 -0.0336  0.1284
20723W        W36340   9.819   9.320  16.333  0.0541  0.0506  0.0315
20724W        W36341   7.633  16.668   1.750  0.0568  0.1377 -0.2947
20725W        W36342  14.477   1.665  15.491 -0.2685 -0.3951 -0.0615
20726W        W36343   1.822   6.179   1.700  0.0970  0.1966 -0.3129
20727W        W36344   4.989   5.120  14.085  0.1212 -0.2209  0.2359
20728W        W36345  11.152   8.786   2.487 -0.2678  0.0103 -0.0330
20729W        W36346  14.095   0.224  12.952  0.0541 -0.0275 -0.3434
20730W        W36347  15.232  15.333   3.236  0.0005  0.1667  0.0279
20731W        W36348  14.068  15.946   2.397 -0.1830  0.0105 -0.0744
20732W        W36349  12.091   1.582   0.091 -0.0248  0.2218  0.3906
20733W        W36350   5.939  16.643   0.479  0.0697  0.1259 -0.0041
20734W        W36351   5.852   5.449  13.662  0.0380 -0.0226 -0.2082
20735W        W36352   2.420   4.191  14.536 -0.0691  0.3331 -0.2604
20736W        W36353  10.625   2.778   4.430 -0.1736  0.2825  0.3990
20737W        W36354  14.030  16.585   5.987 -0.0879 -0.0208 -0.2015
20738W        W36355  14.925   3.430  12.073 -0.0976  0.0437 -0.0113
20739W        W36356  17.126   9.401  14.170  0.1720  0.2625 -0.1160
20740W        W36357   9.847  10.935  12.713  0.1013 -0.4859  0.0267
20741W        W36358  14.619   5.277  15.421  0.0077  0.1276  0.2512
20742W        W36359   7.090  15.519   5.658 -0.0681 -0.0023 -0.3526
20743W        W36360  17.875  15.277  16.024  0.0518  0.1881 -0.0383
20744W        W36361  12.472   9.204  14.233  0.1900  0.2886  0.1704
20745W        W36362  15.607  14.413   0.998 -0.0303 -0.1724  0.2815
20746W        W36363  14.264   5.173   3.051 -0.1550 -0.0498 -0.1792
20747W        W36364   5.992   6.398  13.734 -0.2752  0.1834 -0.2693
20748W        W36365   1.824   9.824  16.536 -0.1890 -0.3322 -0.3797
20749W        W36366  17.031  13.936  15.468  0.0728 -0.0545  0.0715
20750W        W36367  13.241   8.231   4.800 -0.2203 -0.2766  0.0608
20751W        W36368  14.797  10.039   0.783 -0.0842 -0.0176 -0.0694
20752W        W36369  10.120  18.030   2.883  0.0076  0.1051  0.0412
20753W        W36370   7.740  13.586  12.081 -0.0869 -0.1376 -0.0547
20754W        W36371   6.145  16.346   0.901 -0.0902  0.2921 -0.0181
20755W        W36372   4.389  16.795  10.705 -0.2074 -0.0278  0.1689
20756W        W36373  14.573   3.149  16.481  0.1081  0.1709  0.1434
20757W        W36374  15.523  11.425  16.102 -0.0174  0.1957 -0.1992
20758W        W36375   4.124  10.888  12.032  0.0647  0.0607  0.3308
20759W        W36376   6.359   1.640   0.425 -0.0438 -0.0411 -0.1087
20760W        W36377  17.292   7.878   1.367  0.0610 -0.1716 -0.1115
20761W        W36378  15.064   8.913   0.917  0.2305  0.0066 -0.0779
20762W        W36379  16.923  12.067  14.272  0.0626  0.3650  0.1271
20763W        W36380   7.328   4.390   5.160  0.1157  0.1567 -0.0109
20764W        W36381   3.200   0.240   5.262  0.2948  0.0171 -0.1328
20765W        W36382  15.641   7.192   4.872 -0.2478 -0.0892 -0.0740
20766W        W36383  13.336   3.724   4.230 -0.0149 -0.0590  0.0485
20767W        W36384   9.244   5.907   1.660 -0.0037 -0.0038 -0.2364
20768W        W36385   5.511   4.529  14.104  0.1337  0.0991 -0.1659
20769W        W36386   2.196   6.493   1.965 -0.1187  0.1115 -0.0268
20770W        W36387  17.409   0.989   1.492 -0.0102  0.2332 -0.4388
20771W        W36388  17.515   2.549  12.062  0.0596 -0.0576  0.0058
20772W        W36389  13.103   2.027   5.462 -0.3286  0.0623  0.0633
20773W        W36390   2.515   4.861   0.040  0.0235  0.2389  0.1094
20774W        W36391   6.468   4.720   5.145 -0.0044 -0.0312 -0.4122
20775W        W36392   8.398   5.321  15.849  0.0838 -0.1341  0.4052
20776W        W36393   4.960   8.396  15.534  0.3312 -0.0611 -0.0118
20777W        W36394   2.415  15.921  10.450  0.2031  0.1712 -0.0889
20778W        W36395  11.732  11.348  15.220  0.0570 -0.0574  0.1577
20779W        W36396   5.039  15.021   4.927  0.2755  0.0541 -0.0769
20780W        W36397  14.970  11.365  12.381  0.2843 -0.0521 -0.0368
20781W        W36398   7.512   8.181   5.053  0.0636  0.3591 -0.0547
20782W        W36399  11.640  14.742   1.792 -0.1665  0.1557 -0.0156
20783W        W36400  16.694   6.581  13.768 -0.1555  0.0435  0.0683
20784W        W36401   5.127  12.001   0.334 -0.2197 -0.0518 -0.3127
20785W        W36402   1.813   3.914  13.383  0.0272  0.0333 -0.3350
20786W        W36403  17.324  17.500  13.975 -0.3386 -0.1111  0.0815
20787W        W36404   5.832   4.423  12.133 -0.2369  0.1884 -0.0871
20788W        W36405  12.990  16.253  16.091 -0.2246  0.2474  0.0069
20789W        W36406   6.847  17.016   4.076  0.2292  0.0565 -0.2489
20790W        W36407   0.208  16.013   2.178  0.3742 -0.2253 -0.0821
20791W        W36408  15.414  13.343   1.653  0.1420 -0.0481  0.2015
20792W        W36409   9.971   5.568  15.582 -0.0002  0.2724  0.2161
20793W        W36410  10.190   2.497  12.166 -0.2392  0.0658 -0.0207
20794W        W36411   9.768   9.562  12.565  0.1005  0.1645  0.4446
20795W        W36412  14.502   1.292  16.300 -0.1192 -0.1668  0.0244
20796W        W36413  14.831   1.207  15.322 -0.0623 -0.0118 -0.0403
20797W        W36414   1.268   6.544   5.174 -0.2924  0.1837 -0.0185
20798W        W36415   1.212   4.822  14.617  0.3094 -0.4741 -0.0458
20799W        W36416  13.425  12.584   5.066 -0.3575  0.2144  0.3630
20800W        W36417   7.534   2.907   0.872  0.0486 -0.4540  0.1307
20801W        W36418  12.996  10.758  15.199  0.2720 -0.1613 -0.0340
20802W        W36419   4.619   6.681   1.813  0.1782  0.1728 -0.4070
20803W        W36420  14.012   2.090  15.656 -0.2400 -0.0035  0.4417
20804W        W36421  16.126   9.773  11.795  0.1963 -0.2283 -0.4958
20805W        W36422   3.181  11.933  12.294 -0.0342  0.1195  0.0743
20806W        W36423   7.767   8.286  16.423  0.1365  0.0908  0.0118
20807W        W36424  14.426  10.789   0.650 -0.1810 -0.1468 -0.1289
20808W        W36425   0.693   8.477  13.927  0.0779  0.0723 -0.1482
20809W        W36426  13.830   2.948   4.872 -0.2449  0.1638 -0.1506
20810W        W36427  16.172   8.130  12.912 -0.1584 -0.3672 -0.0568
20811W        W36428  14.091  14.373   5.182  0.5149  0.1911 -0.2994
20812W        W36429  11.168   4.436   5.595 -0.0131  0.1647 -0.1047
20813W        W36430   9.467   5.249  13.041  0.0296  0.1284 -0.0203
20814W        W36431  11.399   7.652   3.529  0.2418  0.0324 -0.0004
20815W        W36432  13.536  14.056   1.912  0.0903 -0.2734  0.1208
20816W        W36433   3.346   1.515  16.071 -0.2006 -0.3384 -0.1032
20817W        W36434   4.968  14.062  11.987 -0.2583 -0.1367 -0.0506
20818W        W36435  12.222   1.378   1.540  0.0790  0.0929 -0.1166
20819W        W36436  14.032   8.609  13.889 -0.1761  0.0371  0.1618
20820W        W36437  17.610  17.699   2.855  0.1525 -0.1304 -0.3214
20821W        W36438   5.261  14.481  12.030 -0.1569  0.0036 -0.0657
20822W        W36439  11.119   0.078   1.182 -0.0333  0.1547  0.1568
20823W        W36440   7.163  16.056  11.269 -0.0789  0.0123 -0.0063
20824W        W36441  10.183  14.554  16.209  0.0514 -0.1147 -0.1405
20825W        W36442   2.637   5.765   5.766 -0.0964  0.1771 -0.1757
20826W        W36443  11.183   5.646  13.969 -0.1508  0.0582  0.1470
20827W        W36444   0.632  14.483  14.170  0.3501 -0.2313 -0.3588
20828W        W36445  11.923  10.416  15.497  0.1314  0.1246  0.1911
20829W        W36446   0.922  17.680   2.240  0.0793  0.1895 -0.2634
20830W        W36447  15.954   0.333  12.799  0.2661 -0.1992  0.2299
20831W        W36448   7.786  11.274  12.561  0.2352 -0.2692 -0.2890
20832W        W36449  17.463  12.857   0.954 -0.2804  0.2548 -0.0739
20833W        W36450  10.974  12.919  16.235  0.1572  0.0019  0.0457
20834W        W36451   3.847  13.077   0.972 -0.2417  0.0328 -0.2362
20835W        W36452  14.164   5.608   4.592  0.0407 -0.1056 -0.1550
20836W        W36453  16.336  13.735  15.698  0.3924 -0.1382  0.2033
20837W        W36454  13.435   7.570   1.697  0.0232 -0.0245  0.1180
20838W        W36455  12.762  12.183   1.679 -0.2297  0.0867  0.3065
20839W        W36456  13.980   6.165  13.690  0.0593  0.0692  0.0822
20840W        W36457  11.845   4.505  13.251 -0.1624  0.1583 -0.0198
20841W        W36458  16.268  17.813   0.585 -0.0714 -0.0205  0.0536
20842W        W36459   0.023   9.766   2.375  0.1339  0.1946 -0.2924
20843W        W36460  14.306   7.242   0.004  0.1971 -0.0583 -0.0526
20844W        W36461   1.491   0.139  12.740  0.1590  0.0245  0.0993
20845W        W36462   4.279   0.370   3.078  0.2596  0.2502  0.0222
20846W        W36463  14.110  16.655   0.142 -0.3051 -0.4453 -0.1052
20847W        W36464   1.185  13.673   3.349  0.0728 -0.1707 -0.0779
20848W        W36465  13.152  10.898  15.700  0.0111  0.0270 -0.2849
20849W        W36466   6.460  11.602   2.532  0.1597  0.2059  0.0573
20850W        W36467  12.699  12.036   4.103 -0.1998 -0.1595 -0.1195
20851W        W36468   9.199  13.332   4.305 -0.3128 -0.1175 -0.3203
20852W        W36469  13.635  16.560   0.584  0.1064  0.1343  0.2658
20853W        W36470   2.494   5.458  14.073  0.2582 -0.2308  0.0357
20854W        W36471   0.758  11.476   2.141 -0.1174  0.0910 -0.2004
20855W        W36472   1.176  12.773  16.136  0.0150 -0.2443  0.0505
20856W        W36473  11.777   2.651  16.170  0.4555  0.2576 -0.0727
20857W        W36474  11.051  14.957   3.536 -0.1675 -0.2885  0.1953
20858W        W36475   0.220  16.501   3.746  0.0163 -0.1811  0.1392
20859W        W36476   3.298  12.170   3.995  0.0003  0.0005 -0.0230
20860W        W36477   2.380   9.403   3.473 -0.0142 -0.1043 -0.1092
20861W        W36478  13.482   1.276  15.518  0.0829  0.2071  0.0830
20862W        W36479  15.041  10.724  16.434  0.1951 -0.0613  0.0746
20863W        W36480  11.692  12.367  16.791  0.1513 -0.0461 -0.0399
20864W        W36481  12.317  15.373  13.846 -0.0740 -0.1295 -0.0058
20865W        W36482   0.200   6.716   2.552  0.2669 -0.1860  0.3878
20866W        W36483   1.364  16.794   2.169  0.2440 -0.0270  0.0465
20867W        W36484   8.728  10.326  11.623 -0.0594 -0.3131 -0.1330
20868W        W36485  16.281   0.278   1.054 -0.1381  0.1455  0.0720
20869W        W36486   0.115  17.332   0.107 -0.2600  0.0799 -0.0473
20870W        W36487  16.380  15.406   6.181 -0.1320  0.2929  0.1330
20871W        W36488   7.993   4.914  13.248 -0.0928  0.3170 -0.2033
20872W        W36489  16.712   2.238  14.349 -0.2767  0.2307  0.2239
20873W        W36490  17.467   4.853  14.568 -0.2083  0.0591  0.0485
20874W        W36491  13.807   5.195  13.535 -0.0712 -0.1510 -0.2031
20875W        W36492  17.436   0.752   4.344 -0.0555  0.1825 -0.2788
20876W        W36493  16.037  11.774   3.467 -0.2474  0.0009 -0.0785
20877W        W36494  15.175   9.663   0.609 -0.0723 -0.0341 -0.1353
20878W        W36495  10.173  15.203   1.039  0.2227  0.0911  0.0345
20879W        W36496   4.733  13.714   3.057 -0.2127 -0.0720 -0.0784
20880W        W36497   1.368   7.984   3.859 -0.0258  0.0551  0.2394
20881W        W36498   1.290  13.381   2.881  0.1820  0.1855  0.0658
20882W        W36499   6.637   2.551   3.633  0.1295 -0.0389  0.3155
20883W        W36500   2.384   9.061   0.826  0.1653 -0.3321  0.1735
20884W        W36501   7.903  11.773  10.714 -0.0188 -0.2644  0.1523
20885W        W36502  12.003   6.079  14.816 -0.1279  0.1344  0.0313
20886W        W36503   2.347  17.328   0.812  0.0821 -0.1722  0.0373
20887W        W36504  14.482  15.425   5.832  0.3631 -0.1740  0.3787
20888W        W36505   3.664   1.849   5.605 -0.1078 -0.0333 -0.2731
20889W        W36506  16.766   1.165   5.011 -0.0475  0.0810 -0.4290
20890W        W36507  10.398   8.909   0.893  0.0212 -0.2160 -0.0854
20891W        W36508   4.933   6.824  12.204 -0.0841 -0.1243 -0.0503
20892W        W36509   1.571   2.134   0.262  0.2466  0.3112 -0.2041
20893W        W36510  12.601   2.204  15.943  0.1232 -0.1746  0.0024
20894W        W36511  16.993   6.754   6.694 -0.0313  0.0227 -0.1576
20895W        W36512  16.298  12.087   0.515  0.1764 -0.1564 -0.3342
20896W        W36513   7.887  14.845   0.042 -0.2585 -0.2067  0.1402
20897W        W36514   8.630   8.942  11.462 -0.0384 -0.0188  0.4396
20898W        W36515   0.925  10.590   4.029  0.2279  0.0809  0.2044
20899W        W36516   1.775   0.347   4.534  0.1716 -0.2305 -0.0876
20900W        W36517   8.484  14.214   2.371  0.1328 -0.0191  0.0762
20901W        W36518   4.126  10.724   1.758 -0.0458  0.0446 -0.0785
20902W        W36519  16.252  16.725  11.918 -0.1124  0.1430 -0.3639
20903W        W36520  17.791   6.348   1.827  0.0567  0.1639 -0.0749
20904W        W36521   6.553   2.109   3.985 -0.1219 -0.1329 -0.2606
20905W        W36522  11.869  11.984   3.704  0.3688  0.2117  0.0717
20906W        W36523  16.964   9.719   3.445 -0.2067  0.0568 -0.0616
20907W        W36524  11.808   7.120   5.810  0.3344 -0.4109 -0.3159
20908W        W36525  13.545  10.277  12.207 -0.1662  0.1239  0.0054
20909W        W36526   7.815   0.901  12.000 -0.0213 -0.1161  0.0177
20910W        W36527   3.101   7.179  11.268 -0.2833 -0.3054  0.1830
20911W        W36528   1.681  17.747   1.278 -0.0255 -0.0492 -0.2624
20912W        W36529   4.456   6.879   4.512  0.0122  0.1085 -0.1555
20913W        W36530   0.562   9.259  14.577 -0.0903 -0.1756  0.3018
20914W        W36531   5.277  14.485   3.393 -0.1657  0.2366  0.0524
20915W        W36532  10.629   9.243  13.639 -0.0311  0.0529  0.1499
20916W        W36533   3.154  16.558   3.656 -0.0830  0.0078  0.0764
20917W        W36534   8.671  12.150  12.012 -0.0659  0.2068  0.0920
20918W        W36535   2.499   4.251  15.869 -0.1294 -0.0036  0.0364
20919W        W36536   3.978  11.644   3.329  0.2620  0.0310  0.3351
20920W        W36537  10.416   2.712  12.750  0.2039 -0.2806 -0.0844
20921W        W36538  15.246   6.385  16.686 -0.1357 -0.0571  0.0358
20922W        W36539   2.179   5.529   1.536 -0.0850 -0.4118  0.0439
20923W        W36540  13.264   6.514  14.837 -0.0552 -0.1427  0.1322
20924W        W36541   0.827  17.171   4.194 -0.0143 -0.0229  0.0389
20925W        W36542  16.467  16.270   6.864 -0.2504  0.2236  0.0541
20926W        W36543  17.360   6.037  13.222 -0.2329  0.1467 -0.1140
20927W        W36544  11.793   1.237  11.833 -0.1103 -0.3710  0.3080
20928W        W36545   2.843  13.356  16.355 -0.0952 -0.1239 -0.1287
20929W        W36546  15.247  15.867   3.228 -0.0525 -0.0384  0.2540
20930W        W36547   2.541   0.671   1.149 -0.2067 -0.1750  0.0620
20931W        W36548   7.010  16.497   1.974  0.0604  0.0153 -0.2066
20932W        W36549   3.017   7.385  16.266 -0.2305 -0.1641  0.3222
20933W        W36550   8.263   1.842   4.613  0.0424  0.1404 -0.3868
20934W        W36551   9.478   3.510  15.599  0.0451  0.1583 -0.0832
20935W        W36552   6.074   4.485  16.333 -0.3579  0.0713 -0.0174
20936W        W36553   9.659   0.551   4.128  0.3506  0.1244  0.0013
20937W        W36554  12.917  16.875  12.927 -0.0596 -0.0863  0.1295
20938W        W36555  13.905  10.411  11.762  0.2382 -0.0422 -0.1996
20939W        W36556   5.582  17.763  12.959  0.1640 -0.2176  0.2219
20940W        W36557  12.924   6.778   0.009 -0.0345 -0.0229 -0.0469
20941W        W36558   2.025  10.041   4.939 -0.0825  0.0841  0.4157
20942W        W36559  14.966   6.934   5.614  0.1194  0.1014  0.1185
20943W        W36560  10.378   2.159   0.679  0.0373 -0.3757 -0.0060
20944W        W36561  13.253   4.107  14.206 -0.3094  0.0479 -0.0118
20945W        W36562   9.690  16.769  12.829 -0.2126 -0.2847  0.1140
20946W        W36563  11.643   0.285  16.468  0.1095 -0.0571 -0.0599
20947W        W36564  15.134   7.501   5.016 -0.2252  0.1128 -0.0124
20948W        W36565  15.188   1.794   2.021  0.0398  0.0623  0.0137
20949W        W36566  14.801  15.646   3.378 -0.1236  0.3968 -0.0294
20950W        W36567   5.351   2.034  15.306 -0.2887  0.0068 -0.2089
20951W        W36568  12.896   2.701   3.629 -0.2192 -0.0436  0.0965
20952W        W36569   4.419  11.423   0.538 -0.1433 -0.2893 -0.1263
20953W        W36570  15.629  10.719  13.541 -0.2288 -0.1535 -0.0807
20954W        W36571  13.223  11.658  16.109  0.2539  0.3426  0.2858
20955W        W36572  16.873   7.023   3.447  0.1750 -0.2396  0.1798
20956W        W36573  15.085   0.337   2.125  0.0051  0.0494 -0.3147
20957W        W36574  14.835  11.583   4.113 -0.1946  0.0748  0.0252
20958W        W36575   7.384  17.276  13.592  0.0188 -0.3612  0.0356
20959W        W36576  17.854   4.149   2.963  0.1232 -0.0065 -0.2638
20960W        W36577  12.935  17.155   1.233 -0.2112 -0.2218  0.1131
20961W        W36578  16.890   7.854   3.734  0.1308 -0.1555 -0.1843
20962W        W36579   1.058   6.863  13.366 -0.0523 -0.0524 -0.0846
20963W        W36580  12.069   9.295   4.027  0.1157  0.1329  0.0591
20964W        W36581   5.005  15.825  16.116 -0.1089  0.0716  0.3018
20965W        W36582  15.490  15.299   0.686 -0.1247 -0.0217 -0.1386
20966W        W36583   1.878   9.437   1.836 -0.2873 -0.2854 -0.0038
20967W        W36584  13.836   8.397  10.555 -0.2282 -0.2053 -0.0797
20968W        W36585   0.084  17.417  11.259  0.2504  0.0136  0.1697
20969W        W36586  13.677  16.688   1.868 -0.1268 -0.0338  0.0609
20970W        W36587  10.339   5.165   5.332 -0.2448  0.0369  0.1590
20971W        W36588  14.941   6.239   1.142  0.2282  0.2887  0.2530
20972W        W36589  11.347   8.405  14.366 -0.1214  0.1168  0.2610
20973W        W36590  10.328  17.499   2.079 -0.1242 -0.0093 -0.1875
20974W        W36591   9.878  10.836   4.928 -0.2846  0.1395 -0.0557
20975W        W36592   8.487   5.613  10.609 -0.1799 -0.1678 -0.1389
20976W        W36593   9.349   4.483  11.763  0.3327 -0.0386  0.0813
20977W        W36594   1.519  13.096  13.331 -0.1328 -0.1221  0.1689
20978W        W36595   3.703  12.864   4.492  0.1393  0.2007 -0.0876
20979W        W36596   3.492   4.069   3.151  0.2527 -0.1778  0.1308
20980W        W36597   9.298   7.164  16.652 -0.1449  0.1127  0.0478
20981W        W36598   3.109   9.815   3.675 -0.0069  0.0306 -0.2699
20982W        W36599   1.506  13.923   4.196 -0.2386  0.0169 -0.0696
20983W        W36600  14.107  15.966  14.600  0.0595  0.0659 -0.1715
20984W        W36601  16.150  17.342   6.317 -0.2223  0.0508 -0.0596
20985W        W36602   5.216   4.204   0.567 -0.1654 -0.0178  0.0456
20986W        W36603   3.780  10.854   2.685  0.0294 -0.3368  0.0781
20987W        W36604   3.661  12.621   0.858 -0.2310 -0.4403 -0.1894
20988W        W36605  14.855  15.052  12.948  0.1031  0.4194 -0.3194
20989W        W36606   8.111  13.879  13.495 -0.0536 -0.1169 -0.2906
20990W        W36607  15.266   8.532  15.622  0.1299  0.1575 -0.0059
20991W        W36608   5.209  10.160  13.982  0.0680  0.3530 -0.3269
20992W        W36609   7.414  12.810   3.931  0.1158 -0.1481 -0.3429
20993W        W36610   6.200  10.726  15.086 -0.0383 -0.0495 -0.1029
20994W        W36611   0.059   7.567   5.291  0.0146  0.1150  0.3052
20995W        W36612   3.574   1.244  12.927  0.0123 -0.2260  0.0689
20996W        W36613   5.122  16.780   0.890 -0.0477  0.2027  0.0098
20997W        W36614  13.649   7.016   5.373 -0.1070 -0.1471 -0.0001
20998W        W36615  11.953   9.967   4.818 -0.1411  0.0757 -0.1434
20999W        W36616   7.072  11.389  16.088 -0.1875  0.1214  0.3845
21000W        W36617   7.117   1.507   3.879  0.0389  0.0556 -0.1883
21001W        W36618   8.149   7.968   1.715 -0.2172 -0.2819  0.3464
21002W        W36619  13.945   8.343  15.683  0.3138 -0.1727 -0.0702
21003W        W36620   6.701  17.933   2.378 -0.2483 -0.0521 -0.0990
21004W        W36621  16.190  10.915   5.094  0.0789  0.0538 -0.0954
21005W        W36622  15.244   4.085  14.001  0.2541 -0.4055 -0.0636
21006W        W36623  10.912   4.036   5.697 -0.1726  0.0231 -0.1274
21007W        W36624  11.897  16.920   5.972  0.2147  0.1862 -0.0021
21008W        W36625   5.448  14.006  14.533 -0.1717 -0.1278 -0.0797
21009W        W36626  17.343   5.984  13.719 -0.4442 -0.0106 -0.0905
21010W        W36627   0.554   0.846  15.457  0.0312 -0.0458  0.3084
21011W        W36628  11.192   2.500  16.043  0.2100 -0.0710  0.2486
21012W        W36629   1.508  16.059  15.006 -0.2589  0.1922 -0.0135
21013W        W36630   9.973   2.378  14.456 -0.0963 -0.2829  0.0885
21014W        W36631   6.361  10.186  15.555  0.0181  0.1091  0.0733
21015W        W36632  14.923  12.568   0.474 -0.4007 -0.2368  0.1600
21016W        W36633   6.334   4.515   3.407  0.0560 -0.1745  0.2673
21017W        W36634   4.147   1.824   3.236  0.2801  0.0320  0.1879
21018W        W36635  14.876   9.215   5.073  0.3100 -0.1291 -0.0090
21019W        W36636   6.828  11.729   2.886  0.1016  0.0546 -0.2867
21020W        W36637  12.776  15.802   4.261  0.2269  0.1995 -0.1507
21021W        W36638  12.681   2.672   5.807  0.4367 -0.0915  0.2544
21022W        W36639  12.068  14.560  12.568 -0.0415 -0.0013  0.2768
21023W        W36640  10.011  16.526   0.108 -0.0234  0.2899  0.1980
21024W        W36641   6.816  16.649  13.947  0.0114  0.1339  0.1572
21025W        W36642  12.529   7.123   5.938  0.1282 -0.0979  0.0468
21026W        W36643  14.640   3.317   3.881  0.2295 -0.0496  0.1452
21027W        W36644   6.927   1.325   3.456  0.1399 -0.0634  0.3694
21028W        W36645   4.078   0.061   4.365  0.4436 -0.2373  0.3051
21029W        W36646  14.164   8.889  14.320  0.4396  0.1724  0.1797
21030W        W36647   6.347   8.939  12.032  0.0672  0.0196  0.2138
21031W        W36648  12.640  14.399   5.615  0.0035 -0.0283 -0.2227
21032W        W36649   9.584  12.819  11.897 -0.2528  0.0859  0.0297
21033W        W36650  11.820   7.381   1.513  0.2253  0.2516  0.1438
21034W        W36651   1.589   0.736  11.684 -0.0946 -0.0764 -0.1927
21035W        W36652   2.132   9.832   0.601 -0.0825 -0.1399  0.0041
21036W        W36653  14.654  14.650  12.306  0.0675 -0.1148 -0.3345
21037W        W36654  11.577   7.527   1.098 -0.3490  0.0939  0.1051
21038W        W36655   2.502  16.960  15.797  0.1270 -0.0555 -0.1557
21039W        W36656  10.495  17.517  16.480  0.0652 -0.2396 -0.0992
21040W        W36657  16.865   5.256  11.495 -0.0816  0.0025 -0.0977
21041W        W36658   5.056   4.170   5.595 -0.0192  0.1073  0.0763
21042W        W36659   7.955   5.094   1.919  0.0213 -0.1787 -0.2534
21043W        W36660   5.592   8.684  16.129 -0.4432 -0.2185  0.0474
21044W        W36661  13.337   2.189  12.706 -0.1085  0.1290 -0.3892
21045W        W36662   3.405   7.000  15.115  0.0182 -0.1751 -0.1949
21046W        W36663   0.398   7.262   1.869  0.0715 -0.0756  0.1513
21047W        W36664   7.288  14.252  15.798  0.2264 -0.1169 -0.1400
21048W        W36665   8.930  13.814  11.551  0.0353 -0.0073  0.1165
21049W        W36666   1.449   0.020  16.077 -0.0909  0.1451 -0.0698
21050W        W36667  14.007   5.440   5.234  0.3752  0.0507  0.3046
21051W        W36668  17.634   7.271   4.371 -0.3685 -0.2626  0.1654
21052W        W36669  17.797  15.170   2.726  0.2909 -0.4524 -0.0638
21053W        W36670   8.218  17.369  15.994  0.2194 -0.1381 -0.3486
21054W        W36671   0.182   2.376   0.311 -0.3074  0.0121 -0.0038
21055W        W36672   7.044  12.231   4.641  0.4564 -0.1112 -0.1415
21056W        W36673   7.894   6.706  12.957 -0.2218  0.2660 -0.1318
21057W        W36674  13.688   3.049   2.767 -0.0623 -0.0547 -0.0125
21058W        W36675  10.473   7.842  16.355 -0.0276  0.2421  0.0908
21059W        W36676   1.659   4.814  15.663  0.0467 -0.1107 -0.2505
21060W        W36677  13.782  13.817   3.310  0.1517  0.0915 -0.1366
21061W        W36678   3.115   8.103  14.498 -0.0778  0.1712 -0.0070
21062W        W36679   2.446  15.705   3.186 -0.1099  0.1211 -0.2828
21063W        W36680   1.538  14.317   3.808 -0.1612  0.1691 -0.1814
21064W        W36681   8.239   9.934   0.115 -0.1759 -0.0609  0.0063
21065W        W36682   6.578  10.011  14.531  0.0506  0.1404 -0.1521
21066W        W36683  15.223   1.806   2.559  0.1690 -0.0731  0.0006
21067W        W36684   0.046  12.543  16.488 -0.0079 -0.4414 -0.1415
21068W        W36685   2.459  13.407  12.260  0.1167 -0.0674  0.1613
21069W        W36686  13.428  17.371  15.757  0.0596 -0.1856  0.0549
21070W        W36687   9.913   6.144  15.143 -0.1536  0.0157 -0.1677
21071W        W36688   5.811   5.131   0.920 -0.0041  0.0699  0.2882
21072W        W36689  12.074   6.896   4.056  0.2214  0.4280  0.2352
21073W        W36690  17.676   7.625   2.572  0.0165 -0.1346 -0.2185
21074W        W36691   7.667  15.895   0.785  0.0237 -0.3249  0.1825
21075W        W36692  10.289   0.560   4.800 -0.0790  0.2865 -0.1237
21076W        W36693  14.260   5.833   5.079  0.1313 -0.1099  0.3585
21077W        W36694   4.964   8.131  11.556  0.3078  0.3549 -0.2360
21078W        W36695  17.494  12.458   1.315 -0.0328  0.1131  0.1263
21079W        W36696   8.241   2.683   2.300 -0.2985 -0.0407  0.1022
21080W        W36697   2.147   1.056  15.303  0.1957  0.3424  0.2363
21081W        W36698  12.250  17.115   3.566 -0.0735 -0.0892 -0.1443
21082W        W36699  17.781   9.038   5.052  0.2903 -0.5831  0.0623
21083W        W36700  11.384   4.661  15.613  0.1188 -0.0761 -0.1229
21084W        W36701  13.438  10.710  16.094  0.1426  0.1168 -0.0833
21085W        W36702   6.872   5.922  14.172  0.2844  0.1216  0.3230
21086W        W36703   5.007   8.722   0.660 -0.0104  0.2295 -0.3042
21087W        W36704  14.204   0.536  15.957 -0.0709  0.0689 -0.1304
21088W        W36705   6.115   2.286   5.372 -0.0814 -0.0633  0.2222
21089W        W36706  14.192   1.041  16.016 -0.2937 -0.1976 -0.2230
21090W        W36707   8.506   6.138  11.390  0.0574 -0.1103  0.2054
21091W        W36708   4.420   0.424  14.545 -0.0649 -0.2356 -0.0893
21092W        W36709  11.191   6.122   5.500  0.2746 -0.2396 -0.1417
21093W        W36710   8.700   2.351  12.733  0.1419 -0.1338  0.1069
21094W        W36711  16.129  13.393  13.377 -0.2965 -0.0890 -0.1839
21095W        W36712  17.541  15.532  16.799 -0.0803  0.2068  0.1182
21096W        W36713  17.377  11.215   4.106  0.1865 -0.2041 -0.0252
21097W        W36714   4.367   7.192   2.169 -0.0408 -0.0056  0.1442
21098W        W36715   4.411   6.908  11.606 -0.2085  0.1265  0.1239
21099W        W36716   8.841  14.430   4.754  0.0815  0.0117 -0.2461
21100W        W36717   0.489  13.953  13.383  0.1122 -0.2296  0.0604
21101W        W36718  11.037   5.611   3.379  0.1209 -0.3689  0.0324
21102W        W36719   9.675   3.466  14.756 -0.1805  0.4117 -0.1458
21103W        W36720   2.674  14.849   1.489  0.4944 -0.2738  0.1448
21104W        W36721   4.771   6.338   5.172  0.0958 -0.0121  0.1083
21105W        W36722   0.888  17.852   5.957  0.0760  0.0960 -0.0270
21106W        W36723  17.862   4.610  15.878  0.1214 -0.1427 -0.3313
21107W        W36724   1.861   2.902   3.696 -0.2079 -0.0892 -0.0223
21108W        W36725   2.168   6.062   5.009 -0.0498 -0.4089 -0.0670
21109W        W36726   1.222   1.096  13.584 -0.0488 -0.2068  0.0369
21110W        W36727   5.705  15.002  14.757  0.4228  0.1723  0.0370
21111W        W36728  10.251  11.220   2.622 -0.0932  0.1840  0.1270
21112W        W36729  17.713   6.324  13.769 -0.1669  0.0521 -0.0836
21113W        W36730   3.054  17.128   4.925  0.2148  0.0830  0.0317
21114W        W36731  10.752   8.230   5.888  0.0346  0.0867 -0.3142
21115W        W36732  15.606  14.905   3.329  0.0172  0.2663 -0.0184
21116W        W36733  10.764   3.346  11.838 -0.0897  0.1006 -0.2263
21117W        W36734   1.527  12.673  13.632  0.1350 -0.0661 -0.1890
21118W        W36735  11.246  12.011  11.673 -0.0124 -0.0865  0.0311
21119W        W36736  14.306  15.173   0.229 -0.1433  0.0378  0.1372
21120W        W36737   2.662  11.978   1.724 -0.0069  0.1712  0.1292
21121W        W36738  13.317   6.231   0.076 -0.1527 -0.2553  0.0408
21122W        W36739  17.386  15.990   1.758  0.2627 -0.4602 -0.1897
21123W        W36740  18.027   3.629   4.891 -0.3346  0.2651  0.1933
21124W        W36741   1.617  12.795  10.946  0.0083 -0.1754  0.3110
21125W        W36742   8.861  16.574   1.841 -0.2381 -0.2391  0.0241
21126W        W36743  10.382   3.685  14.162  0.0564 -0.0514  0.1260
21127W        W36744  16.724   7.861  16.278  0.0917  0.1448 -0.0243
21128W        W36745   6.025  15.187   4.948  0.0193  0.1110 -0.1252
21129W        W36746  14.356  13.798   3.408  0.0968 -0.0145  0.4815
21130W        W36747   0.365  12.007   3.045 -0.0539 -0.1863  0.0012
21131W        W36748  12.821  11.177   5.095 -0.3131 -0.2699 -0.1209
21132W        W36749  12.515   1.703  15.396 -0.1887  0.1340 -0.0513
21133W        W36750   6.990  11.950   2.447 -0.2934 -0.0951  0.0434
21134W        W36751  14.341  15.479   4.555 -0.0340 -0.0040 -0.1171
21135W        W36752   7.218   7.032  14.732 -0.0876  0.1046 -0.1247
21136W        W36753   2.127   0.822  15.935  0.1222 -0.2349  0.2850
21137W        W36754  13.974   7.703   5.822 -0.0103  0.1583  0.3014
21138W        W36755  16.726   3.512  15.578  0.1518  0.2363 -0.1065
21139W        W36756   2.244   1.594  15.440  0.1059 -0.0429 -0.0315
21140W        W36757   6.915   7.375  14.274 -0.4186  0.1847  0.2510
21141W        W36758  12.699  13.042  15.712  0.1670  0.1270 -0.0323
21142W        W36759  12.534   5.101  16.220  0.0787  0.2986  0.0163
21143W        W36760   5.922   2.823   0.625  0.0111 -0.0457 -0.3023
21144W        W36761   8.084   2.233  16.157 -0.1872 -0.2277  0.2790
21145W        W36762  11.431  17.556  11.470 -0.3377 -0.0045  0.2891
21146W        W36763   7.627  12.206  13.813 -0.3626 -0.3095  0.0188
21147W        W36764  15.654   9.390  13.018  0.1026 -0.0527 -0.2008
21148W        W36765  11.261   3.431  16.130 -0.0603  0.0128  0.1641
21149W        W36766   4.436   1.620  12.924  0.5246  0.1380  0.0831
21150W        W36767   5.250   9.928   1.756  0.2561  0.1378  0.0485
21151W        W36768  13.199   1.008  13.733 -0.0898  0.1933 -0.1623
21152W        W36769  17.049  10.875   0.930  0.0895  0.1429  0.1183
21153W        W36770  10.057  17.788  15.006 -0.1719  0.0544 -0.4575
21154W        W36771   6.288   2.320  12.885 -0.0849 -0.1083  0.1918
21155W        W36772  13.267  12.634   4.232  0.0637  0.1652 -0.0331
21156W        W36773   3.312   4.603   4.321  0.0257 -0.0523  0.4184
21157W        W36774   2.033  12.385   1.315  0.1639  0.1275  0.2435
21158W        W36775   9.857   7.482   1.159 -0.1220  0.1807  0.2660
21159W        W36776   2.020   9.948   1.979 -0.3406  0.0784  0.2040
21160W        W36777  15.198  15.084  16.208  0.1104 -0.1132  0.0392
21161W        W36778  14.084   1.362  16.572 -0.1372 -0.1278  0.1523
21162W        W36779   3.244  12.727   4.259  0.0331  0.1551 -0.0993
21163W        W36780  12.601   2.171   5.743 -0.3303  0.2072 -0.2496
21164W        W36781  11.652   6.142  11.778 -0.0205 -0.1122  0.0394
21165W        W36782   3.388  12.535  11.581 -0.1546  0.0478 -0.6120
21166W        W36783   6.612  17.620  12.131 -0.2051 -0.0198 -0.0621
21167W        W36784  10.538  15.338  16.098 -0.0879 -0.0127 -0.0577
21168W        W36785  14.188   1.061  14.748  0.0747  0.2649  0.0909
21169W        W36786   0.104  14.250   0.905 -0.1193 -0.5936  0.3233
21170W        W36787  10.921   2.442   3.128 -0.2881 -0.0274 -0.3008
21171W        W36788   6.726  12.466  12.079 -0.0036  0.2332  0.2779
21172W        W36789  15.122   8.406   0.856  0.2279 -0.1404  0.3110
21173W        W36790   7.431   4.327  11.852  0.0844  0.0607  0.2281
21174W        W36791   0.996  16.213   4.033 -0.2918 -0.0020  0.3265
21175W        W36792   7.015   4.653   0.401  0.2371 -0.1172 -0.1025
21176W        W36793   0.775  12.401  15.876 -0.0504 -0.3571  0.0148
21177W        W36794  11.325   4.376  12.294 -0.1828  0.1919  0.0705
21178W        W36795  12.053   1.932   3.886  0.0672  0.2495  0.2775
21179W        W36796   7.502   6.451  13.157  0.2313  0.2083  0.0187
21180W        W36797   6.770  10.903   3.291 -0.1466 -0.0863  0.0642
21181W        W36798  12.196   0.112   5.186 -0.2347  0.1435 -0.0905
21182W        W36799   5.925  13.648   0.817  0.1620  0.0765 -0.1656
21183W        W36800   5.008   2.732   1.153  0.1569 -0.0561  0.0720
21184W        W36801   4.480  11.910  15.199 -0.0775 -0.0676  0.1013
21185W        W36802  16.022  12.982  13.709 -0.1469 -0.1818 -0.3853
21186W        W36803   5.752  11.165   4.965  0.3178 -0.0453  0.1882
21187W        W36804  17.064  10.351   0.705  0.0583 -0.1571  0.0233
21188W        W36805   1.798   4.297  15.627  0.0146 -0.0355 -0.0374
21189W        W36806   8.967  15.526  14.193  0.0164  0.2136 -0.3116
21190W        W36807   9.429  10.007  14.824  0.1476 -0.0309 -0.1567
21191W        W36808  11.247  16.548  12.036  0.1276  0.4420 -0.1136
21192W        W36809   0.832  11.416  14.186  0.1062 -0.0952  0.2085
21193W        W36810  16.175   2.596   1.002  0.1179  0.0964 -0.0453
21194W        W36811  16.328  12.136   4.790  0.1323  0.2234 -0.3470
21195W        W36812  11.192   1.093  13.487  0.1522  0.1471  0.1713
21196W        W36813   4.069   5.972   1.949  0.0404 -0.0261  0.4474
21197W        W36814   8.185   9.710   1.113 -0.0385 -0.0055  0.1207
21198W        W36815   6.883  13.424   5.222  0.0521  0.1524 -0.0312
21199W        W36816  17.915   3.780  15.463  0.1122 -0.3884  0.2149
21200W        W36817   6.907  10.243  16.654 -0.2413 -0.0351 -0.1088
21201W        W36818  15.869  15.360   0.002 -0.1242 -0.2173 -0.0787
21202W        W36819   8.161  12.768   3.569 -0.2391  0.0257  0.1162
21203W        W36820   5.339   9.659  11.708 -0.0868 -0.0632  0.0751
21204W        W36821  15.930   6.079  12.162  0.0507  0.0446  0.0630
21205W        W36822  17.012  16.069   1.293  0.0697  0.0647  0.0997
21206W        W36823   1.487   3.153   5.511 -0.0404 -0.1343  0.2656
21207W        W36824  17.840   6.874   5.504 -0.2467 -0.0508  0.2555
21208W        W36825   1.555   6.060  13.456 -0.2493  0.3048 -0.1005
21209W        W36826   6.164   8.606   0.993 -0.1444  0.2115 -0.0178
21210W        W36827   0.875  15.513   1.895 -0.2755  0.1261  0.2415
21211W        W36828  10.348  12.567   5.033 -0.1798  0.0905  0.0169
21212W        W36829   2.585   2.807   1.578 -0.3035 -0.1220 -0.0832
21213W        W36830   2.863   9.682   1.073  0.0072 -0.0635 -0.0515
21214W        W36831   3.657   3.627  14.500 -0.0147  0.2588  0.2586
21215W        W36832   1.489   9.126   2.974  0.1526 -0.3531 -0.2310
21216W        W36833   0.169  12.866   5.295  0.0863  0.1167 -0.3216
21217W        W36834  16.302   7.410   4.106  0.1915 -0.2165 -0.4708
21218W        W36835  16.627  12.256  13.880 -0.1285 -0.1538  0.1822
21219W        W36836  16.694  13.251  16.651  0.2223 -0.0719  0.1849
21220W        W36837  12.638   8.074   4.775 -0.1113 -0.0540  0.2049
21221W        W36838   3.299  14.008   1.926 -0.0474 -0.4650  0.2886
21222W        W36839   2.864  13.373   3.434 -0.1160 -0.2199  0.2063
21223W        W36840  13.683  12.351   0.038 -0.3770 -0.2272 -0.0687
21224W        W36841   5.353  16.508  13.769 -0.0181 -0.4258 -0.2497
21225W        W36842   4.193  15.444   3.902  0.0020  0.0383  0.0114
21226W        W36843  15.350  15.585   2.754  0.2257 -0.0105 -0.0216
21227W        W36844  17.319   1.676  12.225  0.0620 -0.0889 -0.0385
21228W        W36845  13.556   3.066   5.774  0.1973 -0.0068  0.1241
21229W        W36846   0.468  17.571   6.033 -0.1152 -0.0077  0.2040
21230W        W36847  12.549   7.561   3.940  0.2099  0.0721 -0.0555
21231W        W36848   0.395   2.579   0.753 -0.2088 -0.0406 -0.3830
21232W        W36849   5.993  16.782   1.119  0.2294 -0.0106 -0.1880
21233W        W36850   4.531   5.273   2.926 -0.0325  0.1344  0.0184
21234W        W36851  14.706   9.468   0.732  0.2725 -0.1025  0.3110
21235W        W36852   8.183   4.673   1.651 -0.0247 -0.2182  0.0359
21236W        W36853   7.258   2.615  16.246  0.3625  0.4145 -0.1395
21237W        W36854  14.037  15.135  16.124 -0.3548 -0.1073 -0.1252
21238W        W36855   2.632  17.443  14.053  0.0095  0.1001  0.0268
21239W        W36856   3.672  17.978  14.943  0.0224 -0.0426 -0.0367
21240W        W36857   5.247  15.103  15.041  0.0576  0.1955  0.0641
21241W        W36858  16.431  16.721   2.198  0.2365  0.1031  0.0335
21242W        W36859  11.080   9.922  14.635  0.1087 -0.0148  0.0868
21243W        W36860   5.970  16.497  11.811  0.0423 -0.1520  0.2594
21244W        W36861  15.220  17.562   6.083  0.3221  0.1040  0.0778
21245W        W36862  11.122  14.423  11.366  0.0176  0.3218  0.2941
21246W        W36863   7.900  11.520  15.559  0.2090 -0.3472 -0.0647
21247W        W36864  11.540   9.387  12.661  0.1744 -0.2996  0.2944
21248W        W36865  10.954   7.766   3.366 -0.1626 -0.1857  0.1104
21249W        W36866   5.145   6.490   3.968  0.1123 -0.0692  0.0310
21250W        W36867   9.747   5.598   2.674  0.1466  0.1044 -0.1338
21251W        W36868  17.220  13.117   2.489  0.0154 -0.2341  0.0139
21252W        W36869   1.483  14.545   0.002  0.4593  0.0259  0.0578
21253W        W36870   1.834   3.787  16.314  0.0782 -0.3978 -0.1219
21254W        W36871  14.144  17.080   1.051 -0.5002 -0.1310  0.1977
21255W        W36872   3.670  13.743  16.165  0.0248 -0.1067 -0.2075
21256W        W36873   3.623   3.197   4.212 -0.1143  0.2221  0.2359
21257W        W36874   0.775   8.556   1.065  0.0670 -0.1291 -0.2005
21258W        W36875   3.691   6.436   1.865 -0.0624  0.1887 -0.0726
21259W        W36876  17.651   5.130   1.533  0.1882  0.3270 -0.1332
21260W        W36877  14.764  12.119  12.825 -0.1255  0.0859 -0.3572
21261W        W36878   1.698   9.743  14.400  0.0328 -0.1569 -0.2288
21262W        W36879  12.109   0.366  16.304 -0.0870 -0.3334 -0.0558
21263W        W36880  15.936  17.615   5.887  0.1267 -0.1987 -0.0992
21264W        W36881   9.782   9.999   3.323 -0.1086  0.0860 -0.0126
21265W        W36882  11.764   0.391  14.669 -0.2494 -0.1154  0.2350
21266W        W36883   1.367  12.758  14.957  0.1045  0.0692 -0.0291
21267W        W36884   8.914   7.579  14.066  0.3001 -0.1282 -0.2256
21268W        W36885   4.275   7.869   3.777 -0.1026  0.1320 -0.1911
21269W        W36886  16.935  11.223  13.799  0.2133  0.3061 -0.0266
21270W        W36887   4.641  11.823  16.516  0.0878 -0.0817 -0.0258
21271W        W36888  11.565  12.277  15.325  0.4214  0.2043 -0.1419
21272W        W36889  12.387   9.809   5.961  0.0185 -0.1701  0.0849
21273W        W36890   4.608  16.119  12.230 -0.1145 -0.1050  0.0335
21274W        W36891   4.551   8.190  11.280  0.1397  0.0504 -0.1845
21275W        W36892   2.957  10.397  11.712  0.0645 -0.2419  0.0011
21276W        W36893  16.515  17.793   3.727  0.1512 -0.0226 -0.4486
21277W        W36894   7.791   7.341   0.231  0.5044 -0.1643  0.0319
21278W        W36895  10.347   2.641   0.468 -0.0641  0.3025  0.1899
21279W        W36896   5.779   8.654   0.122  0.2371  0.1707  0.1963
21280W        W36897   9.652   2.740  10.524  0.0578  0.2565 -0.2554
21281W        W36898  10.671   4.122   0.884 -0.0445  0.0046 -0.1389
21282W        W36899   9.192   2.307   4.215 -0.1161  0.3115 -0.0495
21283W        W36900  10.184   9.477  13.559  0.1057 -0.0813 -0.0002
21284W        W36901   0.462   3.338  12.101 -0.0477 -0.3139 -0.1709
21285W        W36902  15.103   8.219   2.829 -0.1498 -0.0365  0.0451
21286W        W36903  11.554   1.493  14.308 -0.0167  0.0592 -0.1662
21287W        W36904   5.143  11.205   2.897 -0.4078  0.1730 -0.0502
21288W        W36905  17.556   5.201   3.876  0.2147  0.1341  0.1040
21289W        W36906   6.307  17.547  14.876 -0.1859  0.1741 -0.2500
21290W        W36907   7.371  14.003  11.992  0.3335  0.1673  0.0019
21291W        W36908   5.339  17.402  12.558 -0.0653  0.1128 -0.2438
21292W        W36909   1.890  10.943  12.287  0.0093  0.0335 -0.2493
21293W        W36910   7.246  12.734  13.559 -0.2575  0.1682 -0.0530
21294W        W36911   5.133   8.586  11.674 -0.0186  0.0813 -0.3258
21295W        W36912  16.701  15.715  15.294 -0.0837  0.0385  0.0503
21296W        W36913   0.728   5.676  11.604  0.1327 -0.0816 -0.0987
21297W        W36914   8.916   5.267   1.078  0.2302  0.1454  0.0442
21298W        W36915   2.919   4.953   0.712  0.0375  0.0686 -0.1255
21299W        W36916   8.971   1.084  15.242  0.0707  0.1366  0.2466
21300W        W36917   5.093   6.490   0.707  0.2080 -0.0099 -0.0981
21301W        W36918  14.916  13.916  16.407 -0.0255 -0.0263 -0.2362
21302W        W36919   9.324   7.928   0.505  0.0186  0.2982 -0.1930
21303W        W36920  17.079   8.439  14.106  0.0275  0.5057  0.1597
21304W        W36921  13.947   4.084  15.941  0.1663 -0.2325  0.0289
21305W        W36922   3.606  10.615   4.260 -0.2166  0.2803 -0.1374
21306W        W36923  14.944  17.070  15.671  0.1351  0.2403  0.0406
21307W        W36924   4.940  15.825  13.980 -0.0555  0.2777 -0.1052
21308W        W36925   1.417   5.211  15.908  0.0312 -0.0276  0.0216
21309W        W36926   6.985   1.707  12.660  0.1859  0.2414 -0.4326
21310W        W36927   3.903  15.287   5.006  0.0960  0.1456 -0.3528
21311W        W36928  11.164  10.794  13.033  0.0442 -0.3158  0.1333
21312W        W36929  14.726   2.269   4.108 -0.1324 -0.0649 -0.0608
21313W        W36930  15.988   6.278   1.185  0.2350  0.3876  0.2143
21314W        W36931   8.488  17.457   6.253  0.2081 -0.1857 -0.4355
21315W        W36932   7.283   1.889   5.697 -0.1259  0.0177  0.0356
21316W        W36933   5.029  13.335   2.720  0.2078 -0.0099 -0.1511
21317W        W36934  11.974  14.251   2.583  0.0030 -0.0350  0.0009
21318W        W36935   4.368   9.485  14.155 -0.4216 -0.0449  0.2182
21319W        W36936   8.434   2.440   1.944  0.3540  0.0635 -0.3826
21320W        W36937  11.829   9.374   2.506  0.2127 -0.1554 -0.1213
21321W        W36938   4.465   1.661   2.725  0.3833  0.2963 -0.1280
21322W        W36939   7.078   2.351   5.732  0.0925  0.1044 -0.0381
21323W        W36940   0.972   0.964  13.153  0.0165 -0.0168 -0.1513
21324W        W36941  12.619  10.225   3.207 -0.0300 -0.0513  0.3296
21325W        W36942   7.830  16.266  16.794  0.1847 -0.3437  0.1721
21326W        W36943   3.263   7.759  15.849 -0.0560  0.1505 -0.1937
21327W        W36944  13.181  15.464   4.172 -0.0519 -0.0892 -0.1002
21328W        W36945   1.631  11.951   5.344  0.0848 -0.1250  0.3173
21329W        W36946  10.401   4.471  15.018  0.0599 -0.0001  0.3448
21330W        W36947  14.601   0.963  11.809 -0.0550  0.1156  0.1357
21331W        W36948   7.657   4.360   3.381  0.1947  0.0231 -0.0329
21332W        W36949   6.100   9.519  16.329 -0.1234 -0.0394 -0.2092
21333W        W36950  10.815   4.589  14.717 -0.0630 -0.4978 -0.1584
21334W        W36951   5.751   9.307  15.292 -0.2246 -0.0609  0.1686
21335W        W36952  10.278  14.059   2.179  0.2656  0.0168 -0.3294
21336W        W36953   2.045  14.034   4.334  0.0716  0.1010  0.0499
21337W        W36954  14.263   7.135  16.276  0.0689 -0.2463  0.1330
21338W        W36955   4.015   9.348  16.471  0.1014  0.2064  0.1657
21339W        W36956   6.489   9.235  14.296  0.1547 -0.1399  0.1430
21340W        W36957  11.721   4.880  14.583  0.1610 -0.2021  0.0570
21341W        W36958  12.672   7.688  11.943 -0.2271 -0.0108  0.1264
21342W        W36959   5.408   4.339  13.658  0.2733  0.0974  0.2785
21343W        W36960  10.783   0.077  12.767 -0.0127 -0.1821 -0.0757
21344W        W36961  10.735  12.805  14.350 -0.1016 -0.1792 -0.5654
21345W        W36962   3.685   6.807   1.499  0.0167 -0.0532  0.0900
21346W        W36963  13.746   4.678   0.177 -0.0959  0.1545 -0.1626
21347W        W36964   6.018  10.379  15.962 -0.2051  0.2141 -0.0678
21348W        W36965  16.256  12.504  16.035 -0.1192 -0.0630 -0.2979
21349W        W36966   0.640   9.674  14.990  0.2058 -0.3240  0.3587
21350W        W36967   2.667   7.296  11.408  0.3988  0.1633 -0.1712
21351W        W36968   9.883  10.898  15.275  0.0763 -0.1407  0.0713
21352W        W36969   2.065  16.739   0.272  0.6714  0.0983  0.1836
21353W        W36970   2.303   1.648   4.551 -0.2655  0.2290 -0.1709
21354W        W36971  17.255  12.936   4.506 -0.0376  0.3449 -0.3174
21355W        W36972  15.122  14.882   2.975 -0.1903  0.1411 -0.0323
21356W        W36973   6.597   0.441  13.820  0.0260  0.0956 -0.1813
21357W        W36974  17.907   9.670   4.344 -0.0173 -0.1593 -0.1435
21358W        W36975  13.349   0.489  12.782  0.0016 -0.0978  0.0150
21359W        W36976   7.452  10.912   5.330  0.1493  0.4502  0.6101
21360W        W36977  15.125   4.985   2.387 -0.2892 -0.0794 -0.0417
21361W        W36978  17.480  11.357   1.644  0.3429  0.1847 -0.2529
21362W        W36979  10.373   9.442  11.694 -0.2558 -0.0248 -0.0567
21363W        W36980  16.091  11.396   1.451 -0.0190 -0.0189  0.0317
21364W        W36981  12.369  13.839  16.232 -0.2524  0.0423 -0.0851
21365W        W36982   7.983  11.613  13.829  0.0714  0.0218  0.1913
21366W        W36983  13.766  13.046  15.653  0.0292 -0.1926 -0.0022
21367W        W36984  17.594   2.254   4.385  0.2523  0.1903  0.0463
21368W        W36985  14.632   1.452   3.299  0.0311  0.0898  0.1176
21369W        W36986  17.838   5.285   0.112 -0.0988 -0.3153  0.0650
21370W        W36987   7.433   7.904  16.685  0.2877  0.2143 -0.0562
21371W        W36988   4.686  11.078   4.099  0.0225 -0.1508  0.0502
21372W        W36989  17.021  11.644   0.411  0.2702  0.0243 -0.0547
21373W        W36990   5.900   6.734   2.654 -0.0930  0.0687  0.0038
21374W        W36991   9.347  13.312   0.713 -0.1874 -0.5618  0.0748
21375W        W36992   9.006   1.133  13.298  0.0459 -0.1224  0.0517
21376W        W36993  10.757   0.377   4.949  0.1161  0.0812 -0.2405
21377W        W36994   5.608   8.483   2.624  0.1540  0.1333  0.1001
21378W        W36995   2.432   3.167  15.556  0.0460  0.0845  0.1409
21379W        W36996   9.456   8.193   0.922 -0.2318 -0.0774 -0.0647
21380W        W36997  16.965  16.948   1.428 -0.2573 -0.1732  0.1871
21381W        W36998   3.458   6.168  11.261 -0.2184  0.0179  0.0442
21382W        W36999   5.418   8.032  14.056 -0.3178  0.3832 -0.0503
21383W        W37000  17.250  17.302   5.888  0.0663 -0.1090  0.1996
21384W        W37001   3.258  13.545  13.054 -0.0747 -0.1787 -0.1707
21385W        W37002  14.791  12.993   3.262 -0.0916 -0.3459 -0.2305
21386W        W37003  11.820   6.582  14.696 -0.0788  0.0365 -0.2181
21387W        W37004  11.399  10.425  12.445  0.0194  0.2629  0.0945
21388W        W37005  13.203  12.382   3.039 -0.1803 -0.2216  0.4792
21389W        W37006   6.554   4.835  13.734  0.1041  0.0468  0.0810
21390W        W37007   9.368   3.892  16.133  0.1135  0.2009 -0.2315
21391W        W37008   3.235   7.054  12.287 -0.1011 -0.0421  0.0097
21392W        W37009  16.224   3.947  11.981 -0.2523  0.1981 -0.3026
21393W        W37010  15.397  17.537  15.683  0.3964  0.3075  0.1842
21394W        W37011   4.385   0.205   0.343 -0.0495  0.0805 -0.0331
21395W        W37012   2.000   2.432  14.384  0.6101  0.2934 -0.1267
21396W        W37013  13.403  17.312   2.360  0.2796 -0.0736  0.0522
21397W        W37014   3.343  11.573   1.473 -0.3157 -0.1810 -0.3797
21398W        W37015  17.333  15.855  14.717 -0.2756  0.1473 -0.3265
21399W        W37016  16.366   4.706   5.330 -0.1753  0.1700  0.0507
21400W        W37017  15.054  17.633  16.525  0.2407 -0.2300  0.0988
21401W        W37018   8.482  13.899   5.415  0.0351 -0.1204  0.1474
21402W        W37019   3.079  10.970  13.534  0.2709  0.1297  0.1570
21403W        W37020   8.687   7.649  13.534 -0.1135  0.0618 -0.0921
21404W        W37021   9.143   0.748  11.644 -0.1986  0.0072 -0.1295
21405W        W37022   3.149  15.328  16.211  0.2626  0.1469  0.1529
21406W        W37023   0.473   9.261  16.099  0.0314  0.1541 -0.1276
21407W        W37024   6.226  15.698   5.047  0.1380 -0.2073 -0.0696
21408W        W37025   3.913  14.094   5.205  0.1972 -0.0005  0.0584
21409W        W37026   0.784  14.076  13.776  0.0934  0.0244 -0.0229
21410W        W37027  11.806   3.918  14.192 -0.1231  0.1261  0.0068
21411W        W37028   3.765  16.176   4.435 -0.1439 -0.0733 -0.1724
21412W        W37029   3.263   9.673   2.451  0.3077 -0.1508  0.1741
21413W        W37030  14.970  11.635   1.986 -0.0155 -0.0044 -0.1047
21414W        W37031  15.711  16.154   2.056 -0.0071 -0.0244  0.1267
21415W        W37032  15.450  16.249  16.588 -0.2485 -0.0346  0.0175
21416W        W37033   4.624  11.276   5.758  0.0951  0.2623 -0.0107
21417W        W37034   5.472   7.221  13.495  0.1253 -0.0588 -0.1532
21418W        W37035  14.660  16.443   1.780 -0.2581 -0.1646 -0.0531
21419W        W37036   2.914   5.833   5.368 -0.0652  0.3390  0.0108
21420W        W37037   2.133  14.149  13.329 -0.0957 -0.0085 -0.0526
21421W        W37038  12.851   9.638  14.137 -0.3182 -0.1011 -0.1560
21422W        W37039  13.419  11.808   4.575  0.3365 -0.3839  0.2102
21423W        W37040   1.537  13.418   6.366  0.3186 -0.2471 -0.1225
21424W        W37041  12.386   8.203   0.016  0.0053  0.0272 -0.0956
21425W        W37042   5.876  15.823   5.745  0.1881  0.1969 -0.1359
21426W        W37043   9.578  17.570   3.904  0.0951 -0.1612  0.0870
21427W        W37044   7.175  12.087  13.637  0.0668  0.0628 -0.1525
21428W        W37045   7.219  10.502   1.467 -0.0057  0.0270  0.0267
21429W        W37046   9.538   1.673  14.184  0.3590 -0.2086  0.0598
21430W        W37047  10.149   7.066   6.186  0.2602  0.0391  0.4382
21431W        W37048  11.962   9.802  15.267 -0.0162 -0.0257 -0.0607
21432W        W37049   5.893  12.152   1.675  0.1388 -0.1393 -0.3149
21433W        W37050   3.369   5.718  13.531  0.1108 -0.1039 -0.1034
21434W        W37051   9.757  13.885  13.068 -0.0903  0.0711  0.2918
21435W        W37052  11.321   5.128  15.372 -0.0632 -0.0531 -0.4323
21436W        W37053  13.642   2.233   1.717 -0.2620  0.1629  0.0569
21437W        W37054   9.392   2.460  12.015 -0.2088 -0.1103  0.0043
21438W        W37055  16.916   1.563  16.361  0.1750 -0.1885 -0.2272
21439W        W37056  14.755   7.713   5.301 -0.2500  0.0826 -0.1746
21440W        W37057  13.764  14.413   3.231 -0.2845  0.1288  0.0430
21441W        W37058   7.350   6.021   3.624 -0.1574  0.0767  0.0533
21442W        W37059   0.889   7.274   2.188  0.2006 -0.1537 -0.1102
21443W        W37060  11.954  16.900   1.259 -0.0857  0.2370  0.0398
21444W        W37061   9.289  14.559   4.571  0.0693  0.0567  0.0945
21445W        W37062   6.499   3.945   4.837  0.4473 -0.1667  0.0841
21446W        W37063  11.778   1.499   2.953  0.1729  0.2830 -0.0211
21447W        W37064  13.330   4.188   0.109 -0.1374 -0.1719  0.2297
21448W        W37065   0.243  14.455  12.513  0.0160  0.0924  0.1886
21449W        W37066  16.089  10.149  14.225  0.4320  0.1524 -0.0041
21450W        W37067   2.407   1.128   2.391 -0.1611  0.1349  0.0159
21451W        W37068  10.804  13.596   1.726 -0.0424  0.2019 -0.2921
21452W        W37069  15.242   4.795   3.954  0.1832  0.0090  0.2352
21453W        W37070  16.751  12.492  11.926  0.1591 -0.0857  0.1368
21454W        W37071   0.155   8.263  14.843  0.2888  0.1402  0.0390
21455W        W37072  12.444   8.309   5.132 -0.0831  0.2051 -0.3349
21456W        W37073   9.020  12.885   2.947 -0.0505  0.0041  0.2940
21457W        W37074   5.770  14.416  12.082  0.5287  0.0014  0.1144
21458W        W37075  12.225   6.197  15.336 -0.3566  0.0007 -0.1554
21459W        W37076   6.633   7.388   0.368 -0.1600  0.1367  0.0669
21460W        W37077  14.454  17.959   3.403 -0.1454 -0.2658  0.0910
21461W        W37078  15.657  16.038   4.353 -0.0067  0.0926 -0.0023
21462W        W37079  10.275  12.402   0.087  0.5006  0.0323  0.1646
21463W        W37080   1.326   1.677   4.619  0.0147  0.1578 -0.2081
21464W        W37081   3.637   2.205   4.330  0.1844 -0.1784 -0.3092
21465W        W37082  16.608  17.516   4.135 -0.0802  0.0816  0.1061
21466W        W37083   3.957   4.155  13.721  0.1666  0.3170  0.0548
21467W        W37084  12.045   4.655   5.110  0.1661 -0.0540 -0.1948
21468W        W37085   0.076   3.242  15.509 -0.0083  0.0224  0.1743
21469W        W37086  11.430  12.355   2.215 -0.0795  0.3006 -0.1757
21470W        W37087  12.033  10.157   6.229 -0.0916  0.0209 -0.1224
21471W        W37088  16.320   9.775  10.651 -0.0265 -0.1678 -0.2673
21472W        W37089   2.929   1.297  12.852  0.1232 -0.3965  0.1376
21473W        W37090   0.931   2.623  13.586 -0.0129 -0.1881 -0.0752
21474W        W37091   9.185   5.649   6.030 -0.1096  0.0116 -0.1334
21475W        W37092  13.396   8.935  11.743  0.5404  0.2541 -0.4335
21476W        W37093   6.797   3.228  13.973 -0.0216 -0.0416  0.0990
21477W        W37094   8.822  16.662   5.578 -0.0828 -0.0031  0.1323
21478W        W37095  16.327   4.203   5.244  0.1079 -0.0998 -0.0004
21479W        W37096  11.819   8.226  12.005 -0.0787  0.2810  0.1396
21480W        W37097  16.495   6.963   5.321  0.1062 -0.2903  0.0723
21481W        W37098  13.818  10.148   4.393  0.1420  0.2886  0.0834
21482W        W37099  12.918   6.866   6.182 -0.0608  0.0384  0.3526
21483W        W37100  13.613  10.571   6.080  0.1545 -0.0751 -0.1378
21484W        W37101   2.356  16.515  15.578 -0.0580 -0.1266  0.0031
21485W        W37102   7.047   2.224   3.801 -0.0484  0.3567  0.1174
21486W        W37103   3.579   4.250   0.095 -0.0590  0.0011 -0.3468
21487W        W37104   5.025  13.325  15.705 -0.0948 -0.3580  0.0142
21488W        W37105   7.241   0.011   3.004 -0.0343 -0.0155 -0.2341
21489W        W37106  17.321  10.694   0.030 -0.3640  0.1200  0.4422
21490W        W37107   5.573   5.126   3.292  0.0610  0.1855  0.0735
21491W        W37108  15.477   3.998   5.794 -0.1595 -0.0210  0.0946
21492W        W37109   1.563  10.695   5.919  0.3602  0.2303 -0.4934
21493W        W37110   4.186   9.573  13.530 -0.0354  0.0959 -0.2271
21494W        W37111   6.191   7.370   0.546  0.3128 -0.0583 -0.1396
21495W        W37112   2.075  11.716  14.026 -0.1984  0.0472 -0.2882
21496W        W37113   9.101  16.985  12.548  0.0470 -0.0000  0.0718
21497W        W37114   6.362  17.316   5.049  0.0239 -0.1827 -0.0996
21498W        W37115   1.151   5.449  12.886 -0.1473 -0.3597 -0.1332
21499W        W37116   6.658   0.675   5.612 -0.3707  0.1801 -0.3590
21500W        W37117  16.661   5.015  15.139  0.1009 -0.0801 -0.0171
21501W        W37118   5.657  14.289   3.778 -0.0044  0.2567 -0.2766
21502W        W37119   2.237  14.850   2.829  0.1689  0.0364 -0.0095
21503W        W37120  10.145   9.365   3.608 -0.0096 -0.4172  0.1969
21504W        W37121   6.913   0.232   0.968 -0.1239  0.3390  0.1737
21505W        W37122   8.058   4.791  14.654 -0.1896 -0.2743 -0.1885
21506W        W37123   8.046  12.460  14.930  0.4152 -0.0741 -0.2509
21507W        W37124  17.957   5.804  16.156  0.2767 -0.1115 -0.0697
21508W        W37125   1.520   6.206  15.741 -0.0890 -0.3863 -0.0124
21509W        W37126   9.580   6.351  11.193 -0.0255  0.1673 -0.0690
21510W        W37127   0.939   6.642   4.001  0.1589 -0.1723  0.0642
21511W        W37128  10.538  14.233   0.246 -0.1285 -0.1623 -0.0994
21512W        W37129  10.790   3.112   2.518  0.0113  0.3463  0.2421
21513W        W37130  14.694  10.363   2.643  0.1895  0.1202 -0.2367
21514W        W37131  14.579  14.710  15.803 -0.2655 -0.2188 -0.1215
21515W        W37132  12.458   5.905   6.065 -0.3718 -0.1212  0.0487
21516W        W37133   1.995   1.033   2.827  0.0201  0.0833  0.0183
21517W        W37134   9.077  11.455  11.468  0.2857 -0.2668 -0.1893
21518W        W37135  11.494  15.666  16.150  0.0157 -0.2640  0.0313
21519W        W37136  13.688   4.728   0.654  0.0113  0.1519 -0.0473
21520W        W37137   0.889  14.452   0.391 -0.2197 -0.0166 -0.2009
21521W        W37138  10.569  17.219  11.425 -0.1944  0.0813  0.0334
21522W        W37139  16.911   6.431   1.436  0.0186  0.1420 -0.0223
21523W        W37140  17.451   5.318  15.454  0.0071 -0.0660  0.1717
21524W        W37141   7.245  14.111   1.453  0.2096  0.0309  0.1994
21525W        W37142   2.664  13.312   4.033  0.1037 -0.2388 -0.2131
21526W        W37143  14.562   1.079  13.707 -0.0718  0.0698  0.3819
21527W        W37144   9.693  15.642  12.099  0.0993 -0.2687  0.1678
21528W        W37145   7.105  11.619   1.991  0.2458 -0.0800  0.0841
21529W        W37146  12.467  11.874  12.393 -0.3349  0.1797  0.3845
21530W        W37147   5.605  13.310  11.464  0.1123  0.0271  0.2242
21531W        W37148  15.918   5.125  14.344  0.1790  0.3134 -0.0296
21532W        W37149  11.832   2.379   0.257 -0.0901 -0.0564 -0.1992
21533W        W37150  11.025   1.580  16.182  0.1062  0.1206 -0.1189
21534W        W37151  14.412   9.252  14.628 -0.3092 -0.0321  0.0488
21535W        W37152   2.601   5.803   4.354  0.0031 -0.1061 -0.0589
21536W        W37153  17.803  16.920   2.030  0.1331  0.2229 -0.1847
21537W        W37154  12.493   6.024   5.632  0.1038  0.2225 -0.0357
21538W        W37155   0.949   4.667  15.186 -0.0314 -0.1506  0.1526
21539W        W37156   5.727   8.701  11.008  0.1548 -0.0029  0.1737
21540W        W37157  12.894   7.361   4.801  0.1176  0.1418 -0.3867
21541W        W37158  11.074  17.459   0.385 -0.1228  0.0327  0.0599
21542W        W37159   0.398  15.235  13.039 -0.1453 -0.0918 -0.3291
21543W        W37160  12.150  13.044   4.825 -0.1280 -0.0392  0.2258
21544W        W37161  11.857  10.411  16.044 -0.2183  0.0896  0.1361
21545W        W37162   8.637   3.472   1.042 -0.1052 -0.3792  0.0466
21546W        W37163  16.997  10.347  14.145  0.0124 -0.1948  0.3125
21547W        W37164   0.658   1.281  15.767  0.3097  0.0758  0.1834
21548W        W37165   0.200   6.738   1.135  0.0238 -0.1142  0.2497
21549W        W37166  14.589  14.251   0.757 -0.3910 -0.2825  0.0479
21550W        W37167   6.194   0.944   3.907 -0.0603 -0.0599 -0.2774
21551W        W37168   0.551   6.679  14.051  0.0560 -0.1086  0.0159
21552W        W37169   5.182  12.379   5.131 -0.0839 -0.0492  0.0936
21553W        W37170   5.038  13.201   1.025  0.0304  0.0362  0.2137
21554W        W37171   4.403   3.893   1.926  0.0352  0.0042  0.0993
21555W        W37172  17.784   8.515   5.240 -0.2454  0.0633 -0.1857
21556W        W37173   4.191   7.593  16.277 -0.2973  0.4858 -0.1758
21557W        W37174  14.116  11.701  11.207 -0.0004  0.1007  0.2058
21558W        W37175  10.153   4.072   4.922 -0.0820  0.1133 -0.0879
21559W        W37176   5.292   1.119  15.240  0.0422 -0.0658 -0.2109
21560W        W37177   3.104   7.628   2.714  0.1276  0.0850  0.3394
21561W        W37178  12.995  14.363  11.765 -0.3219 -0.1256  0.3318
21562W        W37179   2.796  11.386  12.850  0.1166  0.0279  0.2957
21563W        W37180  16.529   0.555   2.562 -0.1632  0.1791 -0.0553
21564W        W37181   6.167   4.114  11.735  0.1698 -0.2038  0.0679
21565W        W37182   6.752  17.013  11.589  0.2212  0.2666  0.1915
21566W        W37183  11.720   3.275   0.360 -0.1704  0.1587 -0.1741
21567W        W37184   4.991   6.045   4.166 -0.0752 -0.1601  0.0870
21568W        W37185  17.863  12.085   1.065 -0.0782 -0.0513 -0.0101
21569W        W37186   6.684   2.103  13.834 -0.2242  0.2055  0.0456
21570W        W37187  12.874   8.433  13.316  0.0602  0.1817 -0.0519
21571W        W37188   0.722   4.943   3.381 -0.3807  0.2853 -0.0522
21572W        W37189  10.473   9.447  15.070 -0.3425 -0.1854 -0.2657
21573W        W37190   2.848   6.292  14.824  0.0377  0.0726  0.0691
21574W        W37191  11.468  10.206   2.620  0.3402 -0.3171  0.2149
21575W        W37192   0.306   6.216   2.175 -0.0170  0.0261  0.0822
21576W        W37193   5.077   2.683  11.935  0.0970 -0.0416 -0.2004
21577W        W37194  10.485  12.058   3.701 -0.0844  0.0665  0.0691
21578W        W37195  17.361  14.765   5.926  0.3268  0.0638  0.0613
21579W        W37196   1.354   9.279   0.454  0.1060 -0.1285 -0.0741
21580W        W37197   5.381   1.259   2.773  0.1124 -0.1908  0.1495
21581W        W37198   1.419  13.762   5.330  0.2027  0.3006 -0.0019
21582W        W37199   3.703   3.141  13.557  0.3402 -0.1171  0.1281
21583W        W37200  16.629   7.821   0.319  0.2995  0.1549 -0.0762
21584W        W37201  16.262  16.920   4.450  0.0272  0.1656 -0.2636
21585W        W37202   5.496   6.334  13.674 -0.0737  0.1075  0.0819
21586W        W37203  13.202   8.045  11.737 -0.0745 -0.0800 -0.2764
21587W        W37204   5.694   9.685   0.171  0.3026  0.0495  0.2749
21588W        W37205   2.410   1.435  16.760 -0.1088 -0.4220 -0.0836
21589W        W37206  13.965  10.113   0.101 -0.1659  0.0443 -0.1269
21590W        W37207  14.646   6.825  16.246 -0.0400  0.2209 -0.2219
21591W        W37208  11.145   3.669  14.631 -0.0991  0.0598 -0.0229
21592W        W37209  16.144   4.796   2.312  0.0213 -0.0506  0.1806
21593W        W37210  16.963   4.480   3.175 -0.1248 -0.0543  0.0392
21594W        W37211   0.701  17.350   2.746 -0.2474  0.3327  0.0378
21595W        W37212   6.445  13.032  13.324  0.3103  0.1425 -0.1128
21596W        W37213   1.850  12.131  14.391 -0.2879  0.1107 -0.2402
21597W        W37214   3.798   4.780  14.473 -0.0503 -0.1567  0.1772
21598W        W37215   9.752  15.016   4.496 -0.3573  0.0384 -0.0035
21599W        W37216   3.503  14.247  13.613 -0.2211  0.0795 -0.3925
21600W        W37217   0.989  13.047   5.538  0.2248  0.1184  0.3701
21601W        W37218   8.338   5.159   4.915  0.0912  0.0273  0.0831
21602W        W37219  17.633   1.549  13.660  0.0540  0.2201 -0.0157
21603W        W37220   3.269   2.888   1.051 -0.1289 -0.0033 -0.1710
21604W        W37221  14.484   8.577   2.283 -0.0531 -0.0719  0.0712
21605W        W37222  10.686   8.624   2.788 -0.1487 -0.0694  0.4803
21606W        W37223  15.159   0.578  14.863 -0.0111 -0.0296 -0.1199
21607W        W37224   7.290   6.858   2.423  0.0030  0.2628  0.1566
21608W        W37225   6.335   7.656  11.433  0.3125  0.3353 -0.1682
21609W        W37226   4.821   4.720  14.863 -0.0895 -0.0745 -0.1333
21610W        W37227   6.329   5.790   4.661 -0.2078  0.1549 -0.2743
21611W        W37228   5.837  10.980  16.549 -0.2852 -0.0330 -0.0910
21612W        W37229   8.963  12.194  11.560  0.1426  0.0476  0.1516
21613W        W37230  16.826   0.153   1.793 -0.0389 -0.0343 -0.3684
21614W        W37231  11.933   3.933   5.702 -0.2420  0.0400  0.0559
21615W        W37232  17.043   9.949  15.038 -0.1096 -0.3312 -0.1937
21616W        W37233   9.362   3.375  12.520 -0.1126 -0.1487  0.0209
21617W        W37234  15.368  16.867  12.083  0.1526  0.1495  0.4120
21618W        W37235   7.941  13.549   3.961 -0.2110 -0.2949  0.1065
21619W        W37236  16.004   8.231   0.817  0.1549  0.3593 -0.0618
21620W        W37237  12.242  10.589   3.101  0.0727 -0.1361  0.0894
21621W        W37238   9.015  11.471  14.931 -0.0944  0.2782  0.0339
21622W        W37239   3.659   4.756   0.257  0.0169  0.1665  0.3354
21623W        W37240   3.267   0.184   6.201 -0.0070  0.0441 -0.0741
21624W        W37241  14.584  17.586  12.355  0.1083 -0.4638  0.0522
21625W        W37242   7.011   2.706   1.044  0.0905 -0.1530 -0.3515
21626W        W37243   1.663  14.036  13.210  0.3618 -0.0152  0.1551
21627W        W37244   7.430  12.564  14.840 -0.0634 -0.0115  0.2014
21628W        W37245  13.827  10.510  14.923  0.1037 -0.3200 -0.1507
21629W        W37246   1.988   6.978  13.380  0.0623 -0.3129 -0.1623
21630W        W37247   5.618   8.939  12.903 -0.2049 -0.0594 -0.2075
21631W        W37248  14.356   4.113  14.678 -0.0127  0.0503 -0.2248
21632W        W37249   1.473  11.920   0.801  0.1576 -0.0528 -0.1395
21633W        W37250   2.701  10.396   4.300 -0.0759 -0.2284  0.1608
21634W        W37251   7.282   8.996  15.269 -0.1169  0.1601 -0.1879
21635W        W37252  11.109  12.749  16.718  0.2486 -0.1113 -0.1878
21636W        W37253   1.079  10.603   0.225  0.2636  0.2338  0.1068
21637W        W37254   5.157   4.296   2.276  0.1887 -0.1492  0.0721
21638W        W37255   8.087   2.879  12.275  0.0020  0.2734  0.1256
21639W        W37256   7.916  12.836  15.764  0.1898 -0.2617  0.1024
21640W        W37257   8.421   3.902   3.062 -0.0025  0.0380 -0.0627
21641W        W37258  14.104  17.190   5.959  0.0442 -0.0171 -0.0197
21642W        W37259   3.413   6.530  12.351  0.0340 -0.0144 -0.3348
21643W        W37260   5.040  11.727  12.075 -0.0351 -0.1176  0.1037
21644W        W37261   7.096  16.760  15.600  0.2647  0.2118 -0.0871
21645W        W37262   3.931  11.767  16.441 -0.0415  0.2654 -0.2094
21646W        W37263  12.641  12.264  11.745  0.2005  0.1610  0.1828
21647W        W37264  11.997  16.098  16.077  0.0430  0.0626 -0.3415
21648W        W37265   8.496  17.083   4.610  0.2957  0.0657  0.1799
21649W        W37266   9.680   8.020  15.952  0.1690  0.1047  0.1839
21650W        W37267   2.360  15.379   1.429 -0.1242 -0.1659 -0.0585
21651W        W37268  17.375   8.064   2.650 -0.3608 -0.0131  0.1400
21652W        W37269  13.535  13.939   0.067  0.1400  0.0562  0.2475
21653W        W37270  16.666   9.273   5.146  0.2368  0.1338  0.0240
21654W        W37271  10.759   1.233   4.637 -0.1135 -0.0454  0.1321
21655W        W37272  15.725   0.021  15.010 -0.1094 -0.3554  0.0206
21656W        W37273  11.274  12.926   3.331  0.2413 -0.2034  0.1815
21657W        W37274   1.207   9.527   2.837  0.2538  0.3969  0.2176
21658W        W37275  12.988  10.601   4.305  0.1189 -0.2890  0.3686
21659W        W37276   2.768   1.273   5.188  0.1504  0.0073  0.3790
21660W        W37277   9.660  11.788  10.843 -0.0487  0.4013  0.2725
21661W        W37278   2.311   8.946   0.280  0.2460 -0.4764 -0.2857
21662W        W37279  12.063  14.017  12.282  0.1417  0.2590  0.0692
21663W        W37280  14.701  12.290  13.776  0.2361 -0.2427  0.0719
21664W        W37281   9.278   8.984  16.127  0.1015  0.0185 -0.3451
21665W        W37282   8.000  11.023   3.362 -0.0634 -0.1174  0.0883
21666W        W37283  12.079  12.468   0.774  0.0288  0.4450 -0.1583
21667W        W37284   4.294  10.590  12.887  0.2034  0.0145  0.2024
21668W        W37285  14.371   6.787   4.746 -0.0658  0.1040  0.0723
21669W        W37286   9.846  12.509  14.583  0.0476 -0.4760 -0.0090
21670W        W37287  10.794  15.915  13.061  0.1714 -0.0406 -0.0284
21671W        W37288  12.667   9.951  10.653  0.1357 -0.0411  0.1014
21672W        W37289   2.066   0.713  13.477 -0.0376 -0.2079 -0.1668
21673W        W37290  17.896  10.548   4.263  0.0247  0.0214 -0.2142
21674W        W37291   9.065  14.524  13.167 -0.1618 -0.0710  0.0387
21675W        W37292   8.156  10.652  13.120 -0.1096  0.1962 -0.1946
21676W        W37293  16.957   3.607   0.367 -0.2967  0.1280 -0.1041
21677W        W37294   4.731  12.146  14.340  0.0040 -0.0400  0.3076
21678W        W37295   0.200   9.742   0.739 -0.0550 -0.0750 -0.0854
21679W        W37296   7.533   3.946  14.337 -0.0334  0.0574  0.2898
21680W        W37297  11.123   0.648   6.295 -0.2181 -0.1871  0.2008
21681W        W37298   2.717  10.623   1.256  0.1459 -0.2534 -0.1040
21682W        W37299   3.609  14.600  15.749 -0.0442  0.0879  0.0799
21683W        W37300   7.685   8.161  15.334 -0.1090 -0.0256 -0.2586
21684W        W37301   7.041  12.304   3.258 -0.3060 -0.1069 -0.4008
21685W        W37302  11.205   0.002   5.685 -0.1065 -0.1613 -0.0076
21686W        W37303  13.615   7.349   0.899  0.1188  0.1501 -0.0391
21687W        W37304  17.440  17.281   2.712  0.2427  0.0776 -0.1019
21688W        W37305   8.970   2.916  12.554 -0.3143  0.1791 -0.2640
21689W        W37306   9.087   5.834  15.538  0.3223  0.1870  0.1381
21690W        W37307   2.996  13.677  12.296 -0.0044  0.1600  0.0745
21691W        W37308  16.990  11.874  16.616  0.3382  0.1175 -0.0427
21692W        W37309  17.388   7.196  16.630 -0.0587  0.0464 -0.1901
21693W        W37310  12.464   0.987  16.355  0.0654  0.1182 -0.3684
21694W        W37311   9.828  17.621  13.857 -0.1826 -0.3153 -0.4074
21695W        W37312   2.198   4.492  11.927  0.0260 -0.0168 -0.0032
21696W        W37313   7.308   0.613   1.218 -0.1920 -0.2245 -0.0422
21697W        W37314   8.209  11.740   1.107 -0.2316  0.1245  0.0207
21698W        W37315   8.020  18.032   4.153 -0.2552 -0.4397  0.0735
21699W        W37316   1.641   5.335   1.541  0.0629  0.3145 -0.1851
21700W        W37317  17.458   3.736   4.265 -0.0305  0.0542 -0.2860
21701W        W37318  16.645   4.396   0.965  0.1739  0.0693  0.1132
21702W        W37319  17.835   8.760   4.617  0.0410  0.1630  0.0554
21703W        W37320  11.377  16.335   0.092 -0.0219  0.4470 -0.4220
21704W        W37321  11.438  17.095   1.410  0.0805 -0.2214 -0.0894
21705W        W37322   9.164   3.612   1.123  0.0424  0.3046 -0.0162
21706W        W37323   7.477   6.986   2.938 -0.1022 -0.2389  0.1211
21707W        W37324  15.022  16.550  16.444 -0.2367  0.0068 -0.0821
21708W        W37325   8.248   2.347   4.719 -0.0740 -0.1784 -0.2485
21709W        W37326  10.163   3.324   6.369  0.1066 -0.0982 -0.1397
21710W        W37327  10.438  16.902  16.050  0.0654 -0.3535  0.1759
21711W        W37328  12.952  14.783  13.697  0.0021 -0.0356 -0.0379
21712W        W37329   4.706   0.779   0.574 -0.1319 -0.0057  0.0305
21713W        W37330   9.549  15.274  15.038 -0.0138  0.1106 -0.1253
21714W        W37331  14.760   8.269   1.990 -0.0108  0.0892  0.0073
21715W        W37332   6.139  10.981  16.123 -0.0583  0.2265  0.2918
21716W        W37333   6.413   8.250   0.800 -0.0801 -0.0121  0.0424
21717W        W37334   6.872   6.341  15.358  0.1207 -0.4228  0.0649
21718W        W37335  16.112   3.381  12.899 -0.0595  0.1126  0.3602
21719W        W37336   4.442  17.926   2.923 -0.0270 -0.2686 -0.4209
21720W        W37337  14.627   2.669  16.644 -0.0251  0.0211  0.1615
21721W        W37338  15.570  12.804   0.272  0.1584 -0.2248 -0.0104
21722W        W37339  13.241  18.023   5.245 -0.3944  0.2781  0.4821
21723W        W37340  12.384  15.943   1.873  0.0856 -0.0873  0.0749
21724W        W37341   2.835   8.933   0.394  0.3145  0.2468  0.1248
21725W        W37342   9.671  11.973  14.292  0.0159 -0.2165 -0.1634
21726W        W37343  17.760   7.256  13.425 -0.2124  0.3987  0.0858
21727W        W37344  15.230   9.744  13.778  0.0573 -0.3363 -0.2374
21728W        W37345   0.775  15.408  14.446  0.1540 -0.0121  0.2169
21729W        W37346  16.248  11.186   2.316 -0.1309 -0.0157 -0.3346
21730W        W37347   1.298   2.471   3.273  0.4043  0.0351  0.0047
21731W        W37348   2.182  17.225  12.475  0.0010  0.2766  0.0046
21732W        W37349  17.174   0.831  16.794 -0.1873  0.0683 -0.1741
21733W        W37350  15.729   4.921  15.299  0.0247 -0.0244  0.2447
21734W        W37351   8.780   1.812   5.540 -0.2077 -0.1025  0.1095
21735W        W37352   3.689  13.330  16.482 -0.1641 -0.1069  0.2325
21736W        W37353   3.395  15.888  16.358 -0.1147 -0.0925 -0.1850
21737W        W37354  12.668  13.986   4.981 -0.0722  0.2682  0.2277
21738W        W37355   4.679   9.700  16.487 -0.2125  0.2445  0.2212
21739W        W37356   0.356  10.240   5.543 -0.1517  0.1043  0.2360
21740W        W37357  17.043  11.926  11.930 -0.1262 -0.3514 -0.0046
21741W        W37358   9.856   8.167   0.537  0.2585  0.2506  0.0078
21742W        W37359   1.530   5.917   4.723 -0.2997  0.0246 -0.0683
21743W        W37360  10.700  10.312   0.876  0.1414  0.0260  0.1300
21744W        W37361   8.280  14.287  10.599 -0.3481 -0.0015 -0.2109
21745W        W37362   9.288  14.464  15.607  0.3322 -0.0588  0.3202
21746W        W37363   6.009  13.369   3.010 -0.0197 -0.0905  0.2802
21747W        W37364   3.818  15.621  11.387  0.0758  0.2751 -0.1413
21748W        W37365  13.686   6.037   0.562  0.0645 -0.2042 -0.2871
21749W        W37366   2.144   9.959   2.704  0.1389  0.1216  0.3739
21750W        W37367  16.071  16.549   3.528 -0.0789 -0.0226 -0.0805
21751W        W37368   7.353   2.587  13.920 -0.0771  0.2972 -0.1953
21752W        W37369   0.099  11.567   3.193 -0.1576 -0.3551  0.0815
21753W        W37370   6.467  17.294   2.378  0.2039 -0.1963  0.0864
21754W        W37371  11.266   9.575  11.104  0.3023  0.2651 -0.2985
21755W        W37372  15.322   0.511   0.638 -0.2178 -0.1603  0.0722
21756W        W37373  12.909   4.792  15.290 -0.2959 -0.0533  0.1967
21757W        W37374   7.851  13.963  11.717 -0.1864 -0.0331  0.0370
21758W        W37375   7.517  16.018  11.828  0.2775 -0.0433  0.1398
21759W        W37376   0.383  14.031  15.411  0.0391 -0.0766  0.0303
21760W        W37377  11.162   4.607   2.461  0.0335  0.1479  0.0903
21761W        W37378  13.318   4.590  16.112 -0.1426  0.2411 -0.4093
21762W        W37379   3.891  15.798  11.876  0.1438 -0.0481 -0.0519
21763W        W37380  16.005   5.133   0.691  0.0779 -0.3315 -0.1381
21764W        W37381   1.657   3.856   2.322 -0.0352  0.3069  0.0979
21765W        W37382   1.040  15.878   5.309 -0.0710  0.1448 -0.1125
21766W        W37383   7.556  12.012  12.055 -0.2340 -0.4312 -0.1180
21767W        W37384   7.527  16.881   5.308 -0.0013  0.2084  0.1920
21768W        W37385   8.940   2.042  13.257 -0.2154 -0.0162 -0.1494
21769W        W37386  10.964   7.782  16.343  0.1114  0.0610  0.0306
21770W        W37387   3.602   4.279   2.678  0.1467 -0.1762 -0.0035
21771W        W37388  14.663  11.942   2.699  0.0716 -0.2180 -0.1179
21772W        W37389  17.633   7.727  16.385  0.0747 -0.3062 -0.0032
21773W        W37390   1.688  17.168   3.153  0.1587  0.2227  0.0359
21774W        W37391   7.043   7.708  16.157  0.0436  0.3297  0.2627
21775W        W37392  14.594  14.556  13.850  0.0838 -0.4481 -0.1044
21776W        W37393  11.275  10.399   3.720 -0.1531 -0.3694 -0.0420
21777W        W37394   8.006   3.350   4.265 -0.0483  0.0922  0.1141
21778W        W37395   8.905  18.009   2.294  0.0277  0.1676  0.1123
21779W        W37396  15.424  14.066  13.060  0.0333  0.0557  0.4909
21780W        W37397   3.276  16.400   1.521 -0.1284 -0.0989  0.3124
21781W        W37398   7.714  12.505   1.165  0.1281 -0.2666 -0.0302
21782W        W37399   7.011   7.572   4.434 -0.0910 -0.0721 -0.2421
21783W        W37400   9.284   5.758   5.552 -0.1812  0.1636 -0.1733
21784W        W37401  13.731  14.109   1.084 -0.0271  0.1636  0.0684
21785W        W37402   3.038   4.351  11.745 -0.0189 -0.0406 -0.0303
21786W        W37403   7.470   7.818  14.771 -0.2327  0.0392 -0.0486
21787W        W37404   8.898   9.485  11.532  0.2459 -0.0901 -0.0866
21788W        W37405   5.395  15.889  11.999  0.2936  0.0173 -0.2773
21789W        W37406  16.460   9.124  11.818  0.2272  0.2078  0.1343
21790W        W37407   3.922   3.501   5.556  0.0066  0.2052 -0.1410
21791W        W37408   2.212  10.925  15.262  0.4123  0.1324  0.0589
21792W        W37409   7.605  10.108   5.360 -0.1306 -0.0380 -0.3755
21793W        W37410  15.279   0.665  11.135 -0.1283 -0.1228  0.2869
21794W        W37411   2.601  10.110   5.065 -0.1004  0.1290 -0.0852
21795W        W37412  17.965   1.593   1.015 -0.1024 -0.0042  0.1967
21796W        W37413  11.451   1.939  14.576  0.2967  0.1673 -0.3142
21797W        W37414   0.916  12.411   2.987  0.4514  0.0964  0.0727
21798W        W37415  12.825  14.100  16.121 -0.0856 -0.2031  0.0730
21799W        W37416  12.232  10.680   0.145 -0.1891  0.1771 -0.0786
21800W        W37417  17.291  11.865  16.218  0.1516  0.1505 -0.2485
21801W        W37418  12.775  17.005  16.781 -0.0969  0.1009 -0.0502
21802W        W37419  16.086  14.512  16.548 -0.2087  0.4150 -0.0686
21803W        W37420  16.697   4.801   3.994  0.1585 -0.3470 -0.4086
21804W        W37421   8.962   4.695  12.743  0.1750  0.0135 -0.0490
21805W        W37422   2.048  15.477  14.170  0.3858 -0.0656  0.0781
21806W        W37423  12.911  12.244  11.194  0.0018  0.1458 -0.0614
21807W        W37424  17.613  13.513  10.914 -0.0714  0.1875  0.2293
21808W        W37425   5.422  15.668   3.963 -0.0932 -0.2161 -0.0216
21809W        W37426   9.308  12.864  15.168 -0.2910 -0.1950  0.2109
21810W        W37427  17.546  15.867   0.971  0.1304 -0.1679  0.2143
21811W        W37428  18.005   7.914   5.791  0.0806  0.0986 -0.0119
21812W        W37429  14.429  15.353  13.155 -0.2654  0.2073 -0.2101
21813W        W37430   2.260   4.119  15.065 -0.0434  0.0429  0.2475
21814W        W37431   3.192  10.528   3.567  0.0214  0.0693 -0.3070
21815W        W37432   0.628   2.312   4.362 -0.0394 -0.1400 -0.1987
21816W        W37433   2.145  11.386   1.643 -0.3832 -0.0882  0.1285
21817W        W37434   9.960   7.106   3.714 -0.1775 -0.0212  0.1785
21818W        W37435   9.535   2.022   1.278  0.4139  0.0301 -0.0449
21819W        W37436   0.462   7.243  15.706 -0.0801  0.2483 -0.4094
21820W        W37437   0.506  16.052   4.880 -0.1729 -0.0033  0.2387
21821W        W37438   6.209  14.753  14.830 -0.0259 -0.2037 -0.2438
21822W        W37439  11.751   2.111  16.114 -0.0841  0.0597  0.3499
21823W        W37440  12.238  15.398   0.405  0.1347 -0.0505  0.1669
21824W        W37441  13.287   8.230  12.299 -0.0459  0.1872  0.1725
21825W        W37442   5.091  10.816  11.971 -0.0150 -0.1636 -0.1290
21826W        W37443   2.466  11.208   0.455  0.0183 -0.1156 -0.1705
21827W        W37444   6.257  11.069   4.736 -0.3091 -0.3114 -0.0993
21828W        W37445  10.391  14.418   3.418  0.1811  0.1058 -0.3214
21829W        W37446  10.052   4.831   4.924 -0.1010 -0.0798 -0.2290
21830W        W37447   9.952   0.051  15.862  0.1098  0.0581  0.2982
21831W        W37448   9.802  13.031   0.450 -0.0413 -0.0129 -0.1043
21832W        W37449  16.974  12.719  16.299  0.4163 -0.1821 -0.1594
21833W        W37450   0.238   6.311   6.758  0.1467  0.2712 -0.2721
21834W        W37451   2.517  10.537   1.710 -0.4305 -0.0385  0.1672
21835W        W37452   3.248   0.921  15.438  0.1367 -0.1068 -0.0380
21836W        W37453  15.295   6.945   1.398  0.5138 -0.2722 -0.1563
21837W        W37454  14.422  16.160  13.818 -0.3870 -0.1092  0.2348
21838W        W37455  17.800  13.358  13.549  0.0599  0.0730  0.3293
21839W        W37456   3.752  13.969  11.606  0.1205  0.1549 -0.1509
21840W        W37457  17.783   2.212   5.673  0.0251  0.0728  0.3016
21841W        W37458  12.949  12.000  10.584  0.0492  0.1907  0.3383
21842W        W37459  10.172   1.433   4.662 -0.1921  0.0886 -0.2371
21843W        W37460   3.279  14.688  13.606  0.0478 -0.1625  0.0550
21844W        W37461   0.722   3.436  11.043 -0.0901  0.0921 -0.0181
21845W        W37462  17.724   6.481  12.728  0.0463  0.1097 -0.2613
21846W        W37463  14.610   2.545   4.532  0.2324 -0.3768  0.0386
21847W        W37464  10.767   0.908   5.602 -0.0655  0.1449  0.1427
21848W        W37465  13.028  14.939   2.701 -0.1565 -0.1633  0.0307
21849W        W37466  16.322   9.327  16.064 -0.0857 -0.0600 -0.3294
21850W        W37467   9.217  15.719   2.981 -0.0957 -0.1607  0.1018
21851W        W37468   8.893   7.584   0.562  0.0345 -0.1595  0.2142
21852W        W37469   6.445  14.033   4.941 -0.2351 -0.0566 -0.1393
21853W        W37470   6.949   6.741  16.439  0.1811  0.0415  0.1607
21854W        W37471   7.108   4.019  13.819  0.1219  0.3086  0.2717
21855W        W37472   3.723  15.840  13.690 -0.0702 -0.3212  0.4319
21856W        W37473   4.268   4.013   0.589  0.1877 -0.1031 -0.2424
21857W        W37474   7.280  11.025  16.433 -0.1184  0.2465 -0.0211
21858W        W37475   5.720  15.168   1.139 -0.1064  0.2628 -0.1282
21859W        W37476   8.200  13.728   0.222  0.1958 -0.1560  0.1519
21860W        W37477  12.436   0.966   0.798  0.1277  0.5889 -0.3589
21861W        W37478   6.491  13.510  13.114  0.0000 -0.0900  0.0962
21862W        W37479   3.203  10.271   4.418 -0.0283 -0.0415 -0.1716
21863W        W37480   0.374   5.114   3.638 -0.3318  0.0752  0.1287
21864W        W37481   3.257  17.799  13.840  0.0379 -0.3456  0.4969
21865W        W37482   7.390  15.670  14.649 -0.2091  0.1369  0.2782
21866W        W37483  14.943  12.794  16.252 -0.0793 -0.0789 -0.2068
21867W        W37484   7.995   7.457  11.857 -0.1557 -0.3911  0.1385
21868W        W37485  10.562  16.741   5.795  0.0417  0.0137  0.0266
21869W        W37486   6.108  13.083  11.558 -0.0120  0.1309 -0.0897
21870W        W37487   7.731   3.513  12.829 -0.1678 -0.0795  0.3269
21871W        W37488   7.020   6.459  14.861  0.0130 -0.3335  0.1073
21872W        W37489   5.004  10.407   4.941  0.1094  0.1068 -0.2838
21873W        W37490   0.245  15.570   5.637 -0.2323  0.1991  0.3436
21874W        W37491  12.500   3.741  15.874 -0.0539  0.0121 -0.2612
21875W        W37492  17.889   6.280   4.441  0.1938  0.2527 -0.2901
21876W        W37493   1.349   7.005   3.727 -0.2517 -0.1120 -0.1008
21877W        W37494  12.226   9.382  12.299 -0.0418  0.1833 -0.1473
21878W        W37495   7.924   0.954  14.416  0.0406 -0.3800  0.1431
21879W        W37496   6.096   3.060  16.343 -0.1629  0.0726 -0.1320
21880W        W37497  16.741   9.921   2.598  0.1122 -0.0139  0.0363
21881W        W37498   7.654   4.718   0.977  0.0221 -0.0260  0.2596
21882W        W37499   6.000  14.877  15.333  0.1800  0.3802  0.1183
21883W        W37500   0.016   2.108  12.196 -0.2132  0.2444 -0.3289
21884W        W37501  17.988   2.954   2.687  0.2831 -0.0528  0.3523
21885W        W37502   6.881  15.198   4.673 -0.1665 -0.2359 -0.0212
21886W        W37503   0.287  11.295   2.227 -0.1674 -0.1828  0.2992
21887W        W37504  12.993   9.079  13.372 -0.0833  0.1047 -0.0794
21888W        W37505   9.242   7.004  12.436 -0.0831  0.3056  0.0305
21889W        W37506  10.865  17.413   3.662  0.0768  0.0870 -0.2976
21890W        W37507  12.065  16.184  11.902  0.0994  0.1595  0.2870
21891W        W37508   8.087  15.663   2.746  0.2481  0.0768 -0.0232
21892W        W37509  15.492   4.999  12.339 -0.0678  0.2098 -0.0956
21893W        W37510   8.294   8.371   0.440  0.0124 -0.0762 -0.0975
21894W        W37511   5.038  13.488  14.283  0.0020  0.0642 -0.2300
21895W        W37512   5.218  14.433  16.464  0.0546 -0.2332 -0.2284
21896W        W37513   1.939  12.037  16.221 -0.0543 -0.2623  0.2697
21897W        W37514   4.366   2.654  14.992  0.2696  0.1459 -0.0997
21898W        W37515  14.100   9.513   2.440 -0.0514 -0.0216 -0.0198
21899W        W37516  16.626  15.992   2.940  0.2092  0.0848 -0.3829
21900W        W37517   9.650  13.394  15.101 -0.0282 -0.1495  0.0974
21901W        W37518   0.705  15.105  12.675  0.0253  0.2138 -0.1385
21902W        W37519  11.491   7.491   5.371 -0.1411 -0.0757  0.0450
21903W        W37520   5.292  13.196  15.150  0.1927  0.4137  0.0710
21904W        W37521  16.667   7.213  15.497 -0.1391  0.0710  0.0534
21905W        W37522   3.928  16.903   0.393 -0.2053  0.1343 -0.1536
21906W        W37523   8.858  11.040   3.872 -0.1433  0.1730 -0.2315
21907W        W37524  16.909   6.172  13.169  0.0663 -0.4942 -0.0955
21908W        W37525   7.208   8.472   3.268 -0.2482  0.1377  0.2307
21909W        W37526   7.946   0.043   5.387 -0.1362 -0.0677 -0.2151
21910W        W37527  13.001   3.165   4.519 -0.0278  0.3668  0.1441
21911W        W37528   8.254   8.276   1.251  0.2958 -0.2891 -0.0015
21912W        W37529   2.998   7.344   0.393 -0.0296 -0.2771 -0.3171
21913W        W37530  11.435  10.213   5.209  0.0422  0.2212 -0.1046
21914W        W37531  11.250   7.082   5.746 -0.0608 -0.2989 -0.1941
21915W        W37532  16.573  13.465   3.923  0.0009  0.0273  0.0610
21916W        W37533   2.507  15.473  11.674 -0.2169  0.0202 -0.0527
21917W        W37534   4.122  15.510  15.004 -0.0611 -0.0341  0.0372
21918W        W37535  17.235   3.690   1.381 -0.1231  0.1635  0.2458
21919W        W37536  12.888   2.905   1.521  0.1781 -0.2559  0.1233
21920W        W37537  16.911   2.157   3.023 -0.2064  0.0059  0.4269
21921W        W37538   0.371   8.454   3.528 -0.1266  0.1598 -0.0813
21922W        W37539  14.798   2.100   2.203  0.0090 -0.1467 -0.2610
21923W        W37540   1.467   4.642   3.904 -0.1763  0.1062 -0.0933
21924W        W37541   7.791   1.630  11.168 -0.0873 -0.1380  0.0139
21925W        W37542  10.195  10.511   0.724  0.0384  0.2220  0.1965
21926W        W37543   3.558  13.970   1.413 -0.1938  0.1474 -0.1261
21927W        W37544   3.920   3.110  12.236  0.1391  0.0631 -0.1932
21928W        W37545  14.612   7.613   2.236  0.0460  0.0701  0.1230
21929W        W37546   9.630  10.903  11.168 -0.2385 -0.0920 -0.2532
21930W        W37547  17.767   3.930  15.002 -0.2420  0.0181  0.1101
21931W        W37548   2.848   3.504  13.428 -0.4015  0.2583 -0.1445
21932W        W37549   5.956  10.729   5.276 -0.1590 -0.0250  0.1147
21933W        W37550   1.672   7.478  15.305 -0.1874  0.1507  0.1375
21934W        W37551  13.667   0.504   1.668 -0.1478  0.1253 -0.0892
21935W        W37552  11.384   0.010   4.754 -0.1826  0.3476 -0.0763
21936W        W37553  10.984  14.476   0.209 -0.0590  0.1021 -0.1143
21937W        W37554   9.009  14.027  14.381 -0.0190 -0.0339  0.0380
21938W        W37555   3.688   7.500  12.959 -0.1190  0.3548 -0.0243
21939W        W37556   3.603   6.592  13.569  0.2366 -0.0419  0.3632
21940W        W37557  12.651   6.210   5.141 -0.3849  0.0252 -0.3387
21941W        W37558   8.653   6.841   4.365  0.2673 -0.2715 -0.1364
21942W        W37559  12.783  13.570  16.503 -0.1009  0.2301  0.0649
21943W        W37560   9.375  15.078  11.652  0.2339  0.1466 -0.0651
21944W        W37561  14.585  15.475   0.612  0.2919 -0.0811  0.0339
21945W        W37562   8.021   2.339   0.196 -0.2347 -0.1510  0.1046
21946W        W37563  15.279   3.140  15.124  0.4577  0.1546 -0.1400
21947W        W37564  15.288  10.658   3.484  0.0612  0.0601 -0.3434
21948W        W37565   7.648  15.270   2.877 -0.2278  0.3374 -0.0634
21949W        W37566  14.469  11.262   0.826 -0.1350 -0.1548 -0.0251
21950W        W37567  14.048   4.198   2.266 -0.0919 -0.2410 -0.1497
21951W        W37568  11.722   3.340   1.947  0.1825 -0.2059  0.4473
21952W        W37569   3.436   3.891   4.627  0.0834 -0.0050 -0.3027
21953W        W37570   5.958   3.440   5.923 -0.1722 -0.0011 -0.0631
21954W        W37571   7.918  14.866  11.574 -0.0340 -0.2759  0.0469
21955W        W37572  11.494  17.173   5.609  0.2345 -0.0551 -0.4345
21956W        W37573  15.912  12.483   6.594  0.0717  0.4513 -0.0704
21957W        W37574   3.120  15.039  11.034  0.0256 -0.0928 -0.2386
21958W        W37575   6.098   1.466  13.222  0.0682 -0.0722 -0.0116
21959W        W37576  13.991  11.953   4.590  0.1002  0.0035  0.0782
21960W        W37577  10.358   3.930   2.479  0.1864 -0.0758  0.2598
21961W        W37578   0.044   7.284   3.513  0.1087 -0.0842 -0.0886
21962W        W37579   4.740   7.262  11.989  0.1064  0.3388  0.0541
21963W        W37580   6.337  15.395   3.082  0.2590  0.0535 -0.0944
21964W        W37581   4.902   3.864  16.606 -0.0117 -0.1196  0.1155
21965W        W37582   8.970   8.166   5.471 -0.0914 -0.2356 -0.1398
21966W        W37583   4.869   1.604  11.972  0.1608  0.2158  0.1471
21967W        W37584  12.771   4.890   3.228  0.0635  0.0230  0.0167
21968W        W37585   6.587  11.822   0.785 -0.1527  0.0971 -0.1554
21969W        W37586  11.558   1.477   4.276 -0.0093 -0.1130  0.1009
21970W        W37587   2.418  13.851  13.656 -0.0402  0.0024 -0.1344
21971W        W37588  10.939   0.622  16.698 -0.0599 -0.0371 -0.0629
21972W        W37589   7.930   7.292   2.807  0.0784 -0.3088  0.0105
21973W        W37590  15.864  10.394   5.777 -0.1829  0.0510  0.1123
21974W        W37591   0.320  17.770  16.766  0.0528 -0.0701 -0.2942
21975W        W37592  17.861  10.101  14.509 -0.1969 -0.0621 -0.0985
21976W        W37593  14.208   1.103   0.171  0.0191  0.0542 -0.1327
21977W        W37594   7.849  16.603  12.196  0.0510 -0.0752 -0.0112
21978W        W37595   2.641  14.873  13.453  0.0751  0.0742 -0.1985
21979W        W37596  16.992  11.727   3.053  0.4242 -0.3905 -0.0367
21980W        W37597   4.666  13.364  13.573 -0.0487 -0.1768  0.4817
21981W        W37598  13.676   5.387  13.965 -0.1293  0.0135 -0.1332
21982W        W37599   3.190   3.537  11.541  0.0765  0.0136 -0.0911
21983W        W37600   8.169   2.162   1.035  0.0208  0.2165 -0.1570
21984W        W37601   0.342   9.288   0.277 -0.3704 -0.1520  0.2270
21985W        W37602  12.887  17.209   2.181  0.0723  0.1520  0.2406
21986W        W37603  15.138  15.611  12.446 -0.1995 -0.0326  0.0972
21987W        W37604  11.502   5.442  16.254  0.1248 -0.2861 -0.0172
21988W        W37605   5.836   2.255  12.575  0.1423 -0.0934 -0.3057
21989W        W37606   6.977  15.814  16.585 -0.1073  0.0935 -0.0489
21990W        W37607   2.033  17.885   2.853 -0.0669 -0.0688  0.1298
21991W        W37608   6.015  14.508   2.589  0.3879  0.1134  0.0443
21992W        W37609   8.452   0.082   2.631 -0.1180  0.0944  0.1455
21993W        W37610  13.838  17.126  16.093  0.0204 -0.1161  0.0653
21994W        W37611  16.958   2.074   4.728  0.1005 -0.2028 -0.2911
21995W        W37612  10.645   4.316  11.757  0.0302  0.1570 -0.0017
21996W        W37613   5.233  12.438   4.527  0.1680 -0.1014  0.0651
21997W        W37614  17.951  13.302  14.344 -0.0210 -0.2175  0.1277
21998W        W37615   5.413  13.962   3.498  0.2120  0.0017  0.0421
21999W        W37616   8.062   1.891   0.513 -0.1850  0.0113 -0.0886
22000W        W37617  10.031   4.295   4.085  0.1313  0.2017 -0.1467
22001W        W37618  10.859   3.053  16.187  0.1309 -0.0108 -0.1289
22002W        W37619  11.794  16.304   3.197  0.2216  0.0798  0.0724
22003W        W37620  15.654  15.839  13.107 -0.2032  0.1841 -0.2083
22004W        W37621  11.497   8.654  16.449 -0.0393 -0.1358  0.2052
22005W        W37622  17.674   6.755  12.154  0.3902 -0.0715 -0.2105
22006W        W37623  11.222  14.590   1.992 -0.0350  0.2525 -0.1043
22007W        W37624  13.843  14.248  16.125 -0.4366  0.1247  0.0347
22008W        W37625  15.896  17.722   3.767 -0.2954  0.3432 -0.0915
22009W        W37626  12.367   8.671  16.707  0.0435 -0.3563  0.1674
22010W        W37627   7.718  10.760  16.584  0.0789  0.2326 -0.0848
22011W        W37628  12.765  14.968   3.254 -0.0325  0.1659  0.0103
22012W        W37629   4.037   0.078  14.561 -0.3178  0.0390  0.0373
22013W        W37630   4.992  10.016  12.294  0.1043 -0.1811 -0.0604
22014W        W37631   7.488   7.857  15.672  0.1795  0.2219 -0.0722
22015W        W37632  13.372   5.045  13.112 -0.0794  0.1233 -0.2067
22016W        W37633  15.477   3.412   0.325  0.5752  0.0229  0.0824
22017W        W37634  10.189  12.074   1.346 -0.0667 -0.2397  0.0835
22018W        W37635  15.442  11.780  14.501  0.0519  0.0867  0.0996
22019W        W37636  16.634   8.421   6.539  0.3095  0.0241 -0.1324
22020W        W37637  10.960  16.048   3.117 -0.3540 -0.1201 -0.1851
22021W        W37638  11.808  13.327   2.407 -0.1074  0.0258 -0.0762
22022W        W37639   0.456  15.406  15.336  0.1731  0.1556  0.2120
22023W        W37640   0.658   0.387   6.568  0.1721  0.0698 -0.0693
22024W        W37641   2.492  11.517   2.875 -0.0392 -0.0118  0.1139
22025W        W37642   2.597   5.722  14.465  0.0826 -0.1028  0.3164
22026W        W37643  11.971   2.169  12.975 -0.4393  0.2178  0.3899
22027W        W37644   7.689  17.614   1.014 -0.0116  0.0614  0.1432
22028W        W37645  16.667   5.925   1.714  0.4974 -0.0713 -0.0766
22029W        W37646   5.886   9.408  15.853 -0.0294 -0.0141  0.4478
22030W        W37647  16.337   4.467   5.749 -0.0064 -0.1366  0.2675
22031W        W37648   9.676  16.686   4.605 -0.0794 -0.1375  0.1349
22032W        W37649   8.517  15.801  14.016  0.2733  0.0424 -0.2337
22033W        W37650  14.059  16.838  15.718  0.1243 -0.2905 -0.0731
22034W        W37651   6.933  10.319   3.062  0.0626  0.0255  0.3035
22035W        W37652   4.908  17.653   1.591  0.1396 -0.1467  0.1965
22036W        W37653  15.840  17.392  11.918  0.1697 -0.1172  0.1218
22037W        W37654  10.572   7.755  12.214  0.3695  0.1286  0.2194
22038W        W37655   5.954   6.005   3.143  0.1541 -0.0059  0.2368
22039W        W37656  17.714  17.985  13.416  0.1633  0.0024 -0.2159
22040W        W37657   9.634  15.197   0.935 -0.1578  0.1342  0.1423
22041W        W37658   6.231   8.108  15.810  0.2620 -0.2962  0.4814
22042W        W37659   6.068  13.849   3.881  0.0722  0.0770 -0.3787
22043W        W37660  15.361   3.792  13.107 -0.2859 -0.0223 -0.0518
22044W        W37661   5.961  12.989  15.522 -0.1892 -0.1971 -0.0589
22045W        W37662   0.699   1.460   0.195  0.2443 -0.1921  0.1713
22046W        W37663  11.243   7.192  11.341 -0.0539  0.1159  0.0619
22047W        W37664  15.042   0.680   5.527  0.0349  0.0857  0.1776
22048W        W37665   0.094  13.828  16.336 -0.2037  0.1436  0.1546
22049W        W37666  17.947   5.568  12.358  0.2447  0.2025  0.1797
22050W        W37667  12.712  15.500  14.544 -0.4933  0.0291  0.2164
22051W        W37668  15.719  13.423   3.581  0.0660 -0.1716  0.0024
22052W        W37669   3.826  13.130  12.864 -0.3684 -0.6603 -0.1968
22053W        W37670  15.219   3.918  14.533  0.0867 -0.0043 -0.0267
22054W        W37671   4.469   6.364  16.631 -0.2093 -0.1752 -0.1515
22055W        W37672   9.022  16.273  14.746  0.4483 -0.3354 -0.1394
22056W        W37673   5.727   7.682  12.783  0.1088  0.1561 -0.0188
22057W        W37674  15.670   8.244  15.754 -0.1715  0.3386  0.0564
22058W        W37675  14.750   7.113   1.324  0.1952  0.1085  0.1744
22059W        W37676  14.905  13.528   1.637 -0.1258 -0.1835 -0.0615
22060W        W37677  14.550  16.226   4.087  0.1706  0.0827  0.0841
22061W        W37678   4.987  11.227   5.470 -0.0434  0.2826  0.1000
22062W        W37679   6.397   2.423   4.375 -0.0180  0.0190 -0.0984
22063W        W37680  11.216  15.275   1.294  0.0176  0.3375  0.2067
22064W        W37681   2.859   6.980   4.648 -0.0525 -0.3897  0.2278
22065W        W37682   4.473   3.628  13.252  0.0540 -0.0478  0.1355
22066W        W37683   6.560  17.848  14.003  0.2961  0.0559  0.1047
22067W        W37684  14.869   8.420  16.246 -0.3165  0.1574 -0.1548
22068W        W37685   0.527   8.533   6.107  0.2239  0.0980 -0.0779
22069W        W37686  15.440   0.435   5.041  0.1494  0.0809 -0.0546
22070W        W37687   0.715   2.459   1.988 -0.1945  0.3736  0.2649
22071W        W37688  13.827   2.938  14.451 -0.0026 -0.1272  0.1220
22072W        W37689   5.233  12.856   0.658  0.0220 -0.4150  0.2003
22073W        W37690  10.211  15.699   2.902  0.3365 -0.2310  0.1668
22074W        W37691   3.444  13.751  15.155  0.0271  0.0465  0.1675
22075W        W37692  17.541   3.985  12.374 -0.1367  0.1160  0.0517
22076W        W37693   7.232   0.440   5.715 -0.3742 -0.1945  0.0263
22077W        W37694  14.959   2.585   1.374 -0.0790  0.0658 -0.1555
22078W        W37695   9.440   4.357   1.625  0.0784 -0.0199  0.0546
22079W        W37696   2.513  17.034  13.151  0.0430 -0.2597 -0.3787
22080W        W37697   5.329  16.762   1.581 -0.5067 -0.0350  0.1452
22081W        W37698  17.006   3.348  12.040 -0.0859  0.0332 -0.1331
22082W        W37699  10.214   2.856   5.175  0.0744 -0.3538 -0.4640
22083W        W37700   9.655  17.917  15.487  0.0600  0.0295 -0.1825
22084W        W37701   8.544  17.798  12.218 -0.1842 -0.1929  0.1372
22085W        W37702   7.170  13.169   1.947 -0.2695 -0.0313 -0.2384
22086W        W37703   8.280  17.032   3.931 -0.1149  0.3400  0.2893
22087W        W37704  14.271  14.625  14.220  0.1185  0.2576 -0.0460
22088W        W37705  11.144  15.193  11.915  0.0099 -0.0291  0.1366
22089W        W37706   9.049   9.756  15.601  0.0925  0.0630  0.0307
22090W        W37707   1.140  14.752   5.106  0.0096  0.0352  0.1668
22091W        W37708   9.625  12.443  12.248  0.1471  0.0094  0.0689
22092W        W37709  15.824   0.784   1.740  0.2210 -0.0252 -0.0348
22093W        W37710   4.661   4.329  14.031 -0.4209  0.1314 -0.1670
22094W        W37711  17.480   9.952   0.861  0.0923 -0.1661  0.2068
22095W        W37712   0.394  15.009  13.488 -0.0277 -0.0672 -0.2719
22096W        W37713   5.425   8.925  15.175  0.1402 -0.2247 -0.1026
22097W        W37714  15.105  15.481   4.986  0.0960 -0.1864  0.5292
22098W        W37715   6.881   3.400  15.891  0.4153  0.3878 -0.0906
22099W        W37716   6.464  15.328   3.635  0.1528  0.3484 -0.1537
22100W        W37717   4.297  17.651   4.492  0.1834  0.0161  0.3456
22101W        W37718  15.613  16.563   0.168  0.1873  0.0765 -0.0301
22102W        W37719  15.283  16.366   4.411  0.0953 -0.0323  0.0631
22103W        W37720   5.013   5.574  15.539 -0.0656 -0.0722  0.4132
22104W        W37721   9.433   9.991   2.957  0.1968  0.0823  0.0257
22105W        W37722  14.535   1.792   4.846  0.0598  0.0510  0.1342
22106W        W37723   1.392  14.898   2.951  0.2921  0.0876  0.0770
22107W        W37724  13.738  13.523   1.066 -0.0650 -0.1118 -0.1580
22108W        W37725   7.554  15.136   0.733 -0.2643 -0.2343  0.0334
22109W        W37726  12.685   5.831   3.504  0.0468  0.1289  0.1097
22110W        W37727   2.795  11.077   4.243  0.1539 -0.1382  0.1140
22111W        W37728   6.284  16.077  12.295  0.1822  0.0195 -0.0455
22112W        W37729   4.487  16.992  15.225  0.0312  0.3619  0.0656
22113W        W37730   2.394   2.635  15.559 -0.0138 -0.0218  0.1877
22114W        W37731   2.417   1.721  15.878 -0.4252  0.3468 -0.1262
22115W        W37732   4.049   0.272   3.843 -0.0724 -0.2883 -0.0268
22116W        W37733   2.806   7.479   3.176  0.0063 -0.0426  0.2921
22117W        W37734  13.833   3.307   1.112 -0.2370  0.1130 -0.2855
22118W        W37735  15.362  12.612   5.468 -0.1906  0.0250 -0.0679
22119W        W37736   9.255   7.116  14.095  0.1378 -0.1659  0.2303
22120W        W37737  12.346   4.156  12.475 -0.3839 -0.1446  0.0975
22121W        W37738  15.118   5.714  13.139 -0.0582 -0.1044 -0.3056
22122W        W37739   8.358  17.741   5.253  0.0101  0.1612 -0.0617
22123W        W37740   6.761   5.958  14.875 -0.2462 -0.1098  0.0032
22124W        W37741  14.822  10.434   0.517 -0.1030  0.1636 -0.1133
22125W        W37742   9.710   6.962   5.936 -0.0124  0.1925 -0.0862
22126W        W37743   7.701   8.369   5.950  0.1842 -0.1896  0.2652
22127W        W37744  12.589  17.577   1.174  0.2041 -0.2316  0.1779
22128W        W37745  14.719  12.610   2.865 -0.1533 -0.1871 -0.2165
22129W        W37746   0.011   9.736  14.081  0.3400 -0.2516 -0.0112
22130W        W37747   0.199   4.034   5.649  0.1118 -0.2841  0.4411
22131W        W37748   9.665   9.670   0.495  0.1000 -0.0305  0.0369
22132W        W37749  13.583   7.823   5.537 -0.1468  0.2542 -0.1921
22133W        W37750  10.901   9.172   5.843 -0.1414  0.1108  0.0545
22134W        W37751  13.430  10.762   2.347 -0.0219  0.1335 -0.3711
22135W        W37752  11.562  13.459  16.705 -0.1544  0.0398  0.0868
22136W        W37753   6.663   8.455   4.713 -0.0226 -0.3170 -0.1830
22137W        W37754  15.623  11.920  15.929 -0.0269 -0.2534 -0.0152
22138W        W37755  14.885  10.982   0.620  0.0472  0.1317 -0.0775
22139W        W37756   7.972   8.441   1.652 -0.2598  0.0308  0.0530
22140W        W37757   1.411  10.352   0.642  0.4388 -0.1678 -0.3198
22141W        W37758   5.134   4.554  14.482 -0.3649 -0.2851 -0.2231
22142W        W37759  15.833  11.009   0.614 -0.3781  0.0880  0.0118
22143W        W37760   7.064   3.133  15.460 -0.0340  0.2019 -0.3051
22144W        W37761  16.092  16.611  16.553  0.0861 -0.4294  0.2340
22145W        W37762  12.779   1.845  12.703  0.1174 -0.0680 -0.0494
22146W        W37763  13.372   7.065   6.176 -0.2042 -0.0638  0.1428
22147W        W37764  16.886   8.633   4.773 -0.2636  0.0163  0.0216
22148W        W37765   1.518  17.598   3.652 -0.0364 -0.0401  0.2037
22149W        W37766   6.497  12.404  15.977  0.2171 -0.1377  0.0648
22150W        W37767  12.135   6.374  13.247  0.1100 -0.3312 -0.2327
22151W        W37768  10.573   3.574   5.648 -0.1644 -0.1379 -0.0646
22152W        W37769  13.004  13.712   2.962  0.2781 -0.1752 -0.0056
22153W        W37770  16.964  11.556   5.848 -0.0426  0.1794 -0.1645
22154W        W37771   5.209  11.900   0.838  0.1187 -0.2774  0.0531
22155W        W37772   8.734  17.575   2.569 -0.1043 -0.0409  0.1340
22156W        W37773   9.086   6.500   4.108  0.1752  0.0234 -0.1499
22157W        W37774   0.624   1.626   0.703 -0.0465  0.2766 -0.1797
22158W        W37775   5.670   7.585   2.346 -0.1314 -0.0683  0.1622
22159W        W37776   6.611  10.591  12.931  0.0692 -0.1404 -0.0632
22160W        W37777   2.723   1.529   2.805 -0.1329  0.2217 -0.0608
22161W        W37778  17.064   1.985   0.647  0.1237  0.1548 -0.2095
22162W        W37779   1.983   9.017   2.173  0.0902  0.1424 -0.0245
22163W        W37780   4.483  16.409   4.068 -0.0364 -0.0875  0.1536
22164W        W37781   0.019  11.946   1.481 -0.3832 -0.0087  0.1440
22165W        W37782   1.088  16.019  15.840 -0.3605 -0.1749  0.0579
22166W        W37783   7.056  15.955   5.464 -0.0965 -0.3426 -0.0068
22167W        W37784   1.011   2.019   0.255 -0.2684  0.0392 -0.1629
22168W        W37785  10.448   2.975  12.296  0.3978 -0.1155  0.2119
22169W        W37786  12.862  12.836  13.050 -0.2722 -0.2711 -0.2521
22170W        W37787   4.049  10.160  14.663  0.0655  0.0207 -0.1774
22171W        W37788   9.856  13.583   0.712 -0.0927  0.3674  0.2742
22172W        W37789  16.781   2.965  14.750 -0.0016 -0.1377 -0.1452
22173W        W37790  14.206  15.941  16.149  0.0821  0.0697 -0.0119
22174W        W37791  15.769   6.335   0.083  0.0896 -0.2644 -0.1557
22175W        W37792  16.585  10.201   5.262 -0.2008 -0.0662  0.2218
22176W        W37793   1.866   5.572   3.804  0.0022 -0.0528 -0.1905
22177W        W37794  17.074  12.291   1.746  0.1263 -0.2780  0.0186
22178W        W37795  10.163   2.663   4.670  0.0899 -0.0941 -0.3916
22179W        W37796  11.377   2.982   3.393 -0.3443  0.0126  0.2853
22180W        W37797   8.971   8.349   4.550  0.0637 -0.1352  0.1203
22181W        W37798  16.938  15.247   5.341  0.1712 -0.1681 -0.1060
22182W        W37799  15.878   9.165   1.824  0.1519  0.0780 -0.1424
22183W        W37800   4.642  16.242   5.111 -0.0307 -0.2519 -0.0849
22184W        W37801  14.637  11.603  12.718  0.0875 -0.0450  0.3513
22185W        W37802  16.373   1.402  16.638  0.2012 -0.3064  0.0458
22186W        W37803   9.323   6.462   2.608 -0.0406 -0.2396  0.0955
22187W        W37804   4.421   7.882   1.526 -0.1544  0.1659  0.0521
22188W        W37805  10.964   1.112  16.763 -0.3556 -0.3296  0.4137
22189W        W37806   1.092  14.901   0.177  0.0008 -0.1281  0.1197
22190W        W37807   5.443   8.109   1.381  0.0540 -0.2068 -0.2588
22191W        W37808   9.456  12.381  11.450 -0.1681  0.0089  0.3369
22192W        W37809  12.988  12.722  15.187  0.1137  0.4371 -0.1817
22193W        W37810   3.447   3.063  14.661  0.0399 -0.1854  0.2328
22194W        W37811  14.410  10.340   1.495 -0.0680 -0.3708  0.1965
22195W        W37812   0.713   2.507  14.083 -0.1341  0.1607 -0.1857
22196W        W37813  16.103  12.101  15.766 -0.0914  0.2986  0.1571
22197W        W37814  12.775   7.680   2.835 -0.0708  0.0627 -0.1019
22198W        W37815   9.175   4.180   2.311  0.4549 -0.0677 -0.0343
22199W        W37816  11.732  13.344   3.363 -0.2223 -0.1727 -0.1677
22200W        W37817  17.613   9.434   5.328 -0.2337 -0.0624 -0.0877
22201W        W37818   8.110  14.192  14.539  0.2082  0.1411 -0.2618
22202W        W37819  11.332  12.642  13.330 -0.0874 -0.2632 -0.0290
22203W        W37820  14.248   2.638   1.614 -0.0364  0.0659  0.1798
22204W        W37821  14.801   8.057   0.585  0.0338 -0.2408  0.2454
22205W        W37822  13.312   3.150   5.017 -0.1927 -0.0182 -0.3030
22206W        W37823  15.843   8.435  12.058 -0.0645  0.1567 -0.0756
22207W        W37824   4.273  13.836  13.555 -0.0341  0.2708 -0.2659
22208W        W37825   6.739   2.411   4.788 -0.2196 -0.0416 -0.1617
22209W        W37826   4.973  12.752   4.807  0.1541 -0.0757 -0.0372
22210W        W37827  18.003  13.613  12.330  0.0282 -0.0168 -0.0107
22211W        W37828   6.187   1.355  12.599 -0.0274 -0.0041  0.0799
22212W        W37829   3.015  14.860  12.751 -0.0071  0.2435 -0.0866
22213W        W37830  12.937   7.745   4.139 -0.3134 -0.3354  0.1021
22214W        W37831  12.191   7.332  14.323 -0.1827 -0.0718  0.2615
22215W        W37832   5.135  13.878  13.480 -0.0422 -0.1666 -0.1273
22216W        W37833   1.939  16.050  14.140  0.0363 -0.1633 -0.3467
22217W        W37834  11.336  14.262  12.297 -0.1288 -0.1815 -0.1074
22218W        W37835   9.202   6.930  11.495  0.0334 -0.2500  0.0297
22219W        W37836   4.962   7.353  14.550 -0.0706  0.1648 -0.1073
22220W        W37837  14.790  15.458  11.084 -0.0318  0.1517  0.0061
22221W        W37838  12.622   7.565   3.440 -0.4295 -0.0227 -0.2316
22222W        W37839   6.137   7.261  15.272 -0.1952  0.0479 -0.0144
22223W        W37840  11.855   3.396  14.300  0.0615  0.2067  0.0565
22224W        W37841   8.138  13.179  14.301  0.1660  0.2020 -0.1854
22225W        W37842  17.335   8.673   4.142 -0.0894  0.1506  0.0299
22226W        W37843   8.617  13.352  12.858 -0.1457  0.1021  0.1956
22227W        W37844   9.060   7.949  13.584 -0.2449  0.0263 -0.0868
22228W        W37845   7.533  13.102  12.083  0.1548 -0.1745  0.0031
22229W        W37846  16.888  13.797   3.626 -0.2048  0.2447  0.1321
22230W        W37847   3.292  10.695  11.886  0.0808 -0.1386 -0.0001
22231W        W37848   3.311  14.748  14.411 -0.0574 -0.1404  0.0898
22232W        W37849   2.444  10.084  13.057  0.0295  0.2690  0.0141
22233W        W37850   2.979   0.278   0.413  0.0492  0.2858  0.4631
22234W        W37851   3.982   4.498  16.720  0.1322 -0.0095  0.0306
22235W        W37852  13.592   0.071   3.395 -0.1787  0.1580 -0.0276
22236W        W37853   6.935   1.380  13.586  0.1370  0.1374  0.1082
22237W        W37854   4.621  15.339   1.905  0.2864 -0.2034  0.0699
22238W        W37855  15.288  17.726  13.875  0.1036 -0.2421 -0.1900
22239W        W37856   8.738   1.596   1.828  0.0815  0.3933  0.3664
22240W        W37857   6.520  13.209  15.952 -0.1254 -0.2576 -0.1435
22241W        W37858  13.580   8.788   1.616 -0.1706 -0.0904  0.4203
22242W        W37859   3.141  11.397   0.058 -0.3049  0.1978 -0.1530
22243W        W37860   9.066  16.613  16.288 -0.2126 -0.4012 -0.1497
22244W        W37861  12.514  12.588   0.326 -0.0910 -0.4188  0.0138
22245W        W37862   2.655   4.475   2.478  0.0729  0.3371 -0.0488
22246W        W37863   5.712  17.563   1.851  0.0639 -0.1576  0.1313
22247W        W37864   6.763   8.069  11.481 -0.0735  0.0659 -0.2228
22248W        W37865  12.829   0.711  11.708  0.0290  0.1497 -0.1497
22249W        W37866   4.922   9.063  16.659  0.0216 -0.0157  0.1749
22250W        W37867  15.156  12.577   0.968 -0.1432 -0.0863  0.0818
22251W        W37868  10.596   2.727   2.808 -0.2258 -0.3032 -0.3116
22252W        W37869   6.684  13.956  15.075 -0.1096  0.1955 -0.0950
22253W        W37870  11.571   9.649  13.898  0.3042 -0.1196  0.0507
22254W        W37871   4.095   2.374  15.881 -0.0489 -0.1946  0.0832
22255W        W37872   4.928  15.626   4.289 -0.1731 -0.0611  0.1545
22256W        W37873  13.942  16.069  12.771  0.4070  0.0778  0.1674
22257W        W37874   3.349   0.026   0.619 -0.3417 -0.0416  0.1240
22258W        W37875  15.509   1.673   1.592  0.3581 -0.2971 -0.2914
22259W        W37876  14.096  17.015   3.671 -0.0871 -0.0019 -0.0622
22260W        W37877   9.827   1.003  15.326  0.0244 -0.3827  0.1444
22261W        W37878   9.381   7.515  11.758 -0.0378  0.0053  0.1625
22262W        W37879   2.413   5.495  13.600  0.1355  0.2284 -0.0178
22263W        W37880   4.372   7.575  12.113  0.1276 -0.2308  0.5118
22264W        W37881   0.478   6.210   1.702 -0.0966 -0.2267 -0.1590
22265W        W37882   0.598   6.974   4.665 -0.2969  0.0175  0.1388
22266W        W37883  10.558  14.246  16.139 -0.0716  0.2406 -0.1754
22267W        W37884   6.626  17.925   6.192  0.1784  0.2635 -0.3432
22268W        W37885   1.093   9.287   4.828 -0.1231  0.1200  0.3043
22269W        W37886  13.912  12.935   5.977  0.0037 -0.0677 -0.1722
22270W        W37887   0.023   0.081  12.507  0.0886 -0.3047  0.0804
22271W        W37888   6.300   5.809  12.860  0.2985 -0.2242 -0.0129
22272W        W37889  10.518   6.648  10.643  0.0921 -0.1928 -0.1259
22273W        W37890   4.202   5.927   2.444  0.0340 -0.2791 -0.1924
22274W        W37891  11.165  12.226   1.739 -0.2197  0.4634 -0.0889
22275W        W37892  10.896  17.751  12.352  0.4450  0.4059  0.1120
22276W        W37893   8.457  17.320  16.661 -0.1350 -0.2056 -0.1387
22277W        W37894   2.371  12.745   4.648 -0.1727 -0.2834  0.1379
22278W        W37895  14.511   1.896   0.493  0.3364  0.1157 -0.0900
22279W        W37896   8.389  14.506   1.899 -0.0881 -0.0047  0.1313
22280W        W37897   0.268  12.383   5.469 -0.0431  0.0239 -0.1310
22281W        W37898   1.675  14.996   2.049  0.0565  0.3080  0.1367
22282W        W37899   1.080   4.692   5.901  0.4108  0.0168 -0.0038
22283W        W37900  10.525  12.645  15.997  0.3084  0.1931  0.1586
22284W        W37901  15.358  14.902  13.743  0.4190  0.2286  0.0203
22285W        W37902  12.746   0.020   5.283  0.0205 -0.1226  0.1160
22286W        W37903  11.531  12.981  14.962 -0.0006  0.3435 -0.0529
22287W        W37904   5.982   7.228   1.005  0.2251 -0.0761  0.5416
22288W        W37905   3.481   8.395   0.138 -0.0261  0.1294 -0.2186
22289W        W37906  11.096   8.086   0.325  0.2464  0.2276 -0.1213
22290W        W37907   8.848   0.343  11.569 -0.0926  0.0054 -0.2408
22291W        W37908  11.628  13.786   3.655 -0.1100  0.0381 -0.2175
22292W        W37909  15.295   9.039  13.857  0.0502 -0.1587 -0.4446
22293W        W37910   0.557   7.561   3.703  0.0665  0.1039  0.3100
22294W        W37911   2.204   4.428   4.000  0.0230 -0.0100  0.3579
22295W        W37912  10.664  15.770   1.682  0.0815  0.0504 -0.0554
22296W        W37913   8.753   8.432   5.092 -0.1117 -0.2230 -0.1176
22297W        W37914  17.069   4.522  15.046 -0.0239 -0.2332 -0.3156
22298W        W37915   6.757   4.822   3.644  0.0118 -0.0441 -0.1940
22299W        W37916   1.208  16.407   0.822 -0.1150  0.3902 -0.0867
22300W        W37917  13.958  15.922   0.659  0.0385  0.1125 -0.1381
22301W        W37918   9.401  13.175  11.585  0.0619  0.0293  0.0599
22302W        W37919   1.540   8.230   5.754  0.2301  0.1609 -0.0721
22303W        W37920   0.799  14.040  14.950 -0.0245  0.1679  0.0119
22304W        W37921   5.197  10.634   2.803 -0.3488 -0.0807  0.1960
22305W        W37922  17.400  10.647  12.401  0.2011  0.3652 -0.0440
22306W        W37923  13.011  17.644   5.053  0.0827 -0.2699  0.0742
22307W        W37924   0.888  12.635   4.635 -0.3489 -0.2575 -0.2967
22308W        W37925  17.664   0.152  14.298 -0.1080  0.0398 -0.2513
22309W        W37926  10.997  14.798   1.070 -0.2380  0.0899 -0.0150
22310W        W37927  14.200   4.614  13.377 -0.3288 -0.2127 -0.0021
22311W        W37928   2.896  14.899  12.234 -0.4554 -0.1083  0.0604
22312W        W37929   0.168   8.132   3.865 -0.0417  0.1423  0.1300
22313W        W37930   3.530   0.159   1.815  0.0017 -0.1308 -0.1504
22314W        W37931  13.161   1.723   1.496  0.1920  0.0621  0.0059
22315W        W37932   9.113  17.988  12.426 -0.0447 -0.0547  0.2052
22316W        W37933   8.807   3.381  12.781 -0.3114  0.1686 -0.0096
22317W        W37934  15.191  12.298  16.271  0.0893 -0.1880  0.3047
22318W        W37935   1.246   9.044  12.963 -0.1602  0.0625 -0.1224
22319W        W37936   9.206   3.642  14.646 -0.1314 -0.0223 -0.1809
22320W        W37937   5.294  15.501  16.391  0.0736 -0.0248  0.0650
22321W        W37938   0.991   5.984   1.839  0.3015  0.1288 -0.1912
22322W        W37939   9.148   2.272  16.142  0.0735 -0.0483 -0.2281
22323W        W37940   5.563   2.949   0.974  0.1253 -0.0818 -0.1597
22324W        W37941  13.677   4.187   3.527 -0.1350 -0.1655 -0.0499
22325W        W37942   2.548  11.170   5.741 -0.0438 -0.3854  0.0439
22326W        W37943  17.009  15.254  12.644 -0.0767  0.1827  0.0515
22327W        W37944  10.513   7.955  15.859 -0.0411  0.3020  0.2196
22328W        W37945   2.955   8.390   3.838 -0.0175 -0.1545  0.2305
22329W        W37946   0.817  10.759   3.339 -0.5365 -0.3025  0.2381
22330W        W37947   7.026   6.474  13.348  0.1288  0.1921  0.2562
22331W        W37948  15.736  15.358   4.179 -0.1069 -0.0642 -0.3827
22332W        W37949   9.561  11.817   4.011 -0.0586 -0.0830  0.0157
22333W        W37950  16.919   0.999   0.525 -0.0372 -0.3685  0.2293
22334W        W37951   8.830  17.532  14.024 -0.0438 -0.1799 -0.1915
22335W        W37952   2.847   7.260  13.560 -0.0039  0.1936 -0.1265
22336W        W37953  17.607  13.722  16.269  0.1302  0.1779 -0.2380
22337W        W37954  17.174   1.986   1.119 -0.0864  0.0062 -0.1070
22338W        W37955   4.378   6.135  16.227  0.4678 -0.3451 -0.1637
22339W        W37956   2.040  11.878   4.253  0.0036  0.0148 -0.3803
22340W        W37957   6.049   8.990  13.107  0.2122 -0.1517  0.0863
22341W        W37958  10.499   6.350   2.930 -0.3377 -0.0874 -0.2634
22342W        W37959   6.780  14.104   2.106  0.3464 -0.1967  0.1494
22343W        W37960   3.381  13.898   0.346  0.2070  0.0028 -0.3142
22344W        W37961   6.863   4.818   1.948 -0.4876  0.2594  0.0583
22345W        W37962   0.320   5.250   1.557  0.1810 -0.0665  0.0962
22346W        W37963   9.224   9.163   5.335 -0.0912 -0.2020  0.0550
22347W        W37964   5.771  15.492  15.994  0.0850 -0.0616  0.4095
22348W        W37965  16.727  17.250   5.785 -0.0536 -0.0494 -0.0969
22349W        W37966   1.075   6.027   3.499  0.0881  0.1606 -0.1679
22350W        W37967  11.453   4.939   0.173  0.3046  0.0632 -0.0451
22351W        W37968  13.008   5.543   1.969 -0.0297 -0.1984 -0.0150
22352W        W37969   6.352   4.423  13.412  0.2845  0.4853 -0.0717
22353W        W37970   0.362   7.113   2.313  0.0358  0.3053 -0.1392
22354W        W37971  11.172   7.922   2.125 -0.0618  0.1435 -0.1451
22355W        W37972  17.567  12.978   1.403  0.1393 -0.1313 -0.4139
22356W        W37973   9.259  15.798  13.953  0.0131 -0.1352 -0.2986
22357W        W37974   8.595   9.928   5.278 -0.0026  0.0221  0.2601
22358W        W37975   8.850  11.520   2.687  0.0812  0.2695  0.0100
22359W        W37976   3.635   6.851   2.994 -0.3914  0.0379  0.2345
22360W        W37977   1.051   1.807   5.049  0.0156 -0.0799 -0.1762
22361W        W37978   0.843   4.144   5.797  0.0576 -0.1539  0.3165
22362W        W37979  15.169   8.738   0.454  0.3508 -0.0040  0.2690
22363W        W37980   7.894   4.352  16.030 -0.3572 -0.0248 -0.2372
22364W        W37981   8.132   5.425  11.770 -0.0551 -0.2091  0.1216
22365W        W37982  12.554  17.418  13.751 -0.0600 -0.1441  0.3203
22366W        W37983   0.716   9.560   2.765  0.0200 -0.3289 -0.1691
22367W        W37984  17.656  13.884   2.043 -0.0290  0.0571  0.0834
22368W        W37985   9.804   8.771  10.939 -0.0223  0.0084  0.0594
22369W        W37986  14.390   3.677   0.485  0.1225 -0.2997 -0.1119
22370W        W37987   3.403  15.362   5.064 -0.1324  0.1583  0.1282
22371W        W37988   3.601  12.282  12.489  0.3712  0.0255  0.0458
22372W        W37989  11.769  16.649  15.107 -0.0043  0.2484  0.0119
22373W        W37990  17.488   6.174   1.067 -0.0998 -0.0018 -0.0992
22374W        W37991   7.194  17.925   2.051 -0.1608 -0.1471  0.1147
22375W        W37992   2.455  11.853   3.797  0.3154  0.3297 -0.0034
22376W        W37993  15.937   0.554   2.677 -0.0695  0.2001  0.0134
22377W        W37994   7.352   3.355  11.354  0.0512  0.0606  0.1903
22378W        W37995  14.016   7.964   3.100 -0.0128  0.1575 -0.0881
22379W        W37996  11.140   7.179  11.851 -0.0270 -0.0621  0.2212
22380W        W37997  11.615  15.547   0.465 -0.2395  0.3287  0.1645
22381W        W37998  16.446  11.894  16.677  0.0100  0.1370  0.0611
22382W        W37999  18.028  11.961  12.702 -0.0075 -0.1570 -0.0586
22383W        W38000   0.572  14.056  16.545  0.1868 -0.1400 -0.3761
22384W        W38001   0.368   8.820  14.335 -0.3114 -0.2215 -0.0351
22385W        W38002   2.606  10.408  14.732  0.3045  0.2302  0.2733
22386W        W38003  13.817   9.819   3.390  0.0801 -0.2574 -0.3228
22387W        W38004   2.179   5.691   5.364 -0.2765  0.0300  0.2164
22388W        W38005  11.626   8.986  16.103  0.3255  0.2383 -0.0921
22389W        W38006   2.153  15.453   4.430  0.0584 -0.2457  0.0492
22390W        W38007  12.751  11.447  14.771 -0.1053 -0.1183 -0.0386
22391W        W38008  15.820   4.640   4.376 -0.0804 -0.1870 -0.0501
22392W        W38009   6.763  10.682  14.842 -0.1982  0.1472 -0.0153
22393W        W38010   4.535   4.990  11.582 -0.1109  0.1761  0.1263
22394W        W38011   8.401   2.532  12.371  0.0714 -0.0569  0.0592
22395W        W38012  10.378   5.221  14.216 -0.1597  0.1027  0.0437
22396W        W38013   2.706  15.738  16.223 -0.2832 -0.0357  0.0855
22397W        W38014   4.152   4.016   3.340 -0.0875  0.0680  0.0504
22398W        W38015   4.467   5.650  14.754 -0.0817  0.1596 -0.1065
22399W        W38016  15.504   8.447   3.813 -0.0945  0.1689 -0.1785
22400W        W38017  10.722  13.263   3.132  0.2795  0.1192  0.1099
22401W        W38018   1.408   2.687  15.777 -0.1889 -0.0710  0.4838
22402W        W38019   8.221   2.725  15.983  0.0041  0.0043 -0.1300
22403W        W38020  10.871  10.392  13.020  0.2003 -0.1549 -0.2015
22404W        W38021   5.363  17.618   5.135  0.0383 -0.1657  0.0552
22405W        W38022  14.061   5.630   0.100  0.0335  0.0144 -0.1541
22406W        W38023   6.118   3.552  16.719 -0.0823  0.0873  0.0184
22407W        W38024   6.774  11.218   3.730  0.0464  0.2787  0.0150
22408W        W38025  12.621   7.501  12.411 -0.1187  0.2424 -0.2505
22409W        W38026   9.337  16.816   4.331  0.3661  0.5893  0.4259
22410W        W38027  12.514   7.499   5.509 -0.0702 -0.1032 -0.0590
22411W        W38028  14.938   2.426  15.850 -0.1705  0.0903  0.0203
22412W        W38029   2.559   1.911   3.084  0.2927  0.1388 -0.3162
22413W        W38030   1.913   4.042  11.131  0.1202 -0.1215  0.0734
22414W        W38031   0.169  12.802   5.787  0.1339  0.0881  0.0842
22415W        W38032   6.046   4.729  15.368 -0.0482  0.0619 -0.2559
22416W        W38033  15.842   1.301  16.326 -0.1993 -0.0958  0.0937
22417W        W38034   6.128   0.312  11.677  0.3134  0.0246  0.1852
22418W        W38035   8.965  10.372  14.194  0.1019  0.0435 -0.1284
22419W        W38036   1.574   6.691   5.910  0.2294 -0.0706  0.3675
22420W        W38037   2.310   9.546   3.004  0.0024  0.0788  0.0801
22421W        W38038   8.059  14.428   3.088 -0.3065 -0.0187  0.1151
22422W        W38039   4.942   6.791   2.601 -0.2894 -0.0485  0.2600
22423W        W38040   4.055  10.936  12.610  0.0775  0.2553  0.1331
22424W        W38041   6.826  17.705  14.915 -0.0727 -0.2209 -0.1599
22425W        W38042  17.002  14.887  13.010 -0.0823 -0.3785 -0.0423
22426W        W38043  13.337   1.143   0.042 -0.0393  0.2265  0.1375
22427W        W38044   7.802  17.220  16.233 -0.0510 -0.4871 -0.1738
22428W        W38045   3.497   7.620   4.499  0.0407 -0.3646 -0.1528
22429W        W38046   0.908   8.852  14.155  0.1438 -0.2195  0.1330
22430W        W38047  16.724  13.334   0.694  0.3253  0.0922  0.1239
22431W        W38048   0.885   2.845   4.151 -0.0262 -0.0498 -0.0635
22432W        W38049   9.849   4.752  12.905  0.1149  0.1543  0.0927
22433W        W38050  15.250  16.520   3.127 -0.4684 -0.2260  0.1209
22434W        W38051  16.953   7.945   6.058  0.4574  0.0060 -0.3534
22435W        W38052   6.405   6.373   2.021  0.2780 -0.2621 -0.1275
22436W        W38053   9.020   0.155  12.914 -0.3994 -0.0484  0.1384
22437W        W38054   9.290  12.025  10.066  0.1647  0.1924 -0.2129
22438W        W38055   1.716  17.870  13.824 -0.1504  0.0367 -0.2628
22439W        W38056  13.957   4.277  12.027  0.1840 -0.2184 -0.0070
22440W        W38057   9.761   4.583  15.695  0.2729 -0.5263  0.0519
22441W        W38058  10.510   0.671  14.151 -0.0801  0.0133  0.1050
22442W        W38059   2.216  13.706  14.883 -0.1831  0.1326  0.4651
22443W        W38060  14.686   7.240   5.277 -0.0300  0.3037 -0.0884
22444W        W38061   7.585  10.289   0.249 -0.1291  0.2183  0.1060
22445W        W38062   1.657   2.662  14.166 -0.1476  0.0194 -0.3091
22446W        W38063   7.263   4.245  15.601  0.2491  0.3766 -0.2654
22447W        W38064   6.849   2.465  13.249  0.3349  0.0892  0.0438
22448W        W38065  17.679  17.055  13.217 -0.1290  0.0363  0.2687
22449W        W38066   8.191   2.660   3.908 -0.3007 -0.1590  0.2324
22450W        W38067   0.899   5.397  16.198 -0.0910 -0.0897  0.2626
22451W        W38068   9.939   2.053   0.268  0.1241 -0.0091  0.0364
22452W        W38069   6.764  13.736  14.589 -0.1550  0.2556 -0.2509
22453W        W38070  15.055  13.708   1.114 -0.1905 -0.1202 -0.1121
22454W        W38071  15.974   1.474  15.275 -0.2884  0.0269  0.1496
22455W        W38072   2.985   7.281  11.888 -0.1968 -0.3408  0.0790
22456W        W38073   2.917  15.446   3.646  0.3275 -0.1326 -0.1984
22457W        W38074   8.725   0.367   3.016  0.1967  0.5060  0.1565
22458W        W38075  13.348  16.450   2.276  0.1480 -0.1046 -0.2204
22459W        W38076   6.668  12.832   0.045 -0.1449 -0.2090 -0.0161
22460W        W38077   4.544   6.500  13.772 -0.0117  0.0669  0.3415
22461W        W38078   3.309   5.960  15.678 -0.0340  0.1593  0.1586
22462W        W38079  16.448  17.846  12.322  0.0008  0.0068  0.0055
22463W        W38080  17.958  17.036  12.671  0.0486 -0.1393  0.0481
22464W        W38081   4.929   2.070  16.261 -0.1967 -0.2319  0.1327
22465W        W38082  14.424  10.769  11.522  0.1519  0.1521  0.0620
22466W        W38083   3.726  10.706   3.201  0.2167  0.2157  0.3384
22467W        W38084   6.234   1.806  12.786  0.1963 -0.0636 -0.1349
22468W        W38085  14.208   9.639  13.908 -0.1010  0.0675  0.2014
22469W        W38086  14.291   7.343  13.337  0.2951 -0.1365 -0.3123
22470W        W38087   0.602  10.669  15.490 -0.1481 -0.0310 -0.1146
22471W        W38088   0.123   8.931  16.341  0.0876  0.2264 -0.2457
22472W        W38089   9.627  16.142  12.085 -0.3091 -0.1590 -0.0368
22473W        W38090  14.672   2.600  12.961 -0.2958  0.0852  0.2422
22474W        W38091  14.823  10.371  16.756  0.2355 -0.3505  0.0760
22475W        W38092   5.199  10.042   2.618 -0.0118 -0.2169 -0.0010
22476W        W38093  13.534  10.557  15.632 -0.1241 -0.0982  0.0452
22477W        W38094  17.387   9.543   0.557  0.1000 -0.2577 -0.2182
22478W        W38095   6.156   8.590  11.712  0.0357  0.1850 -0.2520
22479W        W38096   5.573   8.329  14.416 -0.3146 -0.1980  0.1054
22480W        W38097   3.627   8.040   4.138 -0.1271 -0.1928 -0.0649
22481W        W38098   7.527   7.342   2.488  0.0155  0.0386  0.0588
22482W        W38099  15.126   7.587   1.896  0.0763  0.0221 -0.0639
22483W        W38100  12.741   9.883   2.012  0.4068  0.3327 -0.3041
22484W        W38101  11.071   2.711   0.214 -0.4511 -0.1086 -0.0484
22485W        W38102  17.212   0.828  15.740 -0.3142  0.1213 -0.0054
22486W        W38103  17.992   4.240   3.730  0.1070  0.0623  0.0048
22487W        W38104   1.542  15.887   3.203  0.1297 -0.3563 -0.0352
22488W        W38105  16.485   7.524   4.529 -0.0119  0.0181  0.0612
22489W        W38106   8.530   3.767  14.066 -0.4438  0.3456  0.1336
22490W        W38107  17.603  11.762   1.347  0.0857  0.0078 -0.1115
22491W        W38108   0.668  11.411   3.976  0.2346 -0.0210  0.1211
22492W        W38109  12.346   7.926   3.189 -0.4105  0.1343  0.0409
22493W        W38110   4.424   0.314  15.377 -0.0794  0.1338 -0.0883
22494W        W38111  11.013  12.647   4.768 -0.0675 -0.0563  0.0855
22495W        W38112  15.206   9.909   1.523 -0.2702  0.1088  0.3358
22496W        W38113  11.510  16.043   4.752 -0.0033 -0.2052  0.1139
22497W        W38114   4.191  17.722   5.727 -0.0989  0.3282 -0.0416
22498W        W38115   3.330   2.852  15.098 -0.3946  0.0497 -0.0726
22499W        W38116  14.399  14.963   2.826  0.0624  0.1699  0.4651
22500W        W38117   5.893   7.503   4.610 -0.0471  0.2114  0.2124
22501W        W38118   7.283  17.163  14.655 -0.1687 -0.1456  0.0365
22502W        W38119  11.806   9.152   0.763 -0.0472 -0.0915  0.0413
22503W        W38120   1.315   6.462   0.800 -0.0907 -0.0882  0.3609
22504W        W38121  13.651   8.415   1.176 -0.0296 -0.1882 -0.0965
22505W        W38122  12.456   7.115   0.797  0.3307  0.1422  0.0478
22506W        W38123   0.185   1.002   4.791 -0.1279 -0.1294 -0.2319
22507W        W38124  12.998   1.282   4.905 -0.0352 -0.0346 -0.1094
22508W        W38125   3.139   4.569  13.312  0.0735  0.0757  0.1227
22509W        W38126  16.376   5.209   2.757 -0.2464  0.2949 -0.0553
22510W        W38127   6.618  15.962   4.833  0.0345  0.0300 -0.2217
22511W        W38128  11.526  12.607   2.978 -0.0885  0.1881 -0.0859
22512W        W38129   6.370   0.121   1.648  0.3434 -0.3136  0.1232
22513W        W38130  16.185  12.389   2.478  0.0942  0.1761  0.1700
22514W        W38131  14.307  14.991  16.493  0.0209  0.0815  0.2213
22515W        W38132   1.590   5.419  14.104 -0.3346 -0.0404  0.2122
22516W        W38133  17.662  14.392   2.639 -0.0128  0.2233  0.0035
22517W        W38134   8.630   8.018  14.893 -0.0919 -0.2531  0.0237
22518W        W38135  11.440   1.014  12.800  0.1611 -0.0318  0.1278
22519W        W38136   1.779   4.367   3.688 -0.1429 -0.0214 -0.0376
22520W        W38137  11.671   5.488   3.200  0.0824 -0.0436  0.0456
22521W        W38138  15.290  14.792   0.590  0.0598  0.1749  0.0332
22522W        W38139   5.482   4.834  13.603 -0.2032 -0.1893  0.0352
22523W        W38140   7.052  15.419  15.564 -0.3572  0.1305  0.0517
22524W        W38141   8.746   4.291   4.508 -0.0898  0.0795 -0.1877
22525W        W38142  12.591  15.205  15.522 -0.0023 -0.0198  0.2273
22526W        W38143   7.815  12.571   4.160  0.0335  0.0081 -0.1783
22527W        W38144  12.259   6.286   1.593  0.0523 -0.1074  0.0488
22528W        W38145  14.676  13.095  16.703 -0.0407  0.0882 -0.1196
22529W        W38146  12.352   7.316  12.837 -0.2740  0.3212  0.0218
22530W        W38147   2.453  11.047  12.908  0.2288  0.2671  0.2967
22531W        W38148   9.318   5.207   3.396 -0.0057  0.0961  0.0366
22532W        W38149   9.986  10.504   2.917  0.1125  0.3076 -0.2971
22533W        W38150   4.009  10.108   6.051  0.1358  0.2885 -0.0687
22534W        W38151   7.777   5.683   3.050 -0.0058 -0.0793  0.4203
22535W        W38152  14.041   0.910   5.169 -0.2157 -0.1720  0.0307
22536W        W38153  16.377  11.173   4.208  0.0608  0.4997  0.3215
22537W        W38154  15.235   7.897  14.894  0.2482 -0.1857  0.1196
22538W        W38155   1.958  12.806  11.926 -0.3218 -0.4871  0.2044
22539W        W38156  15.863   8.972  13.887  0.3434 -0.0114  0.2512
22540W        W38157   0.625   9.240   4.625  0.1111  0.1019  0.2380
22541W        W38158  14.854   6.425   3.603 -0.0618 -0.1141  0.6202
22542W        W38159   4.129  12.887  15.215  0.1429  0.1376  0.0606
22543W        W38160  10.604   3.920   2.954  0.1467 -0.0401 -0.4377
22544W        W38161  11.702  14.804   2.900  0.0747 -0.3247  0.1411
22545W        W38162  12.094   5.783   3.086 -0.1876  0.0805  0.1145
22546W        W38163  13.800   6.417  14.779  0.0642 -0.0797 -0.2751
22547W        W38164  16.535  12.134   2.671  0.1424 -0.2825  0.1797
22548W        W38165  10.290   3.038   1.846 -0.3112  0.1443 -0.1208
22549W        W38166   6.815   4.384   4.877  0.1238  0.0722  0.0165
22550W        W38167  14.426  14.179  12.412 -0.2840 -0.1056 -0.0061
22551W        W38168  10.924  16.338   5.739  0.0591  0.1152 -0.1818
22552W        W38169  13.015   6.619   5.171  0.0738 -0.1814  0.1280
22553W        W38170  17.924   4.415  15.291 -0.1121  0.0463 -0.0906
22554W        W38171  16.944   7.200   4.465  0.2771 -0.0960  0.0694
22555W        W38172   1.088   2.055  12.898  0.0899 -0.4382  0.1262
22556W        W38173  15.585   0.233   4.556  0.1633  0.4220 -0.0204
22557W        W38174  11.621   5.719   1.314  0.2517 -0.0046  0.1665
22558W        W38175  14.851   0.732   0.743 -0.2990  0.1347 -0.1900
22559W        W38176   7.856  17.871   0.082  0.2128  0.1717  0.3189
22560W        W38177   8.321  10.341  12.782  0.1840  0.0523 -0.0315
22561W        W38178   1.755   6.998   1.687  0.1359  0.4419 -0.2627
22562W        W38179  12.908   7.540  13.924 -0.0080 -0.0055  0.2312
22563W        W38180   8.058   9.347   1.528  0.2365 -0.2753  0.2064
22564W        W38181  12.438  15.843   5.413  0.0061 -0.0021 -0.2521
22565W        W38182   0.436   6.654   2.990  0.0793 -0.3348  0.0861
22566W        W38183  14.367  17.093  11.229  0.0026 -0.5202 -0.0438
22567W        W38184   5.150   5.025  12.944  0.0426  0.0620 -0.2953
22568W        W38185  16.461  15.142   3.561  0.1411  0.2235  0.0670
22569W        W38186  16.553   3.998   3.384 -0.0487  0.1834  0.1720
22570W        W38187   2.089   6.773  10.874 -0.0017 -0.1367 -0.1003
22571W        W38188  17.339  14.913  12.247 -0.1233 -0.0674 -0.0068
22572W        W38189   1.145   0.858  16.293 -0.2889  0.3944 -0.1361
22573W        W38190  14.634   6.770   0.933 -0.0374  0.3976 -0.1161
22574W        W38191  13.256  11.037  14.374 -0.0628  0.1880 -0.0684
22575W        W38192  11.227   9.195  14.638 -0.1340  0.2333  0.0381
22576W        W38193  11.498   0.502   4.512 -0.3013  0.0940  0.3332
22577W        W38194   7.022  10.916   2.232  0.0020 -0.0379  0.0427
22578W        W38195   6.891   2.891   0.078  0.0716 -0.1789 -0.1610
22579W        W38196   3.721   0.819   0.785 -0.2327  0.0418 -0.0735
22580W        W38197   2.555  10.774   4.531  0.0309 -0.2616  0.2483
22581W        W38198   7.319   5.308   5.200  0.1161  0.3773 -0.2843
22582W        W38199  12.286  13.869  13.547 -0.0539  0.1558 -0.1463
22583W        W38200   9.496  14.909  15.851  0.2150  0.0791  0.2948
22584W        W38201  10.385   5.246   2.144 -0.0500 -0.0336 -0.1212
22585W        W38202  14.290   6.172   6.184  0.0030  0.0675 -0.1213
22586W        W38203  13.258   8.435  14.781 -0.2404  0.2098 -0.3700
22587W        W38204   3.013   1.353   4.217 -0.0068  0.3782 -0.4084
22588W        W38205  10.745  16.726  11.343 -0.0932 -0.1721 -0.0057
22589W        W38206  11.656  15.059   2.205 -0.1332  0.0934  0.0963
22590W        W38207   7.680   9.161  10.150  0.1076 -0.0448  0.0664
22591W        W38208   5.861   7.832   3.711  0.2516  0.2231 -0.2410
22592W        W38209   0.512   7.972  16.573  0.0547 -0.3172  0.1568
22593W        W38210   2.623   7.603  13.219 -0.0149  0.0712  0.0252
22594W        W38211  17.174  14.546  14.262  0.3205 -0.1084  0.0394
22595W        W38212   2.362  11.699   0.637  0.0784 -0.1418  0.0578
22596W        W38213  11.884   0.008   1.177 -0.0576 -0.1553  0.0594
22597W        W38214  13.550   4.510  11.783 -0.0813 -0.3148  0.3096
22598W        W38215   5.822   2.868   3.937 -0.1004  0.1667 -0.3500
22599W        W38216  10.296   0.308   2.556  0.2456  0.2797 -0.0860
22600W        W38217   5.376  15.683  14.292 -0.1077  0.4267 -0.2295
22601W        W38218   5.762   6.201  11.739 -0.0803  0.3655 -0.0769
22602W        W38219  10.153   4.106   3.541 -0.0348 -0.3446 -0.0234
22603W        W38220  13.271  17.046   1.959  0.0511  0.0945  0.0766
22604W        W38221  10.686   3.880  13.523 -0.3070 -0.0098  0.1232
22605W        W38222   1.632   8.942  12.204  0.1381  0.0259 -0.1060
22606W        W38223   9.625  16.238   5.340 -0.3104 -0.2097 -0.1031
22607W        W38224  15.062   0.988  13.607  0.1148  0.2650 -0.2420
22608W        W38225  13.342   7.258  14.992  0.0343 -0.2264  0.3755
22609W        W38226  15.734   1.100   2.728 -0.3659  0.0238  0.0335
22610W        W38227   2.425   1.316   1.894 -0.0244  0.3498  0.1006
22611W        W38228   6.507  11.128  11.385 -0.0083  0.0945  0.1614
22612W        W38229   3.557   6.901  16.587  0.0140  0.3394  0.3902
22613W        W38230   2.421  13.608   1.076  0.1461 -0.2596  0.2387
22614W        W38231   3.672   6.274  13.944 -0.4241  0.3411  0.1419
22615W        W38232  11.649  14.394   1.123  0.1121 -0.0139 -0.1228
22616W        W38233   2.582   6.774   0.922 -0.3046 -0.0087  0.0103
22617W        W38234   8.603  15.952   4.529 -0.2391 -0.0796  0.3268
22618W        W38235   6.465   7.805   5.749  0.1009  0.4183 -0.2046
22619W        W38236  16.044   4.484  13.668  0.1603 -0.1442  0.1312
22620W        W38237  15.420  17.638  12.821  0.1685 -0.1026  0.0883
22621W        W38238  12.382   6.058  16.486  0.2210  0.2499  0.0528
22622W        W38239   4.203   0.485   2.243  0.1052  0.1916  0.0299
22623W        W38240  14.146   8.230   2.657 -0.0409 -0.1859 -0.1240
22624W        W38241   0.462   3.863  12.909 -0.1770  0.0417 -0.0020
22625W        W38242  17.621   6.330   3.031  0.0404 -0.1621 -0.1223
22626W        W38243  14.820   9.547   1.655 -0.0878  0.3499 -0.2190
22627W        W38244  12.940   6.115  13.501 -0.0512  0.0564  0.2201
22628W        W38245   9.865   4.338   5.213 -0.2198 -0.3320 -0.2473
22629W        W38246   1.024   9.375   4.223 -0.0461 -0.0706  0.3089
22630W        W38247   8.688   0.770   2.729  0.1168 -0.3030 -0.1742
22631W        W38248   0.173   7.098   0.237 -0.1067  0.4084  0.2554
22632W        W38249   1.698   3.222  12.583  0.2163 -0.3506  0.3178
22633W        W38250  17.428   3.760   1.851 -0.1425 -0.0511 -0.0560
22634W        W38251   6.629   9.010   4.536  0.4143 -0.0631 -0.0943
22635W        W38252   6.609  16.703  16.575 -0.0394  0.0208  0.0289
22636W        W38253  10.902  13.107   1.830 -0.1983  0.1409  0.0355
22637W        W38254  10.514   1.061   3.329 -0.0739 -0.0086  0.2050
22638W        W38255  11.544   5.740   6.400  0.0753 -0.1807 -0.0641
22639W        W38256  14.829  16.057   2.056 -0.0821  0.1398 -0.2489
22640W        W38257  17.568   4.596  15.023  0.2209  0.0391  0.1215
22641W        W38258  11.105   6.871   3.994 -0.1717 -0.1990 -0.0395
22642W        W38259  11.000   5.471   1.997 -0.0166  0.0751 -0.0198
22643W        W38260  16.496   4.374   0.434 -0.4193 -0.2745  0.0753
22644W        W38261   1.353  16.249   2.830  0.0124 -0.0190  0.0135
22645W        W38262  13.529  15.176   1.288 -0.0531 -0.2227  0.1363
22646W        W38263  10.100   6.941   4.239 -0.0298 -0.1666  0.2503
22647W        W38264   3.954  12.734  11.588  0.1914 -0.0529 -0.0827
22648W        W38265   8.881  15.503   4.230  0.2674  0.0412 -0.0542
22649W        W38266   5.386   8.306   0.456  0.0944 -0.3003 -0.0453
22650W        W38267   6.420   0.953   0.568 -0.1187 -0.0494 -0.1370
22651W        W38268   7.934   6.172   2.658 -0.0892 -0.2562  0.2816
22652W        W38269   1.705   1.710   1.649  0.0794  0.2641 -0.1448
22653W        W38270   5.824  17.343  12.767  0.1285  0.3431  0.2558
22654W        W38271  11.041  14.830   1.554 -0.2066 -0.0447 -0.0204
22655W        W38272  16.535   2.726  14.070 -0.0678  0.2734  0.2139
22656W        W38273  12.332   3.504   2.523 -0.3477  0.0705 -0.0964
22657W        W38274   0.612  13.235  13.520 -0.0202  0.0304 -0.2815
22658W        W38275   5.635  10.992  12.983 -0.0049 -0.1820  0.0327
22659W        W38276   1.289  10.873   3.190  0.0992  0.0999  0.0743
22660W        W38277   6.417  17.588  16.761  0.0073 -0.4246  0.0553
22661W        W38278   7.017   4.019   2.758 -0.3583 -0.0531 -0.0860
22662W        W38279  13.578  10.944  12.643 -0.3599 -0.0976  0.2333
22663W        W38280  16.550  15.222   5.728  0.0955  0.0687  0.0534
22664W        W38281   9.704   8.627  11.435  0.1117 -0.0536 -0.5188
22665W        W38282   3.471   0.664  13.466 -0.3783 -0.0182  0.0690
22666W        W38283   1.821  14.299  11.839 -0.1298 -0.0447  0.2165
22667W        W38284   9.053   8.325  15.676 -0.0146  0.1135  0.3781
22668W        W38285   9.252   9.374   0.353 -0.0713 -0.2540  0.3539
22669W        W38286   5.920  16.829  14.527 -0.2074  0.0844  0.1440
22670W        W38287  14.332   3.019  15.828  0.0825 -0.2121 -0.0315
22671W        W38288  15.901   0.557   4.953  0.0116  0.1102 -0.1825
22672W        W38289  13.566  12.401  13.206  0.0536 -0.1967  0.1702
22673W        W38290   9.815  13.545  13.396 -0.0015  0.1157 -0.3831
22674W        W38291   8.733   5.663   5.857  0.2344 -0.0005  0.0715
22675W        W38292  17.359  16.406  16.774  0.1625 -0.1633 -0.1999
22676W        W38293  16.160  13.272  14.371 -0.2432 -0.2666 -0.0030
22677W        W38294   2.009   0.703   5.460 -0.3473  0.0487 -0.2120
22678W        W38295  14.308   5.435  11.414  0.0737  0.1765  0.0301
22679W        W38296   1.793  14.938   4.784 -0.2799  0.0784 -0.0528
22680W        W38297   4.833   8.864  14.255 -0.3490  0.2407  0.1937
22681W        W38298   8.279   9.709   3.044 -0.1970  0.1282  0.3043
22682W        W38299   7.818   5.320   3.625  0.1832  0.1298  0.0326
22683W        W38300   9.804  10.156  13.958  0.2080  0.1625 -0.1018
22684W        W38301   6.079   3.981   0.123 -0.2536  0.2271 -0.2016
22685W        W38302   6.185  13.702  14.013  0.1274 -0.1623 -0.0991
22686W        W38303  10.044   5.617  16.068  0.0316 -0.1030 -0.2247
22687W        W38304  11.049  14.895   5.445  0.1119  0.3314 -0.0391
22688W        W38305   8.591   6.034   5.029  0.0977 -0.0682  0.2965
22689W        W38306   7.997   3.097   2.711  0.1491 -0.1390 -0.0029
22690W        W38307   4.628  17.164   2.602  0.0226 -0.1275  0.3164
22691W        W38308  15.266  13.843  13.883  0.1450 -0.1613  0.0454
22692W        W38309   8.859   5.575  16.414  0.3077  0.1748 -0.1402
22693W        W38310   2.753   6.845   0.310  0.0894  0.2157 -0.0575
22694W        W38311   2.841  11.473   3.754  0.0813 -0.1421  0.0580
22695W        W38312   6.396  14.012  16.374  0.0759  0.1572 -0.1412
22696W        W38313  16.298  16.330  13.792  0.1381  0.5898 -0.0327
22697W        W38314  16.845   4.692   2.705  0.0671  0.0475  0.0638
22698W        W38315   5.775   5.319   5.662  0.0831  0.0136 -0.2713
22699W        W38316   3.148   9.206   4.936 -0.2901 -0.0135  0.1382
22700W        W38317   9.718  11.084  13.515 -0.0783  0.1662 -0.0185
22701W        W38318  14.249   1.396  13.321  0.1576 -0.1946  0.0008
22702W        W38319   4.190   0.137  16.692 -0.0633  0.2031  0.0312
22703W        W38320  14.668   7.780   3.897  0.4032 -0.0449 -0.0768
22704W        W38321   8.396   9.998   1.461 -0.0882  0.0562  0.0804
22705W        W38322   5.676   9.852   3.521 -0.1566 -0.2909 -0.1479
22706W        W38323   9.342   8.709  11.127  0.0160 -0.0959  0.1865
22707W        W38324  17.927   1.895  13.993  0.2976  0.1977 -0.2895
22708W        W38325  15.216   0.793   6.004  0.1621  0.2686 -0.1375
22709W        W38326   8.274   0.645   6.451 -0.0160 -0.0693  0.3669
22710W        W38327   2.418   8.828  12.164 -0.0406 -0.0662  0.3091
22711W        W38328  17.115  10.235   2.335  0.1569 -0.0023  0.1083
22712W        W38329   1.952   8.716   6.159 -0.3148 -0.1108 -0.1100
22713W        W38330   7.509   3.438  15.452  0.1082 -0.1426 -0.0065
22714W        W38331  12.467  11.290   3.532 -0.3213 -0.0754 -0.3400
22715W        W38332  16.976   7.899   3.216 -0.0992 -0.3662 -0.1072
22716W        W38333   2.937  12.868   6.230 -0.1166 -0.3036  0.0280
22717W        W38334   4.196  16.498   0.356  0.0424 -0.2902  0.1690
22718W        W38335  12.713   4.298  14.383 -0.5059  0.0586 -0.0589
22719W        W38336   0.356  16.030   1.233 -0.2174 -0.0640 -0.0863
22720W        W38337   3.561  10.975  13.387 -0.1165 -0.0435  0.1459
22721W        W38338   7.975  10.848  13.541  0.2315  0.1137 -0.0848
22722W        W38339  12.602   9.097  16.506 -0.0163 -0.4231  0.1648
22723W        W38340  11.927   9.452  14.245  0.1105  0.1263  0.0955
22724W        W38341  10.111   8.305  12.750 -0.0019  0.0888  0.1883
22725W        W38342   2.842   7.598   2.228 -0.0504 -0.1823 -0.1045
22726W        W38343   1.624  12.131   5.854  0.1138 -0.2160  0.2206
22727W        W38344   8.625  17.037  11.570  0.1338  0.1520  0.0501
22728W        W38345  17.333  12.209  14.558  0.3488 -0.1654 -0.0527
22729W        W38346   4.318   5.653   3.359  0.3239 -0.1366 -0.0303
22730W        W38347   9.171   7.713  10.897  0.1705  0.1075  0.2316
22731W        W38348   3.566   7.916  11.359  0.3017  0.4044  0.2338
22732W        W38349  15.628   1.722   3.335  0.0345 -0.0674 -0.0413
22733W        W38350   9.694   2.533   4.521 -0.0649  0.0728  0.1093
22734W        W38351  13.833   1.637  15.667  0.0443 -0.1060  0.3766
22735W        W38352  15.850   1.940   5.880  0.1785  0.0889 -0.0620
22736W        W38353  15.647   0.578  14.885  0.2789  0.0579 -0.0586
22737W        W38354   3.508   6.052  12.578  0.1260  0.3346  0.1345
22738W        W38355   4.181  13.822  11.467 -0.0984  0.3407  0.2203
22739W        W38356  16.741   2.111  15.623 -0.3663  0.1611 -0.2258
22740W        W38357   8.181  11.523  14.285  0.1879 -0.4895 -0.2392
22741W        W38358   4.954  10.793  16.570  0.0510  0.2189  0.1731
22742W        W38359   1.025  14.594   4.503 -0.0934  0.1867 -0.0315
22743W        W38360   8.742  11.435  14.530 -0.0225  0.0427  0.1359
22744W        W38361   4.320  16.461   5.475  0.3039  0.0496  0.3171
22745W        W38362  14.808  12.762   5.538 -0.1070 -0.1802 -0.1674
22746W        W38363  12.228  13.570  11.600 -0.2899  0.0326  0.0551
22747W        W38364   2.788   9.730  12.356 -0.1709 -0.0589  0.0970
22748W        W38365   0.974   4.355   2.576  0.0252 -0.0703  0.6237
22749W        W38366   6.585   1.611  15.704 -0.0007  0.3353  0.1544
22750W        W38367   5.065   8.353   2.357 -0.0655 -0.0783 -0.2193
22751W        W38368   4.318   4.656  15.883 -0.0640  0.1970  0.0603
22752W        W38369   3.924  17.133  11.642 -0.2381  0.3254  0.0784
22753W        W38370  12.032  15.007  13.590 -0.2303 -0.1261  0.0991
22754W        W38371   3.714   4.583   5.044  0.5840  0.0413 -0.1423
22755W        W38372   5.779  15.693  13.038  0.0993  0.2390  0.1044
22756W        W38373   5.252   6.700   3.172 -0.1270  0.0787 -0.1675
22757W        W38374   7.401  12.059   0.511 -0.2836  0.1043 -0.0376
22758W        W38375  10.298  14.199  13.924  0.1191  0.0207 -0.1235
22759W        W38376  17.290  14.481   1.452 -0.0262  0.0196 -0.2504
22760W        W38377   3.638  10.458   0.994 -0.0215 -0.2714  0.1372
22761W        W38378   6.034   7.868  13.510  0.3319 -0.1020 -0.1354
22762W        W38379   1.245  11.647  12.438 -0.1848  0.1044  0.3386
22763W        W38380  17.943   0.640  12.006 -0.0879  0.2280  0.2398
22764W        W38381  15.389   0.332   5.537  0.3502  0.1273  0.1637
22765W        W38382   9.517   9.876   2.047 -0.0400  0.0015 -0.2840
22766W        W38383  12.865  16.093   0.370  0.2638 -0.0212 -0.0064
22767W        W38384   5.880  11.050   5.653 -0.2937 -0.2026  0.1045
22768W        W38385  12.555   8.558  11.797 -0.2115  0.2880  0.4630
22769W        W38386   2.043   0.105  14.501  0.0208  0.3566 -0.1162
22770W        W38387  15.192  13.056   5.090 -0.3954  0.1185  0.1544
22771W        W38388  11.627   1.369   4.970 -0.0434 -0.0623  0.0488
22772W        W38389  10.477  16.985   2.217 -0.0640 -0.0121 -0.1138
22773W        W38390   7.465   7.357   4.350  0.3260  0.1428 -0.1316
22774W        W38391  15.936   8.266  12.540  0.1963  0.1521  0.0858
22775W        W38392   3.073  12.671  13.442 -0.2887 -0.2537 -0.0263
22776W        W38393   5.012   3.629  15.950  0.0184  0.1933  0.1919
22777W        W38394  12.017  17.446   0.161  0.1932 -0.1297 -0.1773
22778W        W38395   3.525  11.099  16.117 -0.0036  0.2280 -0.3041
22779W        W38396  13.314  16.676   4.815 -0.3643  0.2577 -0.0866
22780W        W38397  15.339   4.681   2.805 -0.0073  0.0543 -0.2715
22781W        W38398  11.999   0.520   0.933  0.1020  0.4002 -0.3344
22782W        W38399   4.795   2.100   4.890 -0.3604 -0.0143 -0.1777
22783W        W38400   1.699   6.579   2.049 -0.0720  0.0748  0.1406
22784W        W38401   6.777   9.405  11.375 -0.1832  0.1518 -0.2898
22785W        W38402   0.363   9.317  15.634 -0.0476  0.0681  0.2697
22786W        W38403   9.443  16.773  15.957 -0.1847  0.3980 -0.3022
22787W        W38404  16.181  12.312   0.050 -0.1901 -0.2130  0.0061
22788W        W38405  14.433   4.053  12.171  0.1446  0.0985 -0.1150
22789W        W38406  10.729   5.189   4.391 -0.0065 -0.1764  0.5559
22790W        W38407   1.887   0.200   1.132 -0.1285  0.0353  0.1658
22791W        W38408  10.521   5.835  14.980 -0.1298  0.2354 -0.0333
22792W        W38409   3.820   8.779  11.285 -0.1684 -0.3011 -0.0877
22793W        W38410  15.467   0.942   5.112 -0.0620  0.1176  0.2010
22794W        W38411  17.960  15.918  13.449 -0.0794 -0.2516 -0.2025
22795W        W38412  16.551   0.413   4.441 -0.1020 -0.1266 -0.4525
22796W        W38413  11.096  12.507   0.945 -0.0037 -0.3297  0.2343
22797W        W38414  16.304   8.138   1.765 -0.0788  0.1505 -0.0357
22798W        W38415   4.174   2.087  14.247  0.0869 -0.1716 -0.0495
22799W        W38416   3.049   1.218   1.512 -0.1179 -0.1173  0.0008
22800W        W38417   8.706   7.081   0.529 -0.3411 -0.2216 -0.0427
22801W        W38418  10.706  10.137   1.970 -0.1503 -0.3275  0.3188
22802W        W38419  17.900   7.437  12.060  0.0874  0.0404 -0.1939
22803W        W38420  14.652  16.676  14.597 -0.2622  0.0998  0.2064
22804W        W38421   5.670  13.440  13.581 -0.2019 -0.2189 -0.1725
22805W        W38422   3.327   9.791   3.152  0.1120 -0.2515  0.0732
22806W        W38423   9.103   0.087   2.885 -0.0021  0.1198 -0.3509
22807W        W38424  11.934  17.384   5.373  0.0361  0.3145 -0.1129
22808W        W38425   7.123  10.703   4.602 -0.1035  0.1718  0.2069
22809W        W38426  12.764   8.821   0.085 -0.2069 -0.0668  0.1901
22810W        W38427  10.231  17.878   1.792 -0.1078 -0.0638 -0.0010
22811W        W38428   0.566  10.346   0.207 -0.3702  0.3515 -0.2633
22812W        W38429  10.500  11.762  10.802  0.1951  0.3053  0.0355
22813W        W38430   9.133  17.928  16.509  0.0745 -0.2100 -0.0969
22814W        W38431   0.820  11.096   0.948  0.1212  0.3139  0.1371
22815W        W38432  18.041   1.690   5.459  0.1543 -0.1677 -0.0147
22816W        W38433   5.262   3.094   6.392 -0.0920  0.5940 -0.2031
22817W        W38434   6.964   7.408  12.456  0.3596 -0.2331  0.3046
22818W        W38435  13.278  14.766  11.873 -0.0343 -0.0757  0.0448
22819W        W38436  12.680  17.880   0.754  0.1638 -0.3639  0.0334
22820W        W38437   1.735   4.433   4.690 -0.0860  0.2285 -0.2355
22821W        W38438  12.385   7.856  12.799 -0.0016  0.1084  0.1043
22822W        W38439  11.749  12.219   1.687  0.3918 -0.1307  0.1458
22823W        W38440   8.105  14.243  16.256  0.0295  0.1232  0.1996
22824W        W38441  11.939   4.322  12.831  0.1049 -0.0750  0.4045
22825W        W38442  15.943  10.465   2.915  0.0274 -0.1446 -0.1039
22826W        W38443   1.677  13.186   4.660 -0.2233  0.4251  0.0062
22827W        W38444  17.981   6.818  16.064  0.0515  0.0413 -0.1203
22828W        W38445   0.468   4.603  15.179  0.2075  0.0581  0.2018
22829W        W38446   1.422  16.796   4.741 -0.1854  0.0960 -0.1483
22830W        W38447   5.486   2.153  10.676  0.0172  0.0043  0.0732
22831W        W38448  15.856   7.541   1.901 -0.1138 -0.3858 -0.1252
22832W        W38449  16.112  17.327   1.363 -0.0568  0.2469  0.0628
22833W        W38450  11.671   4.830   1.511 -0.0028  0.1148  0.1676
22834W        W38451   9.275   1.790   5.857 -0.3364  0.3392 -0.1841
22835W        W38452   3.565   0.863  12.193  0.1616  0.1814 -0.1767
22836W        W38453  12.690  13.052   5.960 -0.0686  0.3874  0.2103
22837W        W38454   9.469   7.658  16.482  0.0935 -0.2544  0.1202
22838W        W38455   7.814  12.481   5.041 -0.0491  0.1944 -0.0276
22839W        W38456  10.921  14.343   6.161  0.0932  0.2313  0.0293
22840W        W38457   1.412   7.768  11.875  0.0202  0.0564  0.2516
22841W        W38458   1.238  12.901   4.247  0.2100  0.4746  0.2377
22842W        W38459   9.719  14.768  14.855 -0.0319  0.1636  0.0267
22843W        W38460   7.221   9.377   1.385  0.0348  0.0429 -0.0251
22844W        W38461   1.226   2.450   5.183  0.0573 -0.3131 -0.0721
22845W        W38462   0.758  15.172   4.381  0.0437 -0.0164  0.0614
22846W        W38463  12.804  14.647   5.065  0.1451  0.0431 -0.2676
22847W        W38464  14.490   1.263   1.713 -0.0956  0.1282  0.2540
22848W        W38465   2.600   1.215   4.564  0.1007 -0.2235  0.0246
22849W        W38466   2.667   8.075  12.899  0.0935 -0.4300 -0.1558
22850W        W38467  10.608  15.728   3.210  0.4672 -0.2892 -0.0140
22851W        W38468   2.629  14.525  16.607 -0.1594 -0.0970 -0.1942
22852W        W38469  13.218   9.763   1.718 -0.3041 -0.1678  0.0878
22853W        W38470   0.621  17.326   2.212 -0.0759  0.0250 -0.0648
22854W        W38471   9.030  16.770   3.803  0.0365  0.1787  0.1859
22855W        W38472   6.503  12.118  16.324 -0.0064 -0.4089 -0.0912
22856W        W38473   7.139   6.768   5.996  0.0308  0.0873 -0.0218
22857W        W38474   1.351   7.290  14.266  0.1383  0.1448  0.1467
22858W        W38475   2.336   8.242  11.842  0.2823  0.0753  0.0169
22859W        W38476  17.626   6.966   1.479 -0.1746  0.3551  0.0725
22860W        W38477  10.646   9.591   3.535  0.4227  0.0786  0.5480
22861W        W38478  11.925   7.160  11.806 -0.1022 -0.0532 -0.1779
22862W        W38479   9.350   3.229   0.343 -0.1347 -0.3245 -0.3071
22863W        W38480   6.594   3.473   4.611 -0.1093 -0.1605  0.3098
22864W        W38481  10.402   6.909   5.296  0.2840 -0.0802 -0.1935
22865W        W38482   3.072  14.920   2.388  0.1282  0.1145 -0.1326
22866W        W38483   7.572  16.201   4.781  0.1826 -0.3678 -0.1476
22867W        W38484  18.011   5.378  13.252 -0.0250 -0.1230  0.2062
22868W        W38485  10.667  16.890  12.282 -0.2965  0.0062  0.2967
22869W        W38486   1.659  11.615  14.273  0.0770 -0.0086  0.2339
22870W        W38487   1.373   8.465   6.264  0.1393 -0.2379  0.1754
22871W        W38488  14.345  14.151  14.280  0.0978 -0.0701  0.0208
22872W        W38489  11.352   7.837   0.783  0.2005 -0.1587 -0.0582
22873W        W38490   9.736   3.270   1.551  0.0781 -0.3148 -0.3319
22874W        W38491   4.252   7.627   1.927  0.2308  0.0456 -0.1704
22875W        W38492   1.096   3.407   2.028  0.0826  0.0239  0.1880
22876W        W38493   7.997  16.517   0.346 -0.1778  0.0063  0.3899
22877W        W38494  16.786  11.110  14.332  0.3746  0.0131  0.0571
22878W        W38495   3.113   9.229   1.168 -0.0326  0.0964 -0.2706
22879W        W38496  15.769   8.128  13.442  0.0646  0.0686 -0.1343
22880W        W38497  11.251  10.157   0.823 -0.1537  0.1100 -0.1709
22881W        W38498  14.533   7.155   5.782  0.0704  0.2372 -0.1309
22882W        W38499   2.692   5.340   4.003  0.0223 -0.0376  0.1240
22883W        W38500  15.395  15.410  13.293 -0.0668  0.1425  0.3792
22884W        W38501  15.761  13.458  16.342  0.0274 -0.0421  0.1883
22885W        W38502  13.384   4.936   3.866  0.1117 -0.1886 -0.1732
22886W        W38503   5.232   7.468  15.311  0.0355 -0.2892 -0.1057
22887W        W38504   8.847  15.705  16.032  0.0455 -0.0948 -0.1138
22888W        W38505   2.082   9.841   6.239  0.2308 -0.2063 -0.0106
22889W        W38506   4.554  10.908   1.942  0.1373  0.3337  0.0393
22890W        W38507   3.117   6.278   4.031 -0.0308 -0.1412 -0.0073
22891W        W38508  11.521   1.253   3.316  0.2189 -0.0993 -0.3490
22892W        W38509  13.920   6.437  14.112 -0.2162 -0.0063  0.2978
22893W        W38510  17.309  14.025  15.949  0.0462  0.2000  0.0846
22894W        W38511   4.616  14.983   0.479  0.0500 -0.0505  0.0965
22895W        W38512  14.032   4.742  11.953  0.2716 -0.0328 -0.0059
22896W        W38513  17.808   2.772  13.533 -0.0875  0.1896  0.4120
22897W        W38514   1.572   6.139   3.636  0.3051 -0.3298  0.1314
22898W        W38515   6.754   1.684   3.113 -0.0587 -0.0418  0.1264
22899W        W38516   2.097   4.633  15.998  0.1088 -0.1421 -0.2036
22900W        W38517   0.660   8.191   2.291  0.1363  0.0928  0.1555
22901W        W38518   6.461   3.873   4.317 -0.4278 -0.0707  0.0905
22902W        W38519  12.327  17.428   4.416 -0.1654  0.1078  0.1265
22903W        W38520  16.675  12.501   2.346  0.2740 -0.2339  0.0787
22904W        W38521   1.941  17.661  16.376 -0.0039  0.0671 -0.0988
22905W        W38522   7.081   8.697   2.788  0.1208 -0.1896 -0.1162
22906W        W38523   0.769   4.741  13.737 -0.0647 -0.1409 -0.1949
22907W        W38524   0.746   1.594   1.662  0.3102 -0.1062 -0.2983
22908W        W38525  16.601  14.237   1.291  0.0998 -0.0225 -0.0904
22909W        W38526   0.282   1.009  13.630  0.1234 -0.0534  0.1723
22910W        W38527  10.170  10.663  11.384 -0.2800  0.2954  0.0874
22911W        W38528   8.543   4.822   2.673  0.0814  0.1724 -0.0773
22912W        W38529  14.363   2.247  15.320  0.0658  0.0104  0.0599
22913W        W38530   4.304   4.791   3.096 -0.0433  0.6881 -0.3283
22914W        W38531   6.958  11.767   4.558 -0.1440  0.0170  0.1258
22915W        W38532   4.214   7.567  12.643 -0.1172 -0.1257  0.1331
22916W        W38533   4.424   0.039   2.338 -0.1516 -0.0178  0.2422
22917W        W38534  16.005   7.676   5.853  0.1131  0.2354  0.4211
22918W        W38535   0.070  13.050  13.253  0.0560  0.1139 -0.1079
22919W        W38536  15.868   6.734   1.431  0.0740  0.0366 -0.0800
22920W        W38537   6.678   9.630  12.873 -0.0272 -0.1025 -0.3317
22921W        W38538  11.275   1.483  14.776 -0.0563 -0.1331 -0.0641
22922W        W38539   3.881   7.470  15.339 -0.0521  0.0941 -0.0160
22923W        W38540   1.555   2.790  12.865 -0.2553 -0.1335 -0.0380
22924W        W38541   2.867   4.913   4.486  0.2519  0.0366 -0.1831
22925W        W38542  17.948   4.152  13.692 -0.2567 -0.4767 -0.0244
22926W        W38543   2.040  10.620   3.804 -0.1530 -0.3024 -0.1022
22927W        W38544  15.764  11.659  13.055 -0.1538 -0.0972 -0.0718
22928W        W38545  13.116  15.436  15.811  0.0933  0.0081  0.2308
22929W        W38546  15.734  11.198   1.075  0.0278  0.1624 -0.2227
22930W        W38547   8.402   0.793  14.437 -0.0433  0.0890 -0.1803
22931W        W38548  15.010  12.428  14.187 -0.1885  0.0647 -0.3330
22932W        W38549   8.172  14.736   3.721 -0.0032  0.0079 -0.1719
22933W        W38550  15.832  12.546  14.651 -0.0837  0.0355 -0.2178
22934W        W38551  11.138  16.689   1.118  0.0404 -0.1147 -0.2496
22935W        W38552  14.197   3.563   3.586 -0.0097 -0.0811 -0.0701
22936W        W38553  14.529  14.247  15.661 -0.0985  0.0844  0.0375
22937W        W38554  13.839  11.378   5.961  0.1848  0.0613  0.2664
22938W        W38555  16.687  12.682   4.480  0.0490  0.0115  0.0978
22939W        W38556   1.965   2.674   0.255  0.0016 -0.2100 -0.1199
22940W        W38557   7.159   4.320  16.445  0.1479 -0.2684 -0.0088
22941W        W38558   8.401   9.610   3.545 -0.0786 -0.2278  0.2098
22942W        W38559  15.634   6.373   4.366  0.0145 -0.3692 -0.1048
22943W        W38560   4.756   6.871  14.751  0.0002 -0.2221 -0.1395
22944W        W38561  12.065  11.575   3.453 -0.3034  0.2512 -0.0624
22945W        W38562   8.407   3.090   3.833  0.2697  0.2061  0.2190
22946W        W38563   9.984   2.941  12.519 -0.0490 -0.4268 -0.0577
22947W        W38564  14.795  11.058  11.685  0.1933  0.2157 -0.1027
22948W        W38565  11.691   9.190   4.374  0.0702 -0.3847  0.1991
22949W        W38566  13.131   7.686  14.885  0.2529  0.0505  0.0501
22950W        W38567  11.641  15.522   4.935 -0.1501 -0.0732  0.4083
22951W        W38568   5.185  12.813  16.544 -0.2490  0.0987  0.1108
22952W        W38569  13.715   2.286   2.894 -0.0533 -0.0655  0.2505
22953W        W38570   5.526   1.566  11.364  0.2500 -0.1080  0.0580
22954W        W38571   6.465  18.016  11.390 -0.1568 -0.2085  0.2158
22955W        W38572   8.859   5.429  14.221 -0.1674 -0.1543 -0.0093
22956W        W38573  12.070  14.518  16.023 -0.0154  0.0699 -0.2995
22957W        W38574   3.481   3.492   5.833  0.4286  0.0457  0.1618
22958W        W38575   8.112  14.888  16.184  0.0007 -0.1749 -0.1140
22959W        W38576  10.808  17.128   3.088  0.1098 -0.0133 -0.1075
22960W        W38577   4.420   8.555   3.251 -0.1234  0.1677  0.2022
22961W        W38578   7.944   5.191   0.821 -0.2616 -0.0443  0.1509
22962W        W38579  16.091   5.741   1.154  0.0295 -0.1448  0.3991
22963W        W38580   8.332   8.742  11.150  0.2249 -0.4197  0.1402
22964W        W38581  17.650  11.099   2.573  0.0497 -0.3993 -0.1253
22965W        W38582  17.564  17.406   2.206 -0.0965 -0.1847  0.0450
22966W        W38583   6.129  15.537   2.655  0.0075  0.1004 -0.1675
22967W        W38584  13.107   1.568   3.171  0.1724  0.1794  0.3319
22968W        W38585   4.360  15.832  14.629  0.0756 -0.2928 -0.0569
22969W        W38586   2.499   5.945  14.014 -0.2430  0.3912 -0.0033
22970W        W38587   2.692  13.878  13.197  0.1233  0.2327 -0.0516
22971W        W38588   0.346   2.160   5.484  0.3296 -0.0321 -0.2095
22972W        W38589   7.105  14.904  16.023  0.3494 -0.0426 -0.0302
22973W        W38590  14.664  11.204   5.386  0.4891 -0.2587  0.1083
22974W        W38591  15.337  10.787  14.637  0.0427 -0.3479  0.2641
22975W        W38592   6.486  15.534  12.272  0.1332  0.1116 -0.1216
22976W        W38593  12.745   8.251  14.128  0.0839 -0.2017  0.0542
22977W        W38594  11.317  10.497  15.470  0.1496  0.3784 -0.3376
22978W        W38595   5.637  15.639   0.868 -0.1961 -0.2996 -0.0390
22979W        W38596  17.028   1.645  11.790 -0.0714 -0.2205  0.1543
22980W        W38597   8.284   8.654   5.232 -0.0054 -0.0395 -0.2512
22981W        W38598   8.578   2.501   3.365  0.1357 -0.0242  0.2843
22982W        W38599   9.917   7.197  15.852 -0.1260 -0.0172 -0.1649
22983W        W38600  12.508  14.059   3.523 -0.1314  0.2745  0.1307
22984W        W38601  17.078   5.761   5.085 -0.2791 -0.4259 -0.0541
22985W        W38602   4.013  15.071  12.535 -0.0427 -0.0887 -0.1590
22986W        W38603   3.619   4.261   4.125 -0.1128  0.3010  0.2748
22987W        W38604  10.502   0.752   5.188  0.1245  0.1514 -0.3041
22988W        W38605  11.617  13.821   5.206  0.0843 -0.1526 -0.1452
22989W        W38606  15.799  13.743   1.910  0.0969 -0.1654  0.1254
22990W        W38607   7.761  11.995  15.105  0.3187  0.2205 -0.1300
22991W        W38608   1.222   0.513   0.117  0.0471  0.4143  0.0196
22992W        W38609  17.521  12.693  16.550  0.1622  0.0778 -0.1807
22993W        W38610  15.059   3.847   1.759  0.0730 -0.0841  0.2080
22994W        W38611   2.053   4.814   4.786  0.1720  0.0245 -0.2009
22995W        W38612   2.661  13.308  11.740  0.1399 -0.1176 -0.2556
22996W        W38613  11.334   0.108   5.218  0.0995  0.1489 -0.0879
22997W        W38614  15.794  12.449  11.987  0.0581  0.2152  0.1270
22998W        W38615  16.271   2.624   0.458  0.2343 -0.1893  0.4016
22999W        W38616  15.744  15.821  11.304  0.1235  0.2198 -0.0042
23000W        W38617   2.476  10.392   3.575  0.2012  0.0313 -0.1053
23001W        W38618   3.547  17.409   2.931  0.0316  0.0192 -0.3118
23002W        W38619   6.220  13.067   3.825  0.1953  0.1764  0.2941
23003W        W38620   6.303   8.208   2.000  0.0278 -0.4454  0.2237
23004W        W38621   6.221  16.690   4.100  0.0832  0.0580 -0.1594
23005W        W38622   0.930  16.203  15.414 -0.2447  0.2826  0.2270
23006W        W38623  13.245  12.528   3.554  0.1815 -0.2386  0.2858
23007W        W38624   8.377   1.566   0.091 -0.0376  0.0625  0.0933
23008W        W38625  17.942  15.348  14.613  0.0336 -0.3493 -0.0573
23009W        W38626   9.437  17.434  15.515  0.0045  0.0635 -0.2138
23010W        W38627   8.247  10.248   4.263  0.3556 -0.2176  0.4424
23011W        W38628  17.271   1.641  15.055 -0.1823 -0.1757  0.1705
23012W        W38629   0.415   3.545  14.366  0.1682 -0.1147  0.2062
23013W        W38630   0.830   4.559  16.016 -0.1506 -0.1258  0.0162
23014W        W38631   4.069  11.366   1.997  0.1188  0.1148  0.2016
23015W        W38632   7.853   5.225  13.684  0.0242 -0.0416 -0.0489
23016W        W38633  17.902  10.661  16.670  0.2151 -0.1944 -0.0451
23017W        W38634   7.328  12.296  15.564  0.2288  0.3626  0.2297
23018W        W38635  15.171  10.791   4.543 -0.0256 -0.0359 -0.2119
23019W        W38636   2.016  11.589   3.052 -0.1363 -0.0033 -0.0755
23020W        W38637   5.582  14.682  13.132  0.1251  0.2515 -0.4651
23021W        W38638   8.496  16.715  15.791  0.0430  0.2024 -0.1833
23022W        W38639  10.084  14.430  14.724  0.0553  0.0051 -0.1520
23023W        W38640   1.543  14.272   3.287  0.2112 -0.1205 -0.1909
23024W        W38641  17.242  10.372   2.872 -0.1526 -0.0222 -0.1130
23025W        W38642  10.514  13.747   1.345  0.0889 -0.2286 -0.4541
23026W        W38643   7.400  17.156   4.822 -0.1612 -0.0296 -0.1570
23027W        W38644   7.922   6.176   5.706 -0.2020  0.2871  0.0176
23028W        W38645  11.235   2.530  15.341 -0.0439 -0.1783 -0.1828
23029W        W38646  10.784   0.916   0.925 -0.1191 -0.3601 -0.0140
23030W        W38647  16.077   4.838  11.395 -0.6610 -0.0452  0.0136
23031W        W38648  15.513   4.057  14.933  0.1207  0.0184  0.1761
23032W        W38649   7.025  13.935  16.614 -0.2548  0.1520 -0.1733
23033W        W38650   0.225  13.088  15.694 -0.1725  0.0889  0.2280
23034W        W38651  13.763   7.255  13.416  0.1476  0.0033  0.1637
23035W        W38652   4.649   7.424  16.398 -0.3138 -0.0350  0.0536
23036W        W38653   4.609  12.523  16.660 -0.1551  0.1495  0.0324
23037W        W38654   0.804   9.213   6.532 -0.1432 -0.0623  0.2553
23038W        W38655  16.422   9.466  12.331 -0.2669  0.1256 -0.2248
23039W        W38656   2.743  11.606  13.768 -0.2638  0.0625  0.2944
23040W        W38657   4.181  13.491   5.466  0.4132 -0.0596 -0.3566
23041W        W38658   0.561   6.669  12.549  0.0625 -0.1034 -0.1395
23042W        W38659   5.383  15.870   4.457 -0.0001 -0.3045 -0.2560
23043W        W38660  17.852   9.702   3.059 -0.2157  0.1947  0.2783
23044W        W38661  12.652   7.008  16.025 -0.0745 -0.1090  0.0330
23045W        W38662   3.458   3.219  15.870 -0.0455 -0.2671 -0.1610
23046W        W38663   0.971  10.925  14.132  0.2243 -0.3245 -0.1601
23047W        W38664   6.313   3.917   3.459 -0.3280 -0.2919  0.2396
23048W        W38665   4.497   8.579  15.340 -0.1210 -0.0687 -0.0396
23049W        W38666  11.138  17.227   1.865  0.0727  0.0084  0.0327
23050W        W38667   3.725  16.811  14.069 -0.4209 -0.1763 -0.0037
23051W        W38668   5.325   9.710  12.776  0.1997  0.2091  0.1727
23052W        W38669  11.488   2.711  11.980 -0.0218  0.1275  0.1281
23053W        W38670   4.281  14.301  13.244  0.2928 -0.0034 -0.1708
23054W        W38671   2.514  12.581   1.317  0.3219  0.1490 -0.0463
23055W        W38672  16.813  17.553  12.175  0.0490 -0.2717 -0.0477
23056W        W38673   1.266  14.389  13.416 -0.2322 -0.1522 -0.2432
23057W        W38674  13.570  13.573  13.029 -0.1365  0.1259  0.2900
23058W        W38675   6.567  11.488  11.089 -0.0556 -0.1490  0.3038
23059W        W38676   2.806  13.081   0.002  0.2487 -0.2887  0.1397
23060W        W38677   5.355  10.556  12.978  0.2529  0.1149 -0.2248
23061W        W38678   4.914   6.992   1.601 -0.2109 -0.1633 -0.0995
23062W        W38679  17.318  14.850   1.773  0.0001  0.1015  0.0568
23063W        W38680   8.635   9.595  10.140 -0.0820 -0.1618  0.0901
23064W        W38681  13.229   9.871   2.568  0.1902  0.4436 -0.3076
23065W        W38682  14.150   2.456  12.231  0.1973 -0.2903 -0.0708
23066W        W38683   1.431  13.578   1.787  0.4483  0.0338  0.2017
23067W        W38684   4.240   9.595  16.119  0.0141  0.1069 -0.1339
23068W        W38685   0.253  15.185   4.650 -0.0357  0.3666  0.1769
23069W        W38686  13.678   7.722   3.927  0.0066  0.1090 -0.1942
23070W        W38687   7.352  14.819  11.490 -0.0328 -0.2323 -0.2045
23071W        W38688  14.119   1.825  15.146 -0.4117 -0.0121 -0.2008
23072W        W38689  14.334  15.842   1.877  0.1187 -0.0130  0.1562
23073W        W38690   5.663  13.018  11.891  0.0409 -0.0238 -0.2020
23074W        W38691  10.781  17.381  14.822 -0.0344  0.4424 -0.2399
23075W        W38692   9.903   3.339  13.475 -0.2707 -0.3156  0.1910
23076W        W38693   6.857   8.860   4.966  0.1675  0.0970 -0.1101
23077W        W38694   7.691  12.471   1.698 -0.1183 -0.0298  0.1388
23078W        W38695   1.626   1.873   6.494  0.0901  0.1088 -0.0668
23079W        W38696  11.312   0.077  12.430  0.0029  0.0449 -0.2722
23080W        W38697   5.684  16.912  16.095 -0.1810  0.0114  0.1092
23081W        W38698   8.703   7.914   0.164 -0.2858 -0.2613 -0.0763
23082W        W38699  13.972   6.023  14.484  0.1719  0.1772 -0.1664
23083W        W38700   6.184   0.294   2.166  0.0905  0.0283  0.2537
23084W        W38701  15.834  10.836  15.620  0.0969 -0.0556  0.1865
23085W        W38702   9.826  17.301  11.981 -0.2831 -0.5094  0.2703
23086W        W38703  11.735  17.977  14.653  0.0588  0.1061  0.2485
23087W        W38704  13.972  14.582   4.161 -0.1354 -0.0422  0.2385
23088W        W38705  12.136  13.645   1.262 -0.1573 -0.0482  0.2577
23089W        W38706   2.437   1.969  13.301  0.0886  0.3808  0.1279
23090W        W38707  15.577   1.846  13.784  0.0456  0.1870  0.0355
23091W        W38708   4.774  17.352   0.695  0.1507  0.0448  0.2439
23092W        W38709   4.476   5.247  14.123  0.2460 -0.0032  0.0272
23093W        W38710  11.522   6.756   4.850  0.1237  0.1846 -0.0879
23094W        W38711  13.583  12.372   0.576 -0.0502 -0.1542  0.1448
23095W        W38712  12.638  10.345  11.615  0.1392  0.0220  0.1318
23096W        W38713   9.130   3.115  15.400 -0.0487  0.1329  0.0996
23097W        W38714  15.169  12.808  13.410  0.2868  0.0992 -0.0049
23098W        W38715  17.624  11.738  12.394  0.0158 -0.0224 -0.1812
23099W        W38716  12.574  13.150   2.098 -0.1559  0.0599  0.2275
23100W        W38717  14.366  13.597   5.304  0.0030  0.1583  0.1484
23101W        W38718   4.540  11.614  11.640 -0.1998  0.3562 -0.1072
23102W        W38719   0.816   8.009   3.785 -0.1252 -0.3130  0.4262
23103W        W38720   9.729   7.647   2.051  0.2385  0.1591 -0.0499
23104W        W38721  10.486   3.200   3.261 -0.2283 -0.0322  0.1336
23105W        W38722   5.554  14.299   1.874  0.1361  0.1491 -0.1069
23106W        W38723   2.345  16.057  13.460  0.0213 -0.0447  0.0488
23107W        W38724   4.342   8.023   3.033 -0.0477  0.0264 -0.1468
23108W        W38725  15.322   7.932  16.608 -0.1844 -0.0710  0.1738
23109W        W38726   1.566  10.917  11.552 -0.1351  0.1390  0.0294
23110W        W38727  17.674  12.488   3.379 -0.0582 -0.1168  0.0121
23111W        W38728   3.566  17.407   1.020 -0.1554  0.0119 -0.0564
23112W        W38729  11.618  10.618  14.999 -0.0651  0.2949  0.0141
23113W        W38730  14.678   3.184   5.264 -0.2049  0.3005  0.3623
23114W        W38731   7.725  16.710   4.571  0.0985 -0.0552 -0.2382
23115W        W38732  13.434  10.341   2.623  0.0370 -0.2617  0.3375
23116W        W38733   6.746  10.119  11.071  0.1078  0.5629  0.1131
23117W        W38734  17.240  16.259   0.883  0.4614  0.0335 -0.0074
23118W        W38735   1.048   9.127  14.735 -0.0486 -0.1117 -0.4668
23119W        W38736   8.599   3.180  11.636  0.0566  0.0041  0.4318
23120W        W38737  12.805  12.680  14.705  0.0083 -0.1468  0.4006
23121W        W38738  15.185  17.890   5.609  0.0106  0.1407  0.2758
23122W        W38739  15.187   3.682  11.751  0.4532  0.1094 -0.0930
23123W        W38740   9.698  13.526  12.520 -0.2818 -0.0747 -0.1799
23124W        W38741  14.687   0.367  15.813  0.0152  0.2326 -0.0589
23125W        W38742  10.824   5.051  14.105  0.1179  0.0505 -0.2403
23126W        W38743  15.294   9.261  11.996  0.3782  0.2170  0.2366
23127W        W38744   0.987   6.338  14.913 -0.2061 -0.0423 -0.2492
23128W        W38745   1.490  11.871   0.182 -0.2924  0.0627 -0.1111
23129W        W38746   4.995  16.284   2.283 -0.1480 -0.3374 -0.1534
23130W        W38747   4.957   1.349   6.309  0.2730  0.1421  0.0711
23131W        W38748   8.860  17.354  12.303 -0.0495  0.0756 -0.1795
23132W        W38749   9.689   5.713  13.894 -0.0084  0.1022 -0.3119
23133W        W38750   9.603  14.018  16.775 -0.4484  0.1883  0.0842
23134W        W38751   0.823   4.810   5.398 -0.0017 -0.0672 -0.2364
23135W        W38752   2.132   3.048  15.988  0.3295  0.2398 -0.2356
23136W        W38753   3.650  15.047  14.506 -0.0061 -0.0505 -0.2088
23137W        W38754   4.661   3.397   4.964  0.0680  0.0926 -0.3031
23138W        W38755  16.032   1.799   1.929 -0.2843  0.3061 -0.1523
23139W        W38756  16.195   7.296   1.204  0.3453 -0.0427 -0.0263
23140W        W38757  10.022   8.451   3.564 -0.0821 -0.1173 -0.1155
23141W        W38758   9.229  13.343  16.069 -0.0692 -0.2361  0.0257
23142W        W38759   2.459   4.181   2.091 -0.1536  0.1107  0.0913
23143W        W38760  14.630   6.590  14.265 -0.1378  0.0089 -0.0394
23144W        W38761   1.508   9.707   2.156 -0.1115 -0.1328 -0.1232
23145W        W38762   2.640  15.765   0.040 -0.0139 -0.0431 -0.1812
23146W        W38763   5.107  14.485   1.808 -0.0497 -0.2216 -0.0050
23147W        W38764  10.790  11.254   4.686  0.1614 -0.1896 -0.1050
23148W        W38765  15.129   4.013   5.468 -0.1575  0.0684 -0.0716
23149W        W38766  16.878  16.219   4.577  0.2237 -0.1370  0.4020
23150W        W38767   9.804   6.977   1.227 -0.0159 -0.2976  0.1054
23151W        W38768  13.908   6.300  15.330 -0.1091  0.2937  0.0108
23152W        W38769  13.714   5.547  14.486 -0.0567 -0.0740 -0.0378
23153W        W38770  12.617   7.089  15.151 -0.1285  0.1653 -0.0466
23154W        W38771   7.463   3.731  16.328  0.0651 -0.1613  0.1675
23155W        W38772   2.513   6.297   0.064 -0.1973  0.1661  0.1777
23156W        W38773   5.834   0.402   1.716 -0.2294  0.3785 -0.1724
23157W        W38774   1.811  14.325  16.199 -0.1831 -0.0638 -0.3894
23158W        W38775  17.657  17.282  15.344  0.2055 -0.0333 -0.0770
23159W        W38776  15.701   6.385  12.900 -0.1494  0.0053  0.1708
23160W        W38777   8.164  12.893   3.015 -0.1270  0.1025  0.0998
23161W        W38778   7.536  11.725   2.193 -0.0976  0.1213  0.1398
23162W        W38779   1.621  15.226   3.178 -0.1995 -0.1403  0.0768
23163W        W38780  15.348  17.793  16.111 -0.4735  0.2002 -0.1207
23164W        W38781   3.762   3.309   5.103  0.0660  0.3174  0.0018
23165W        W38782   7.671  11.396   3.085  0.0880  0.2952  0.0992
23166W        W38783   6.615  10.463   5.948 -0.1182 -0.0578  0.4281
23167W        W38784   0.957  10.572  11.979  0.0945 -0.0872 -0.1111
23168W        W38785   5.341  13.824   0.605  0.4766 -0.2369  0.1497
23169W        W38786  11.191   3.812   3.099 -0.1123  0.1548  0.1343
23170W        W38787   9.800  10.665   1.882  0.1119  0.0379  0.0399
23171W        W38788   4.479  11.485  15.697  0.1769 -0.2349 -0.0713
23172W        W38789   0.333   9.711   3.287 -0.0958  0.0889 -0.1137
23173W        W38790   1.906   4.528  15.121  0.2000 -0.3802 -0.2353
23174W        W38791  11.409  15.964   3.334  0.4354  0.0461 -0.0669
23175W        W38792   3.748   8.900  16.116  0.1499 -0.5394  0.1142
23176W        W38793   9.803   9.914   2.486  0.1328  0.0306  0.3132
23177W        W38794   0.055   3.617   0.787 -0.3447 -0.1165 -0.3919
23178W        W38795  15.870  16.149  14.511  0.1493 -0.0699  0.1926
23179W        W38796  17.617   9.305  13.987 -0.0927  0.0011  0.0573
23180W        W38797   4.194  12.125   4.285 -0.0809 -0.0458  0.1632
23181W        W38798  15.842  11.190  11.715 -0.1386 -0.2444  0.1967
23182W        W38799   4.105  13.715  11.936  0.1599 -0.1340  0.3422
23183W        W38800   8.955  17.147  14.532  0.1865  0.0502  0.4978
23184W        W38801   5.347   1.059  16.535  0.0569 -0.0261 -0.0480
23185W        W38802  12.968  10.240   1.594 -0.2218 -0.0064 -0.0643
23186W        W38803   9.406   4.711   3.152  0.0413 -0.0087 -0.3194
23187W        W38804  13.604  10.138   5.367  0.1534 -0.2228  0.0670
23188W        W38805  16.432  13.718  15.226  0.0818 -0.2000  0.0565
23189W        W38806   0.400   2.631  14.856 -0.0646 -0.1903 -0.1746
23190W        W38807  16.820   8.196   4.540 -0.0502  0.2110 -0.2699
23191W        W38808  14.898   4.033  11.806 -0.6311 -0.3837  0.2206
23192W        W38809   9.089   1.791   4.335 -0.3103 -0.0294  0.0588
23193W        W38810   1.355  14.949   4.527  0.2825 -0.0016 -0.3341
23194W        W38811   3.006  16.817  11.403  0.0985  0.2832  0.0888
23195W        W38812   3.471   6.016  14.436  0.3523  0.1498 -0.0037
23196W        W38813   2.507   0.571   3.188 -0.2900  0.1910 -0.0751
23197W        W38814   9.333  12.261   1.796 -0.0688  0.0543 -0.4673
23198W        W38815   3.048   9.267  15.378  0.3144  0.2067  0.1525
23199W        W38816   8.762  13.723  12.027 -0.0455 -0.0971  0.2774
23200W        W38817   6.540   1.484   1.385  0.0897  0.2499  0.1223
23201W        W38818   3.230   2.118   5.370 -0.2568  0.2163 -0.2067
23202W        W38819  10.418  11.637   1.357  0.0530 -0.0160 -0.1105
23203W        W38820  15.663   6.597   0.895  0.2504 -0.2254  0.1813
23204W        W38821   6.345  14.713  11.300 -0.2333  0.0629  0.0702
23205W        W38822   3.848  15.092  15.038 -0.1741 -0.5134  0.1435
23206W        W38823   8.984   6.179  11.122  0.2046  0.0006  0.2592
23207W        W38824  17.846   8.187   2.716  0.1089  0.0036 -0.0053
23208W        W38825   4.332  16.702   3.289 -0.3704 -0.1073 -0.1638
23209W        W38826  13.728  11.364  14.110  0.1785  0.2250  0.1786
23210W        W38827  10.863   8.644   0.964 -0.0332  0.1703  0.0186
23211W        W38828   4.888  12.913  11.127 -0.0919 -0.1718  0.0002
23212W        W38829   3.000  14.443  13.055 -0.0610 -0.5789  0.0403
23213W        W38830  10.204   2.236   3.575 -0.1988  0.0922  0.0331
23214W        W38831   0.290  11.225   0.041  0.0027  0.2912 -0.3099
23215W        W38832  12.271  10.718   1.569  0.0591 -0.2064  0.0907
23216W        W38833   6.236   1.912  16.044 -0.0092  0.1933 -0.1121
23217W        W38834  13.237   4.733   0.847  0.3405  0.0845 -0.5804
23218W        W38835  10.901  17.225  13.388 -0.1934 -0.0442 -0.2946
23219W        W38836   2.765  12.388   3.238  0.1387  0.2057  0.0594
23220W        W38837  16.270  16.053  13.312  0.2140  0.0601 -0.4026
23221W        W38838   0.776  15.328   0.506  0.1888  0.3748 -0.0142
23222W        W38839   7.969   5.288  16.199 -0.3272  0.0611  0.1725
23223W        W38840   4.727   2.702   3.089  0.0348 -0.0346 -0.3526
23224W        W38841   5.133  17.934  14.152  0.0618 -0.1504  0.1270
23225W        W38842   7.975   7.288   0.889  0.1301 -0.0178 -0.2263
23226W        W38843  16.817  15.264  16.457  0.1940 -0.2315  0.3456
23227W        W38844  12.609   4.987  13.616  0.2563  0.1049 -0.0163
23228W        W38845   8.578  15.141   4.046  0.1842 -0.3455  0.1509
23229W        W38846   3.252   8.804   4.651 -0.3365  0.0590 -0.2865
23230W        W38847   4.180   4.272   1.040  0.1873 -0.2203  0.2233
23231W        W38848   0.684   0.918   5.043  0.0623  0.1368 -0.2104
23232W        W38849  12.200   9.334  16.634 -0.0066 -0.1014 -0.2465
23233W        W38850   6.101  11.769  13.049  0.2007  0.0709 -0.3163
23234W        W38851   2.949  15.386   0.234 -0.0647 -0.1636  0.1553
23235W        W38852  14.221  12.226  13.984  0.0414 -0.1414 -0.1854
23236W        W38853  11.384  16.222  13.654 -0.0284  0.0587  0.0455
23237W        W38854   6.786   5.816   4.779 -0.1833 -0.1789  0.1321
23238W        W38855  13.228  16.165   2.960  0.0692  0.0781 -0.2122
23239W        W38856   0.884   6.472   1.713 -0.0315  0.0306 -0.2325
23240W        W38857  18.050   2.890   4.216  0.1033  0.1099 -0.0086
23241W        W38858  11.280  15.334   5.279  0.2682  0.0834 -0.3840
23242W        W38859  10.289  15.216   0.122 -0.1504 -0.4869 -0.2695
23243W        W38860   0.002   2.745   2.017 -0.3317  0.0414  0.1004
23244W        W38861  15.507  14.377  13.773  0.0310  0.0093 -0.2144
23245W        W38862   6.792   8.131   2.849 -0.2102 -0.1341 -0.2337
23246W        W38863  10.586  10.004  16.466  0.2233  0.1501 -0.0599
23247W        W38864   2.087  13.347  11.932 -0.3088 -0.3553 -0.0948
23248W        W38865   6.102  12.536  14.755  0.3471 -0.1310  0.0306
23249W        W38866  13.439  16.478  15.015 -0.0517 -0.1112  0.1856
23250W        W38867   5.791  15.517   5.297 -0.2350  0.1876  0.1084
23251W        W38868  16.985  16.967   2.929  0.2343  0.0127  0.0129
23252W        W38869  18.013  11.782   5.359 -0.1669 -0.0075 -0.1445
23253W        W38870   7.156   8.558   4.658  0.3263  0.0318 -0.1991
23254W        W38871   5.870   4.908   1.860  0.1079 -0.1345 -0.1460
23255W        W38872  12.561   4.530  12.166  0.1643  0.2785  0.3966
23256W        W38873   1.819   9.720  15.998  0.2881  0.2217  0.1975
23257W        W38874   0.329   5.552   3.863  0.0589 -0.1478  0.1303
23258W        W38875  12.852   6.252  11.812 -0.0277 -0.1391  0.1837
23259W        W38876   5.534  11.661  11.281  0.0465  0.0264  0.1033
23260W        W38877  11.788   3.970   3.643 -0.1835  0.2017 -0.2525
23261W        W38878  10.653   4.068   3.826 -0.0963  0.2071 -0.3608
23262W        W38879   5.928   7.937  14.031 -0.1405  0.4785  0.1596
23263W        W38880  12.882   3.350   4.970  0.1789  0.2454 -0.2465
23264W        W38881  15.665   2.893   0.303 -0.0195  0.1659  0.1613
23265W        W38882   3.104  14.100   3.959  0.0141 -0.1105  0.4042
23266W        W38883  16.994  17.774  14.909  0.0641  0.2485 -0.0941
23267W        W38884   1.564  11.870   2.164  0.0042 -0.0755  0.0108
23268W        W38885  14.224  10.595  13.639 -0.0757 -0.0847 -0.0994
23269W        W38886   9.049   3.335   4.727  0.6304  0.2146  0.0382
23270W        W38887   9.288  13.637  12.831 -0.2295 -0.0925 -0.0087
23271W        W38888   5.410   3.661   4.151 -0.0620 -0.0627 -0.0783
23272W        W38889  12.733   9.734   6.312  0.0974  0.2652  0.0183
23273W        W38890   8.592   7.999  13.158 -0.2179 -0.1714 -0.0083
23274W        W38891   3.677   4.606  11.828  0.0744  0.1664  0.0025
23275W        W38892  14.809   8.416  14.412  0.0920 -0.4325 -0.1825
23276W        W38893   0.931   7.913  16.197 -0.3189  0.3011 -0.2001
23277W        W38894   4.204   1.943  13.283  0.2137  0.0092 -0.1792
23278W        W38895  12.622  13.469  11.244  0.0325  0.0422 -0.2336
23279W        W38896  14.808   4.695   5.543  0.0653 -0.2644 -0.2416
23280W        W38897  11.343  13.463  11.297  0.5630 -0.3079  0.1638
23281W        W38898   6.038  16.287   5.789 -0.0256  0.0702  0.2168
23282W        W38899  16.003  13.338   2.468  0.3710  0.1191 -0.0309
23283W        W38900  12.555   7.884   1.585  0.0169  0.0367 -0.0330
23284W        W38901  13.929   5.002  14.227  0.2357 -0.0353 -0.0961
23285W        W38902  12.420  15.148  14.785 -0.1942 -0.1857 -0.1421
23286W        W38903   3.177   6.441  15.689 -0.1524  0.1601  0.1641
23287W        W38904  12.110  14.891  13.041  0.3362 -0.1830  0.3044
23288W        W38905  12.777   0.848   5.680 -0.0017 -0.0285 -0.0950
23289W        W38906   6.011   1.927   0.718  0.2125 -0.1521 -0.0939
23290W        W38907   4.450   5.692   0.829  0.3522 -0.0262  0.0079
23291W        W38908  16.909   2.293   1.767  0.2145 -0.1098  0.2419
23292W        W38909   1.193   2.087   5.558 -0.0035  0.2491 -0.2682
23293W        W38910  18.003  16.567  12.549 -0.0120 -0.1520  0.2870
23294W        W38911  17.070  17.418   3.017 -0.2618 -0.4565 -0.4096
23295W        W38912  15.247  12.573   2.579  0.0262 -0.3763 -0.1667
23296W        W38913  15.955   8.654   0.447 -0.3487 -0.0311  0.2415
23297W        W38914  12.015  11.076  14.194  0.4036 -0.0170  0.0020
23298W        W38915   5.924   9.491   2.509 -0.0703  0.1123  0.2389
23299W        W38916   4.670  14.665   4.120  0.1895 -0.0951 -0.3637
23300W        W38917  18.001   9.654  15.673  0.1051  0.0378 -0.1315
23301W        W38918   4.387   1.243   4.631  0.0227  0.0263  0.2068
23302W        W38919   4.866   2.140  15.120  0.2929  0.1078  0.2424
23303W        W38920  11.538   4.958   0.740 -0.1397 -0.0409 -0.0847
23304W        W38921  17.545   8.739   6.066 -0.0085  0.0858 -0.0489
23305W        W38922   8.349   6.119  15.989  0.0853  0.0344 -0.0333
23306W        W38923   4.350   2.172  14.793  0.0883 -0.0868  0.0763
23307W        W38924   2.932   6.375   5.324 -0.2521 -0.1492  0.1344
23308W        W38925  17.747  12.010  15.989 -0.5259  0.1952 -0.1210
23309W        W38926  13.888   5.976   6.419  0.0591 -0.0154 -0.0811
23310W        W38927   6.228   0.154  13.604 -0.3803 -0.0891 -0.0690
23311W        W38928   0.156   9.450   1.148 -0.2889 -0.0609 -0.4720
23312W        W38929  15.759   4.829   1.489 -0.0331  0.4508 -0.1485
23313W        W38930  16.781  16.572   3.120 -0.1200 -0.2084  0.0343
23314W        W38931  17.563  13.436  14.017 -0.1283  0.0790 -0.2953
23315W        W38932  13.687   0.441  14.961  0.2367 -0.1024 -0.2371
23316W        W38933  14.967  17.359  12.706 -0.1619 -0.1371 -0.2047
23317W        W38934   8.195  13.236  16.022  0.4032  0.1328 -0.4742
23318W        W38935  15.810  10.055  15.867  0.3020 -0.5298 -0.0815
23319W        W38936   4.400   4.173  11.286 -0.0690  0.1621 -0.0707
23320W        W38937   1.149   0.182  14.580 -0.4678 -0.0081 -0.1753
23321W        W38938  10.959   1.881  14.281  0.0936  0.2456  0.2112
23322W        W38939   4.771  11.683   5.555 -0.0208 -0.1435 -0.4243
23323W        W38940  12.080   0.511  13.632 -0.1077 -0.0206 -0.0907
23324W        W38941   4.236  16.322   2.105  0.0482  0.0182  0.1149
23325W        W38942  14.673   9.759  14.010  0.2022 -0.1753  0.0623
23326W        W38943   7.244   1.632   0.284 -0.0232 -0.5360  0.4040
23327W        W38944   3.955  14.649   1.272 -0.2545  0.1260 -0.2106
23328W        W38945  10.781   7.328  16.306  0.0545 -0.1972 -0.1523
23329W        W38946   9.187   4.256   4.254 -0.1379  0.1412 -0.0670
23330W        W38947  14.514  10.801  15.316  0.0250 -0.2941  0.1568
23331W        W38948   0.453  12.046   6.428  0.0719  0.1045  0.0300
23332W        W38949   5.741   0.230  14.519  0.1166  0.2252 -0.0065
23333W        W38950   8.354   3.453   3.464  0.1602 -0.2795 -0.3549
23334W        W38951  12.529  10.542  12.083 -0.4143 -0.0591  0.0147
23335W        W38952  16.857  11.031   5.391  0.2899 -0.0003 -0.0412
23336W        W38953  15.284  10.335  13.653 -0.0505  0.0212 -0.1036
23337W        W38954   6.232  14.211   0.220  0.2843 -0.0729  0.0386
23338W        W38955  17.228   1.138   4.200 -0.1926 -0.3186  0.1041
23339W        W38956   8.503   9.172   1.971 -0.0191  0.0239  0.1216
23340W        W38957   1.976   9.367  13.412 -0.4001  0.0274  0.2444
23341W        W38958   1.256   4.841  13.361 -0.1470  0.1308 -0.0291
23342W        W38959  16.869   0.030  11.468 -0.0757 -0.3309 -0.1018
23343W        W38960   5.406   7.534   3.699  0.0120  0.0445  0.1994
23344W        W38961  12.886  13.463   3.990  0.1570 -0.0685  0.3741
23345W        W38962   8.709   6.150   0.537  0.2687  0.0600  0.0240
23346W        W38963  13.405   1.956  14.279  0.0475 -0.2624 -0.0904
23347W        W38964  13.739   5.856   5.393  0.1750 -0.3037 -0.1882
23348W        W38965  11.733   2.359   4.101 -0.2034  0.0498  0.3654
23349W        W38966   4.303  17.374  14.297  0.2011 -0.6034  0.1908
23350W        W38967   9.557   8.578  14.944 -0.1015  0.0004 -0.0794
23351W        W38968   9.301  13.706   5.352 -0.0592 -0.1633  0.2861
23352W        W38969  14.693  10.550   4.544 -0.1411 -0.3534 -0.0311
23353W        W38970  15.185  12.532  16.735  0.0813  0.0800 -0.1817
23354W        W38971   2.900  16.670  16.567  0.1303 -0.2604  0.0301
23355W        W38972  16.660  13.701   4.904  0.5004 -0.0883  0.0038
23356W        W38973  10.914   8.843  11.109  0.0878  0.0523  0.1032
23357W        W38974  14.302   3.648  12.975 -0.2570 -0.1696  0.0520
23358W        W38975   3.350  13.194  15.554  0.0712 -0.2320  0.2593
23359W        W38976   5.669  16.026  13.942 -0.1635 -0.0875  0.1385
23360W        W38977   3.787  12.887  15.553  0.1277  0.2656 -0.1592
23361W        W38978  16.469   9.060  16.627  0.2914  0.0300 -0.2357
23362W        W38979   0.899   9.867  11.642 -0.0169  0.0380  0.0481
23363W        W38980  15.222  16.058   2.349  0.3228  0.4777  0.0821
23364W        W38981  11.806   0.806   2.264  0.1413  0.3226  0.0340
23365W        W38982   0.920  14.842   1.288  0.3524  0.0314 -0.0475
23366W        W38983  12.211  15.706   2.756 -0.2273 -0.0449 -0.1069
23367W        W38984  11.770   7.040   3.082  0.1934 -0.1350 -0.3110
23368W        W38985   5.293   4.543   3.897  0.0810 -0.1391  0.1822
23369W        W38986  16.177  15.940   0.914  0.1393 -0.0323 -0.0422
23370W        W38987   4.744   6.956   3.185  0.1238 -0.1211  0.0865
23371W        W38988   6.207   5.006   0.444 -0.0348 -0.0059 -0.2815
23372W        W38989  11.030   7.377  12.376 -0.0016 -0.0189  0.2762
23373W        W38990   2.650  14.385  13.418  0.0873  0.2958  0.1558
23374W        W38991  10.126   2.633   1.514 -0.1199 -0.0670  0.3447
23375W        W38992  12.508  13.352  16.197  0.0036 -0.0279 -0.1848
23376W        W38993   1.398   5.994   4.261  0.0640 -0.0579  0.0706
23377W        W38994   9.335  15.297   3.253 -0.2027 -0.1543  0.0648
23378W        W38995   8.109  16.561  15.521 -0.1048  0.2500  0.2220
23379W        W38996   4.067   9.671  12.303  0.2125 -0.1452 -0.0755
23380W        W38997  14.671   8.974   0.599  0.1637  0.0845  0.1248
23381W        W38998  12.385   9.941  14.935 -0.1979 -0.3474  0.0725
23382W        W38999   7.186  11.008  15.304  0.1730  0.1179 -0.0872
23383W        W39000   1.989   1.883   2.912  0.1019  0.2564  0.2026
23384W        W39001   1.765   8.331  11.406  0.2297 -0.1491 -0.1269
23385W        W39002  12.508  13.143   3.918 -0.2310  0.1603 -0.1372
23386W        W39003   5.958  10.427  16.492  0.3626  0.1043 -0.2110
23387W        W39004  10.943   3.676   3.739  0.1526 -0.4838 -0.1191
23388W        W39005  16.377  17.626  14.023  0.0703 -0.0268  0.1031
23389W        W39006   6.327  17.487  15.724 -0.1483  0.0460  0.0446
23390W        W39007  12.035   7.659  13.088 -0.2304 -0.1826 -0.2300
23391W        W39008  15.898   5.479  13.406 -0.1703  0.0641  0.1656
23392W        W39009   1.294   0.844   4.260  0.1665 -0.1353 -0.1235
23393W        W39010   1.843   1.410   4.680  0.0773 -0.0199  0.2250
23394W        W39011   4.581  13.499   4.678 -0.3638  0.0048 -0.3271
23395W        W39012   9.434  13.829   0.824  0.2967  0.0797 -0.4569
23396W        W39013  13.887   6.525  16.679 -0.1267  0.0511  0.0142
23397W        W39014  11.113   2.952  11.681  0.0834  0.0176 -0.0802
23398W        W39015   4.870   1.540  14.825 -0.1842 -0.0822 -0.0217
23399W        W39016   9.728   6.733   3.077  0.1196  0.3560  0.0416
23400W        W39017  11.485   4.311   5.216  0.0043  0.1368 -0.0752
23401W        W39018  17.536   0.308  15.133  0.1655  0.3681 -0.1400
23402W        W39019  10.744   8.090   3.059  0.1282 -0.1125 -0.0163
23403W        W39020  13.613  11.262   0.985  0.2968 -0.2559  0.1001
23404W        W39021   3.373  10.394  14.802  0.2360  0.1389  0.0298
23405W        W39022  14.047   7.720  13.576 -0.0046 -0.3328  0.2235
23406W        W39023   3.098  15.204  15.251  0.1197  0.1533 -0.2382
23407W        W39024   2.323  13.886   1.934 -0.1614 -0.2103  0.0207
23408W        W39025   4.711   0.985  15.909 -0.0109  0.1346  0.0521
23409W        W39026   3.643   2.966   2.470  0.2091  0.3869  0.0622
23410W        W39027   7.321  15.054   5.485  0.4409 -0.0719 -0.0574
23411W        W39028   3.260  17.170  16.593  0.0518 -0.0267  0.1087
23412W        W39029  12.586  15.249   2.007  0.0923 -0.0491  0.0610
23413W        W39030  17.421  14.601  14.706 -0.1818  0.1152 -0.0786
23414W        W39031   9.081  17.079  15.074  0.1016  0.2007 -0.0257
23415W        W39032  16.929  14.673   2.000  0.2794 -0.2443  0.1933
23416W        W39033  10.497   8.203  15.021 -0.1443 -0.0288  0.0779
23417W        W39034  14.730   7.215   4.805  0.0462 -0.1804  0.4439
23418W        W39035   6.026   3.940   5.885 -0.0028  0.0780  0.2880
23419W        W39036   3.335   1.761  12.729 -0.0353 -0.0197  0.1582
23420W        W39037  12.283  12.743   5.203  0.2679 -0.0150 -0.1793
23421W        W39038  15.081  11.906   2.449  0.1160 -0.0005  0.1246
23422W        W39039  11.204  11.660  13.055 -0.3610  0.0660  0.0446
23423W        W39040   8.248   3.878  14.706  0.0519  0.0113 -0.0749
23424W        W39041   4.243   0.031  15.778 -0.1304 -0.0326  0.0373
23425W        W39042  15.866   7.932   2.593  0.1650  0.4790 -0.1713
23426W        W39043  12.885   3.140  13.033  0.0409 -0.1038  0.1886
23427W        W39044   7.646  14.196   3.061 -0.0075 -0.0105 -0.3437
23428W        W39045   7.702   0.197   5.863  0.1428 -0.2042  0.0889
23429W        W39046   0.395  14.910   4.116 -0.1963 -0.0004 -0.1307
23430W        W39047   9.672   9.081   3.033 -0.4495  0.0334  0.0542
23431W        W39048   2.550  14.057   0.913  0.0292  0.1050 -0.2356
23432W        W39049   8.074  13.319  16.526  0.1511  0.2714 -0.0843
23433W        W39050   8.845   4.178   5.079  0.0443 -0.2430 -0.1894
23434W        W39051  12.888   9.478   5.360  0.0420 -0.0275  0.0041
23435W        W39052  14.179   4.148  16.407  0.0451 -0.1824  0.2625
23436W        W39053   9.350  11.927  15.087  0.1991  0.1215 -0.1433
23437W        W39054  12.375  15.271   5.466  0.0503  0.0738  0.0245
23438W        W39055  10.762   7.539  14.512 -0.1870  0.0336  0.1269
23439W        W39056   7.751  10.568  14.836  0.0174 -0.3041 -0.0859
23440W        W39057   9.946   9.608  13.997 -0.1392  0.1861  0.0419
23441W        W39058   0.134  14.954   2.484  0.3881 -0.1851  0.2031
23442W        W39059   4.665   7.005   4.020  0.1649  0.0757  0.2546
23443W        W39060   3.116   8.089   3.050  0.0676 -0.1472 -0.1770
23444W        W39061   5.491  14.307  11.536  0.0431  0.2601  0.0820
23445W        W39062   2.974   0.803   1.265  0.1072 -0.1079  0.1820
23446W        W39063   0.754   4.279  12.808  0.0903  0.3837 -0.1812
23447W        W39064   5.692  15.168  13.356 -0.0612 -0.0568  0.0750
23448W        W39065  15.306   1.788   1.137  0.2634 -0.0351 -0.0726
23449W        W39066  10.029   0.889   3.178  0.2699  0.1993  0.0614
23450W        W39067   3.001  15.534   3.051 -0.2038 -0.2088  0.0070
23451W        W39068   4.889  17.909  11.339 -0.6607  0.0231 -0.1853
23452W        W39069   9.043  10.087  11.975 -0.1794 -0.0423 -0.0084
23453W        W39070  15.761   6.300   5.629  0.0298 -0.2031  0.1561
23454W        W39071  12.246  12.420   3.056  0.1637  0.0200  0.4056
23455W        W39072   8.011  17.858  15.191 -0.6347  0.0626  0.1580
23456W        W39073  10.540   8.223   3.570 -0.2720 -0.0004 -0.0858
23457W        W39074   9.873   0.771   4.574 -0.1960 -0.0662  0.2270
23458W        W39075  14.873   9.987  12.064 -0.1996 -0.2357 -0.4501
23459W        W39076  15.482  11.836   4.870  0.4136  0.0109  0.0038
23460W        W39077  14.046   2.150  16.126  0.3595  0.3580  0.3055
23461W        W39078  17.946   3.768   5.912 -0.0361  0.3999 -0.3625
23462W        W39079  12.658   6.007  12.266  0.1600 -0.1205  0.1098
23463W        W39080   6.438   3.323  13.605 -0.3081 -0.1525 -0.1208
23464W        W39081   0.250   3.075   0.922  0.3548 -0.2298 -0.0692
23465W        W39082   9.467  15.829   2.213 -0.0041 -0.1534 -0.0465
23466W        W39083   0.538  11.968   1.230 -0.0916  0.3487 -0.0755
23467W        W39084   7.502  13.473   2.216 -0.0210 -0.1573  0.0523
23468W        W39085  12.146  10.892  12.431 -0.3103  0.1884  0.1046
23469W        W39086  11.722  16.409   5.512  0.0597  0.1764 -0.1336
23470W        W39087  14.478   0.765  15.601  0.3241 -0.0291 -0.2672
23471W        W39088  10.253   2.363  15.401  0.1178  0.1991  0.1110
23472W        W39089  17.836  11.509  14.062  0.0053  0.0584 -0.0875
23473W        W39090  13.162   4.006  13.624  0.3940 -0.0872  0.1692
23474W        W39091  13.853   5.197   0.259  0.0154  0.3949 -0.1807
23475W        W39092   3.013   8.410   2.572  0.2936  0.2298 -0.0244
23476W        W39093   2.147   9.757  11.311  0.0231 -0.2581 -0.1973
23477W        W39094  15.877   3.568   2.398  0.1702  0.1763 -0.0678
23478W        W39095   1.196  17.473  14.713 -0.1013 -0.4263  0.0968
23479W        W39096   8.408  14.083  11.880 -0.0869 -0.3101  0.1185
23480W        W39097   2.583  10.193  12.028 -0.0287  0.0957  0.0557
23481W        W39098   3.316  11.029   2.771  0.1067  0.1223 -0.3464
23482W        W39099  16.617  16.590   4.387  0.1652  0.0908  0.0708
23483W        W39100  12.044   5.677  13.196 -0.1636 -0.0077 -0.0315
23484W        W39101   2.410  10.318  13.433 -0.3295  0.0519 -0.1044
23485W        W39102   4.469   5.213   4.058  0.1026  0.1224  0.0711
23486W        W39103  11.356   1.748   3.789 -0.0975  0.3845 -0.2215
23487W        W39104   9.327   4.449   5.277  0.1142  0.2302 -0.1988
23488W        W39105  14.165   2.881  16.374 -0.1463 -0.1425  0.1024
23489W        W39106  15.458   3.505  14.735  0.1474  0.1239 -0.1136
23490W        W39107   4.926  16.184   4.273 -0.1280 -0.0869 -0.2736
23491W        W39108  16.578  11.131   3.253  0.2908  0.1117  0.0442
23492W        W39109  16.353   8.616   5.543 -0.2536  0.4962  0.0003
23493W        W39110   3.255   7.168   3.023 -0.0124  0.1647  0.0405
23494W        W39111   1.626   5.940  12.632 -0.3275  0.3539  0.0084
23495W        W39112   4.704  17.875  12.931 -0.2467  0.1515  0.2093
23496W        W39113   6.750   6.557  11.738  0.0722 -0.0589 -0.2162
23497W        W39114   2.696   3.898   0.517  0.0759  0.0486  0.2344
23498W        W39115  14.406   2.819   0.741 -0.2470 -0.1428 -0.0348
23499W        W39116  15.316   4.949  13.867 -0.1814 -0.0082 -0.4756
23500W        W39117   8.227   2.404  13.707  0.3954 -0.0616  0.0548
23501W        W39118   6.378   7.261  16.202 -0.2751  0.1813 -0.0417
23502W        W39119  14.587   0.697   5.822  0.0485  0.4722 -0.1257
23503W        W39120  13.851   7.884   1.829  0.2249  0.0114 -0.0534
23504W        W39121  14.361  17.682  14.481 -0.5836 -0.2588 -0.1448
23505W        W39122   1.669   8.375   3.783 -0.0496 -0.2674  0.0569
23506W        W39123  13.790   1.473   0.855  0.2894 -0.2709 -0.1715
23507W        W39124   0.282  10.080  14.963  0.0002  0.0876 -0.0198
23508W        W39125   9.233   1.314  16.108 -0.0943  0.0296  0.1189
23509W        W39126  15.024  12.083   3.388 -0.0046  0.1197  0.1278
23510W        W39127  13.886   3.721  16.198  0.1967  0.1599 -0.0508
23511W        W39128   6.440  15.018  16.582 -0.1966  0.0007 -0.3412
23512W        W39129   8.045  12.351   3.261 -0.0705  0.0216 -0.1486
23513W        W39130   7.886   9.496   0.744 -0.0854 -0.0319  0.0473
23514W        W39131   6.658   1.509  13.094 -0.1464  0.1212 -0.0590
23515W        W39132   6.744   5.102  13.371  0.1031  0.1273  0.1856
23516W        W39133   1.191   6.390   4.711  0.0251  0.2286 -0.3687
23517W        W39134   1.227   9.824  16.601  0.0459 -0.0293  0.3956
23518W        W39135   3.356  15.754  12.679 -0.4363 -0.1239  0.0686
23519W        W39136   4.574  14.468   1.856  0.1233  0.1244 -0.4300
23520W        W39137   6.194   6.347  14.430 -0.1370  0.3110 -0.1118
23521W        W39138  11.369   2.705   5.427  0.2644 -0.4636  0.0709
23522W        W39139   3.060   0.011   4.842  0.2403 -0.0663 -0.1344
23523W        W39140  15.577   9.332   4.260  0.0564  0.0061  0.2097
23524W        W39141   3.623  16.512   3.491 -0.0833 -0.0847 -0.0978
23525W        W39142   8.852  17.389   4.472  0.1694  0.0106  0.0093
23526W        W39143  17.692   1.610   2.534  0.0322 -0.0339  0.4304
23527W        W39144  11.964  10.878   4.639  0.0747 -0.0488 -0.1719
23528W        W39145  14.047  14.483  13.816 -0.2196  0.0056 -0.1419
23529W        W39146   7.501   9.379  13.936  0.1032 -0.0139  0.1113
23530W        W39147  11.952  17.636   4.195 -0.0380  0.0082  0.1704
23531W        W39148  17.924  15.254  12.823 -0.3705  0.1020 -0.3986
23532W        W39149   1.647   5.858   5.244 -0.4160  0.1633  0.4477
23533W        W39150   5.485  12.347  16.220  0.0963  0.3224 -0.0253
23534W        W39151   5.328  15.096  11.993  0.2153  0.0870 -0.0628
23535W        W39152   6.603   1.603  16.369  0.0077  0.1271  0.1268
23536W        W39153   4.079  14.514   0.728 -0.2191 -0.0557  0.0250
23537W        W39154  16.703   8.683   3.257 -0.0853 -0.1703  0.0658
23538W        W39155  12.829  16.506  16.504 -0.3271  0.0855  0.0612
23539W        W39156   7.926   3.416  16.533  0.0872 -0.1322  0.2558
23540W        W39157  14.959   1.225   0.822 -0.0287 -0.0254 -0.0021
23541W        W39158   4.173  13.403   1.880 -0.0615 -0.1340  0.1520
23542W        W39159   9.336   7.521  12.239 -0.2437 -0.0518 -0.0701
23543W        W39160  17.317   5.073   4.745 -0.0639  0.0027  0.0801
23544W        W39161   1.278   6.687  15.312  0.2239  0.0488 -0.0609
23545W        W39162   5.033   6.073   4.803  0.2351  0.2528 -0.0353
23546W        W39163   6.948  16.098  14.370  0.0669  0.1109  0.1979
23547W        W39164  13.552  12.311   4.608 -0.1806  0.1293  0.1754
23548W        W39165  10.898   5.496   4.738 -0.1370 -0.2206  0.2004
23549W        W39166   2.603   7.693  13.706 -0.1237  0.1871 -0.2333
23550W        W39167  16.308  14.353  13.491  0.2682  0.0031  0.0535
23551W        W39168   8.281  15.951   5.530  0.2215  0.3772 -0.1732
23552W        W39169   9.096  10.047   1.665 -0.0275  0.1296 -0.0487
23553W        W39170  11.573   0.153  14.215  0.3042  0.1472 -0.2055
23554W        W39171   7.806   2.899   1.481 -0.0198 -0.1262  0.0971
23555W        W39172   9.882  14.584   1.755  0.0604 -0.1550  0.2441
23556W        W39173  13.033  17.254  14.760  0.2113 -0.0883  0.5531
23557W        W39174   0.576  14.518  15.150 -0.1975  0.4936  0.0823
23558W        W39175   6.988   1.394   1.719  0.4728 -0.0477  0.0055
23559W        W39176  12.247   2.879  13.557  0.0184 -0.1461  0.2144
23560W        W39177  16.687   9.395   0.784 -0.4870 -0.2713  0.2637
23561W        W39178  17.605   2.635   1.147  0.1310 -0.5069 -0.1423
23562W        W39179  14.628   9.450   2.927  0.0359 -0.2444 -0.3453
23563W        W39180  15.808   6.126  15.309 -0.5714 -0.1019 -0.0050
23564W        W39181   3.790   8.909   2.853  0.1520 -0.2717 -0.3384
23565W        W39182  12.735  17.516   0.143  0.1763 -0.3114 -0.1916
23566W        W39183  14.233   6.911   4.224  0.2064 -0.0215  0.2460
23567W        W39184   0.512   1.318  14.959 -0.2420  0.1360 -0.3808
23568W        W39185  16.401  17.237  16.608 -0.3254  0.2002 -0.2543
23569W        W39186   3.784  16.307  14.042 -0.0031  0.1480  0.1382
23570W        W39187   3.386   4.680  15.618 -0.1174  0.0278 -0.1466
23571W        W39188   6.310  13.128   4.636  0.6564 -0.0930  0.0001
23572W        W39189   6.935  13.450  11.227 -0.0723  0.0507  0.2122
23573W        W39190   8.601  13.262  12.217  0.2968  0.0555  0.0076
23574W        W39191  12.345  11.187   4.869 -0.1649 -0.0326  0.0828
23575W        W39192  15.893   3.275   3.824 -0.0707  0.2128  0.1974
23576W        W39193  10.871   4.124  14.627 -0.2796 -0.1387  0.1950
23577W        W39194   3.596  12.084   2.119  0.1323 -0.1000 -0.1804
23578W        W39195  13.967  17.761   2.772 -0.2027  0.3328  0.2583
23579W        W39196  17.564   6.668   3.954 -0.0433  0.1860 -0.1097
23580W        W39197  10.891  12.251   2.308  0.1114 -0.1888  0.0852
23581W        W39198  12.009  16.648  13.443 -0.1493 -0.0755  0.1778
23582W        W39199  17.798  10.685   0.467 -0.2114 -0.1827  0.0711
23583W        W39200  13.211   8.539   3.009 -0.0282 -0.0617 -0.2643
23584W        W39201  16.987  10.336  12.871 -0.0029  0.2372 -0.2133
23585W        W39202   9.934   8.072   2.718  0.0662 -0.0505 -0.2306
23586W        W39203   4.407   8.498   1.682 -0.3309 -0.1407  0.1398
23587W        W39204   3.011   5.096  15.598 -0.1037 -0.0065  0.0080
23588W        W39205   0.662  14.736   1.764  0.2848  0.2046 -0.2288
23589W        W39206  16.004   0.585   5.884 -0.2317 -0.1356 -0.0097
23590W        W39207   9.004   9.795   2.092 -0.3484 -0.1540  0.0681
23591W        W39208   0.840  12.812   0.829 -0.0638  0.1421 -0.1639
23592W        W39209   5.889  10.204   5.040 -0.3318  0.0535 -0.1896
23593W        W39210  10.640   6.446  11.652  0.1220  0.0086  0.1746
23594W        W39211  10.953   0.208   1.743 -0.1132  0.4120 -0.1437
23595W        W39212  13.335   3.463  12.758  0.1278 -0.1941  0.0911
23596W        W39213   4.604   8.617  11.574  0.0049 -0.3139  0.0103
23597W        W39214   4.853   7.891   4.162 -0.1703 -0.0613 -0.1410
23598W        W39215   5.195   8.172   4.913  0.3117 -0.0216 -0.1917
23599W        W39216   8.844   5.332  11.318 -0.3024  0.3332  0.0146
23600W        W39217  17.053   2.067  15.162  0.1559  0.4097 -0.3463
23601W        W39218   6.714   4.136  14.709 -0.2113  0.3073 -0.1238
23602W        W39219  14.886   2.114  13.164 -0.0374 -0.4803  0.2017
23603W        W39220  16.254  16.827  12.885 -0.1559 -0.0111  0.1299
23604W        W39221  11.138  13.529   1.373  0.1222  0.0235 -0.0618
23605W        W39222   9.095   9.364  15.890  0.0292  0.0100 -0.0853
23606W        W39223   9.272   2.074  12.446  0.3390  0.2640  0.0532
23607W        W39224  14.623   0.806  12.425 -0.0148  0.3359 -0.1472
23608W        W39225   6.243  12.566   1.326 -0.0779  0.1507 -0.0952
23609W        W39226   8.246  15.848  11.165  0.0671  0.0673  0.0048
23610W        W39227  12.121   1.400  13.437  0.2957  0.0460 -0.0934
23611W        W39228   9.884  10.750   5.514  0.0015 -0.4704  0.1643
23612W        W39229   5.495  17.994   1.575  0.2973  0.1373 -0.3151
23613W        W39230   7.462  10.647   2.393 -0.0692 -0.0795 -0.2524
23614W        W39231   5.702  10.062  16.654  0.1691 -0.0821 -0.0408
23615W        W39232   3.804  11.617  15.995  0.2558 -0.1301  0.2143
23616W        W39233   9.480   0.080   0.716  0.2374  0.0590 -0.2484
23617W        W39234  10.442  16.720  15.537  0.1838  0.1854 -0.0500
23618W        W39235  11.001   1.526   6.429 -0.2561 -0.2837  0.0844
23619W        W39236   1.804   4.578   0.647 -0.0458 -0.2332  0.1217
23620W        W39237   2.166  14.951  11.504 -0.2011  0.2122 -0.3279
23621W        W39238  12.515  15.655   3.538  0.3446 -0.0347  0.2143
23622W        W39239   9.264  15.752   1.728  0.2037 -0.0284 -0.1863
23623W        W39240   3.108   2.219   2.512 -0.2423  0.0653  0.2606
23624W        W39241  11.045  17.172  11.321  0.0924 -0.2419  0.3536
23625W        W39242  12.040  10.625  11.884  0.1338 -0.1423  0.1418
23626W        W39243   0.196   2.310  15.694  0.2215 -0.1413 -0.2084
23627W        W39244  16.763  17.424  13.693 -0.1493  0.2069  0.0239
23628W        W39245  15.539   2.511   4.411  0.1796  0.2722 -0.0758
23629W        W39246   7.330  10.208   4.224 -0.0716  0.0010 -0.1660
23630W        W39247  16.225  15.125  16.445 -0.1466  0.0467 -0.0622
23631W        W39248   7.365  11.617   2.659 -0.0192  0.2481 -0.1705
23632W        W39249   9.402   1.842  16.225  0.1071 -0.0555 -0.2194
23633W        W39250  10.432   2.032  15.024  0.4470 -0.1208  0.4042
23634W        W39251  12.591  15.550   5.010 -0.2013  0.0333 -0.3181
23635W        W39252  10.229  12.190  15.964  0.0708  0.1627  0.0829
23636W        W39253  12.975   5.434   2.711 -0.0857  0.1435 -0.0539
23637W        W39254   4.775   9.086  13.432  0.2830 -0.0824  0.0167
23638W        W39255   4.904  12.965  13.261  0.0396  0.4128 -0.0563
23639W        W39256  14.139   4.143   3.739  0.0468  0.1604 -0.0383
23640W        W39257   8.907   0.269  14.541  0.1246  0.5749 -0.4257
23641W        W39258  16.302   6.949  15.207 -0.0729 -0.6468  0.1143
23642W        W39259   6.363   6.507  15.694 -0.4483  0.3035 -0.3421
23643W        W39260  17.402  13.505   2.756 -0.3807  0.1162 -0.0611
23644W        W39261   1.637  14.899  14.752 -0.0445 -0.1043  0.2046
23645W        W39262  12.912   5.823   5.893 -0.0881  0.0420  0.0915
23646W        W39263  16.266   9.676   0.666  0.1007  0.3225 -0.3262
23647W        W39264   8.205   6.011   1.371 -0.2936 -0.1208  0.0354
23648W        W39265  16.772  16.120  16.010 -0.1225 -0.1363 -0.1143
23649W        W39266   3.351  17.680   3.759 -0.1904  0.1400 -0.0194
23650W        W39267   0.204  13.314   5.978 -0.1419  0.0813 -0.0505
23651W        W39268   3.199   6.467   0.117  0.0766  0.3219 -0.0648
23652W        W39269   7.588  15.055  14.389 -0.2825 -0.1206  0.0805
23653W        W39270   4.562   4.802  12.174 -0.0084  0.0177  0.0164
23654W        W39271   0.119  12.143  15.628 -0.2284  0.1631  0.1401
23655W        W39272  11.150   5.945   4.644 -0.1026  0.0607  0.0899
23656W        W39273  12.391  10.391   4.098  0.4871 -0.0782 -0.0909
23657W        W39274   1.832   9.941  13.860  0.2052  0.1081  0.4728
23658W        W39275   6.228   1.812  15.042  0.1860  0.0207 -0.1328
23659W        W39276   1.797   3.959   0.021  0.2263 -0.1248  0.1081
23660W        W39277   2.428  17.932   6.172 -0.0976  0.1495 -0.2076
23661W        W39278   6.884  15.379  12.606  0.0390  0.0895  0.2174
23662W        W39279  15.988  14.331   0.216 -0.2261  0.2476 -0.0393
23663W        W39280   4.152  13.130  16.469 -0.0939 -0.3732 -0.2819
23664W        W39281   6.074   8.578  12.252  0.0519  0.0736  0.1322
23665W        W39282  13.121  16.770  16.053 -0.1490 -0.0745  0.5861
23666W        W39283   4.137  11.431  11.915 -0.0342  0.1151  0.2981
23667W        W39284   5.773   8.920   5.254  0.3890  0.2446  0.0037
23668W        W39285   0.749   9.950   5.508  0.3247  0.1382 -0.1892
23669W        W39286  12.129   4.839  13.586 -0.0642  0.1260  0.0427
23670W        W39287   8.525   3.417   4.416 -0.1648 -0.0794  0.1149
23671W        W39288   8.071  15.825  11.684 -0.3222 -0.2959 -0.0766
23672W        W39289   0.147   1.031  15.796  0.2471  0.1638  0.0888
23673W        W39290   2.167   0.898   3.266 -0.0652 -0.0080 -0.2523
23674W        W39291   3.721  18.032  16.490 -0.0768  0.2493 -0.1723
23675W        W39292  17.898  16.225  12.860  0.1689  0.1484 -0.0594
23676W        W39293   9.932   8.885  13.198 -0.3671  0.1549 -0.0081
23677W        W39294   5.458  10.125   4.863  0.0177  0.1733 -0.2596
23678W        W39295  12.888  12.522   2.350 -0.1382 -0.1025  0.0227
23679W        W39296   7.340   6.555   4.873 -0.1591  0.0376 -0.0009
23680W        W39297   1.932   0.233  13.562  0.1088 -0.1509  0.0446
23681W        W39298   4.626   5.319   1.576 -0.1360 -0.0455 -0.0001
23682W        W39299  13.064  11.026   2.187  0.0925  0.1876  0.0448
23683W        W39300  12.189   3.029  14.988  0.0343 -0.1461  0.0915
23684W        W39301   9.871   6.499   1.048  0.0908 -0.1356 -0.0753
23685W        W39302  11.004   1.964  13.060 -0.0637  0.1191  0.0251
23686W        W39303   5.035   6.505   1.433 -0.2942  0.1958 -0.1341
23687W        W39304  10.315   6.142  13.262  0.1055 -0.4390 -0.1626
23688W        W39305   5.925   5.661   1.056 -0.2578  0.1039 -0.1385
23689W        W39306  16.877   3.958  13.956 -0.1542 -0.1993 -0.1409
23690W        W39307  13.822   3.180  13.914  0.1855 -0.1227 -0.2173
23691W        W39308   5.086   3.498  11.877 -0.0007  0.1976 -0.0194
23692W        W39309   7.004  14.872  11.876  0.0418  0.5236  0.0932
23693W        W39310   1.859  16.000   6.356 -0.0204  0.1454 -0.0125
23694W        W39311   0.235   8.656   5.296  0.1744 -0.1559  0.1819
23695W        W39312  11.168   1.628   0.426 -0.1115 -0.1618 -0.0346
23696W        W39313  13.598   3.492   1.510 -0.1476 -0.2105  0.2226
23697W        W39314  10.263   9.825   3.397 -0.2786  0.1061  0.0097
23698W        W39315   1.097   1.581  13.582  0.0754 -0.1872  0.3115
23699W        W39316   7.418   3.145   1.842  0.0455  0.0301  0.1838
23700W        W39317   2.418   1.642   5.410 -0.0262 -0.1153  0.1818
23701W        W39318  17.312   7.414   1.484 -0.0936  0.1297 -0.3046
23702W        W39319   3.279   8.106   3.598 -0.2031 -0.0873 -0.2067
23703W        W39320   0.944   1.856   4.223 -0.0126 -0.0664 -0.0360
23704W        W39321  11.719   6.050   0.850  0.1185 -0.0926  0.3174
23705W        W39322   1.311   6.927  12.737  0.0739 -0.0375 -0.0146
23706W        W39323  15.918   1.572  15.897 -0.3189  0.1600 -0.0304
23707W        W39324   0.733   4.622  12.341 -0.2233  0.2582  0.0940
23708W        W39325  11.940   5.427   4.400 -0.0434 -0.0976  0.1014
23709W        W39326  12.966   1.528  16.572  0.0117 -0.1467  0.1334
23710W        W39327   1.038   7.016   1.690 -0.1136 -0.1691  0.0702
23711W        W39328  12.414   7.911   2.692  0.1177 -0.1305  0.1855
23712W        W39329   6.642   7.312  13.842 -0.1309  0.1243  0.1952
23713W        W39330  16.905   5.843   4.052  0.0031 -0.1907  0.2209
23714W        W39331   2.787   8.145  15.775 -0.2246 -0.0640  0.1033
23715W        W39332   1.821   2.807  12.302 -0.2843  0.2543  0.1548
23716W        W39333  15.594  15.572  15.258 -0.3179 -0.1316  0.1303
23717W        W39334   4.668   0.771   2.412 -0.0005 -0.2646  0.3155
23718W        W39335  17.812   6.321   2.419 -0.0712 -0.2788  0.1466
23719W        W39336   0.326   0.108  10.797 -0.1806 -0.2240  0.3638
23720W        W39337   7.916   7.879  15.015 -0.0113 -0.3782 -0.2538
23721W        W39338   8.972  14.928   4.552  0.1301 -0.0447  0.0749
23722W        W39339   2.009   4.925  16.512  0.3279  0.0327  0.0490
23723W        W39340  12.390   4.211   5.024  0.0458  0.1403 -0.0292
23724W        W39341  16.809   6.245   4.341 -0.3855  0.1679  0.0221
23725W        W39342   9.690   2.131   1.761  0.0128 -0.1638  0.0002
23726W        W39343   8.909  15.780  13.170  0.0660  0.0191 -0.1082
23727W        W39344   5.320   2.575   3.860 -0.4344  0.1240  0.0167
23728W        W39345  10.321   8.032   5.729  0.2421  0.0685  0.0262
23729W        W39346   8.938   3.708   2.286 -0.0531  0.2213 -0.0552
23730W        W39347  14.241   2.162  14.838  0.0738  0.0871 -0.2802
23731W        W39348   9.693  16.957  16.365 -0.0038  0.3213 -0.0608
23732W        W39349   9.883  16.665  13.937 -0.1326 -0.1004 -0.1217
23733W        W39350  13.086  10.141  12.966 -0.1137  0.1493 -0.1075
23734W        W39351  17.163   4.134  16.037  0.0097 -0.1432 -0.1287
23735W        W39352   5.791  10.944   0.953 -0.0956  0.0853  0.2251
23736W        W39353   4.319  10.497  11.695 -0.5271  0.1377 -0.1943
23737W        W39354  12.514   6.579   0.820  0.3951  0.0552 -0.1692
23738W        W39355   1.392   7.075  13.669 -0.2250 -0.2663  0.1853
23739W        W39356   1.860   0.401  15.937  0.0245  0.0432  0.0968
23740W        W39357   4.401   5.731  14.267  0.0164  0.0827  0.2077
23741W        W39358   0.618  13.284  14.877  0.1533 -0.1433  0.2327
23742W        W39359  11.555  13.394   1.035 -0.1004  0.1932  0.2641
23743W        W39360   9.346   7.249   3.846 -0.0420  0.0667  0.2265
23744W        W39361  18.047  16.202   2.670 -0.1281  0.1309  0.1689
23745W        W39362   2.805   9.962   4.646  0.0442 -0.1336  0.0121
23746W        W39363  16.489  16.409  14.700 -0.1940 -0.1793 -0.0456
23747W        W39364   4.044   3.216   2.215  0.0675  0.1044 -0.0061
23748W        W39365   5.341   0.013   4.640 -0.0041  0.0644 -0.1188
23749W        W39366  13.281   8.753  11.265 -0.1298 -0.0870  0.1236
23750W        W39367  14.701  12.222   0.038 -0.1175 -0.1897 -0.0698
23751W        W39368  17.190   7.390   3.683 -0.0788  0.2147  0.1251
23752W        W39369  17.987  15.145   1.305 -0.0857 -0.1924 -0.2732
23753W        W39370   6.015  16.561  15.880  0.1787 -0.2044  0.0697
23754W        W39371   6.625  17.138  13.908  0.0629 -0.0903 -0.2671
23755W        W39372  13.717  11.388  11.479  0.2300  0.0022  0.0180
23756W        W39373   9.705   5.376   0.249  0.3757 -0.2737 -0.2037
23757W        W39374  10.570  15.012   1.857  0.0821 -0.0115 -0.2169
23758W        W39375  13.805  10.582   5.231 -0.2351 -0.0981  0.0577
23759W        W39376  16.188  14.202   3.048  0.1070  0.1120 -0.2196
23760W        W39377   0.895   1.383   2.087  0.1895  0.1134  0.0896
23761W        W39378   5.220  16.799  16.217  0.0922 -0.1206 -0.2612
23762W        W39379  16.893  15.548   5.733 -0.0159 -0.1481  0.0130
23763W        W39380  11.488   9.687  14.934  0.2388  0.0169  0.0464
23764W        W39381   9.115   7.051  10.181  0.0127 -0.1197 -0.1716
23765W        W39382   7.848  13.040   3.852  0.0718 -0.0334 -0.0723
23766W        W39383   8.340   4.796  16.097  0.0609 -0.0749 -0.1436
23767W        W39384   2.888   9.647   5.125 -0.2094 -0.0548  0.0288
23768W        W39385   3.481   4.245  11.496 -0.1255 -0.1524 -0.6065
23769W        W39386  16.531  10.336  15.793 -0.1385 -0.1939 -0.1765
23770W        W39387  14.712  11.533  16.311  0.1504  0.0443  0.1121
23771W        W39388   5.148   8.731  15.894 -0.1660  0.1274 -0.1407
23772W        W39389  10.896   0.949   2.757 -0.3341  0.0306  0.0719
23773W        W39390   2.009  11.401   4.501  0.1283 -0.1804 -0.1661
23774W        W39391   1.527   2.905   3.142  0.1213  0.0667  0.1007
23775W        W39392  16.401   1.916  11.816  0.0873 -0.1103  0.1025
23776W        W39393   1.344  11.025  14.807 -0.2443  0.1897  0.1301
23777W        W39394   4.660  11.441  15.258  0.1237  0.1924 -0.0134
23778W        W39395  11.763  10.699  13.875  0.0113 -0.3054  0.1106
23779W        W39396  16.167   8.682  12.799  0.1134 -0.1558  0.1552
23780W        W39397   4.115  16.218  12.103 -0.2326 -0.0135  0.4335
23781W        W39398  16.210   8.335  10.686  0.0570 -0.1412  0.0293
23782W        W39399  17.174   9.197   5.546 -0.1246  0.1703 -0.3235
23783W        W39400  17.601  14.492   3.242  0.1367  0.0907  0.3973
23784W        W39401  12.294   2.292   3.023 -0.0374  0.2683 -0.1071
23785W        W39402   6.956  13.576   2.016  0.3965 -0.0178  0.3275
23786W        W39403  17.122   7.096   1.980  0.1230 -0.0941  0.0901
23787W        W39404   8.636   6.654  13.675 -0.1762 -0.1168 -0.0124
23788W        W39405   0.217   7.115  13.261 -0.0564  0.0860  0.1346
23789W        W39406  16.158  16.065   5.225  0.0238  0.0289  0.0152
23790W        W39407  15.704  15.438   3.414 -0.4426 -0.0197  0.1290
23791W        W39408   3.561   6.463   4.216  0.5846  0.1756  0.1909
23792W        W39409  12.368   6.212   3.253 -0.0177  0.1529  0.0426
23793W        W39410   4.968  18.002   2.829  0.2257  0.0984  0.2202
23794W        W39411   8.173   8.354   3.108 -0.0807  0.0306 -0.0540
23795W        W39412  14.011   6.893  14.460  0.0252  0.2075 -0.2833
23796W        W39413   3.014   6.416   4.833 -0.0929 -0.0536  0.1764
23797W        W39414   2.365   9.694  12.712  0.1280  0.1962  0.0415
23798W        W39415  12.127  14.601  13.936 -0.3608 -0.3277  0.1930
23799W        W39416   6.416  13.209  14.267  0.0012  0.1008  0.0771
23800W        W39417   0.172   7.133   2.984 -0.1567 -0.3432 -0.0756
23801W        W39418   5.772  10.021  13.960  0.1701  0.0512 -0.0094
23802W        W39419   9.382   9.238   4.432 -0.1719 -0.0932  0.0947
23803W        W39420   5.363   3.716  14.306  0.1009 -0.0941  0.0953
23804W        W39421   8.382  13.025   0.703  0.1369  0.0276 -0.0214
23805W        W39422   4.855   4.187   1.918  0.3769 -0.2357  0.4253
23806W        W39423  11.377  11.404  10.975  0.1324  0.4074  0.1040
23807W        W39424   7.690  12.938  13.233  0.0854  0.0279  0.1471
23808W        W39425   5.364   1.551  13.153  0.0374 -0.0239  0.0193
23809W        W39426  11.228  13.321   2.258 -0.1206 -0.5653 -0.2982
23810W        W39427   1.172   7.735  13.036 -0.0945 -0.0936  0.0814
23811W        W39428   9.501   5.385  12.381 -0.3342 -0.0336  0.0362
23812W        W39429  13.001   5.977   1.255 -0.0871  0.0485  0.1613
23813W        W39430  12.727  10.144  15.196 -0.1186  0.2532 -0.0769
23814W        W39431  12.091   6.734   2.052 -0.0487  0.1721 -0.1041
23815W        W39432  15.352  17.653   6.527 -0.0090  0.0126 -0.2990
23816W        W39433   6.815  12.057  15.579 -0.0220 -0.1594  0.0787
23817W        W39434   4.615   1.072   5.511 -0.0721 -0.0078  0.2417
23818W        W39435  10.186  14.324   4.017 -0.0040 -0.1524 -0.2571
23819W        W39436  11.389   4.549  16.319 -0.1187  0.4249 -0.1883
23820W        W39437   9.615  16.837   2.456  0.2115  0.1298  0.0329
23821W        W39438  17.182  12.404  16.749 -0.0677 -0.1183 -0.0373
23822W        W39439   5.779   0.665  11.375  0.0709 -0.1883 -0.1332
23823W        W39440  12.633  14.282   0.988  0.2128  0.0752 -0.1167
23824W        W39441   8.224  15.541  12.499  0.1013 -0.1091 -0.1188
23825W        W39442   9.772   0.042  14.022  0.0105 -0.0995 -0.0041
23826W        W39443   0.314   5.806   1.872 -0.1234 -0.1145 -0.1733
23827W        W39444  17.253  11.140  12.454 -0.1914 -0.1492  0.0312
23828W        W39445  12.618  13.598   0.303  0.0951  0.1880 -0.0894
23829W        W39446  13.771   6.293   3.983 -0.0897 -0.0955  0.0589
23830W        W39447   1.970   7.498  16.452 -0.1347 -0.1056 -0.2452
23831W        W39448  10.432  11.443  13.832  0.3239  0.3183  0.0584
23832W        W39449   1.244   7.300  12.034 -0.2999 -0.0208  0.3148
23833W        W39450  17.559   0.867   0.578 -0.0422  0.0045 -0.0557
23834W        W39451  12.681  11.910  14.285  0.0661  0.0292  0.1498
23835W        W39452  12.873   3.308  12.544 -0.1466 -0.4426 -0.0456
23836W        W39453   1.617   4.083  12.908  0.2358  0.1783  0.2150
23837W        W39454  15.305   5.843  10.740 -0.1291  0.0716  0.2812
23838W        W39455  12.303  17.486   2.043 -0.1136 -0.0719  0.3150
23839W        W39456   3.277   6.121  15.212 -0.0334  0.0070 -0.1985
23840W        W39457  15.300  14.055   5.457  0.3704  0.2091  0.1693
23841W        W39458   8.696   4.368   5.978  0.0283 -0.0035 -0.1505
23842W        W39459   1.949   3.946   4.881  0.3511  0.3471 -0.2569
23843W        W39460   2.909  17.333   0.766 -0.0107  0.1887  0.4328
23844W        W39461   9.311  13.190  14.737  0.0285 -0.0933  0.0183
23845W        W39462   0.543  12.341   3.721 -0.2280 -0.0792 -0.1015
23846W        W39463  14.133  12.120   5.073  0.1283  0.0566 -0.0753
23847W        W39464  11.748   8.491   5.447 -0.0124  0.2510  0.1599
23848W        W39465   3.102   2.779   2.516  0.0451  0.0762 -0.3329
23849W        W39466   3.140   0.251  13.684 -0.3090  0.0825  0.0356
23850W        W39467   1.825   1.560   3.345  0.2172  0.2541  0.3459
23851W        W39468   3.620   6.399   2.855 -0.3905 -0.0976 -0.0676
23852W        W39469   0.959   3.174  14.778 -0.0548  0.0579 -0.0732
23853W        W39470  17.487   7.748   0.048  0.0889  0.1290 -0.0391
23854W        W39471   9.750   3.769  12.539 -0.1713 -0.1519 -0.0761
23855W        W39472   9.270  13.822   2.861  0.1058 -0.0152 -0.2321
23856W        W39473   7.624   9.212   0.336 -0.1919 -0.0455  0.1011
23857W        W39474   6.178  15.546   1.747  0.0070  0.3810  0.2998
23858W        W39475   3.851  17.272  14.498 -0.0861  0.2372  0.2339
23859W        W39476   0.618   8.324   4.637 -0.6478 -0.0356 -0.2719
23860W        W39477  12.740   8.658  12.282  0.0228  0.0909 -0.2250
23861W        W39478   7.201   7.318   3.269  0.1054  0.0501  0.1599
23862W        W39479  11.276  12.529  12.851  0.0997  0.0220  0.2933
23863W        W39480  16.998  14.944  14.492 -0.2216 -0.1055  0.1076
23864W        W39481   0.025   7.590  13.017  0.1921  0.2066  0.0534
23865W        W39482   2.791   8.090   3.446  0.0451  0.2277 -0.1862
23866W        W39483  16.013  12.651   5.232  0.1238 -0.1535 -0.1252
23867W        W39484   9.881  16.942   0.005  0.0285 -0.2494  0.2171
23868W        W39485  12.133   8.765  11.940  0.0013  0.2442 -0.2805
23869W        W39486   0.383  13.714   1.804  0.1617  0.0344 -0.0179
23870W        W39487   8.349  11.841   2.556  0.2710  0.2009 -0.2644
23871W        W39488  11.410   9.311   1.839  0.1896 -0.2596  0.0913
23872W        W39489  11.859   6.162   1.952 -0.0556  0.0079  0.3291
23873W        W39490   5.428   4.678   3.022  0.1260  0.0437 -0.5156
23874W        W39491   0.419   7.933   2.903 -0.1983  0.1632 -0.3240
23875W        W39492   8.152  13.328  12.360  0.1291  0.0664  0.4320
23876W        W39493  11.042   4.397   3.907  0.0401  0.0330  0.2191
23877W        W39494   0.484   5.218  12.906 -0.2196  0.0853  0.0916
23878W        W39495   7.418   5.439  11.255 -0.1746  0.1819 -0.1623
23879W        W39496  14.236   3.105   2.808  0.2375 -0.0886  0.2896
23880W        W39497  12.085   2.713   4.748  0.0607  0.2542  0.1598
23881W        W39498   0.863   3.802   1.441 -0.1850 -0.1857  0.3320
23882W        W39499   9.631   4.564  15.155 -0.0854 -0.0176 -0.1095
23883W        W39500   7.905  13.724   3.514  0.2300  0.0532  0.4496
23884W        W39501   2.451   7.600  16.512  0.2690  0.0567 -0.2000
23885W        W39502   5.127  11.008   2.415 -0.1802  0.1141 -0.0017
23886W        W39503  10.846   9.073   0.642  0.0439  0.4409  0.0270
23887W        W39504  12.207  11.134   0.185 -0.0838  0.0288  0.1933
23888W        W39505  12.311  17.029   4.108 -0.0591 -0.0219 -0.3547
23889W        W39506   8.264  12.077  10.244 -0.2178 -0.0553 -0.2815
23890W        W39507  12.154  11.051  15.377 -0.0685  0.0974 -0.2245
23891W        W39508   2.558  13.842  14.540  0.3413 -0.1115 -0.1074
23892W        W39509   1.868   7.015   4.457  0.3693  0.1063 -0.3325
23893W        W39510   8.593  10.465  16.712 -0.4444 -0.1336  0.2227
23894W        W39511   4.486   6.403  14.720  0.3131 -0.3531 -0.1147
23895W        W39512  14.330  15.622   3.551 -0.1366 -0.0687 -0.0234
23896W        W39513   2.251  13.710   0.584  0.0272  0.0722 -0.2077
23897W        W39514   1.489   5.791   3.291 -0.0113  0.5825 -0.2267
23898W        W39515  17.175   5.023  15.810 -0.0085 -0.0334 -0.2467
23899W        W39516   6.083  12.457   4.729  0.1410 -0.2448 -0.1528
23900W        W39517  11.142  10.467  14.073 -0.0792 -0.0222  0.1546
23901W        W39518   6.991   7.104   5.591 -0.2759 -0.4219  0.0726
23902W        W39519  10.259   2.463   1.957 -0.0423 -0.1449 -0.3475
23903W        W39520  17.674  11.291  16.054 -0.1456 -0.1038 -0.4092
23904W        W39521  12.708   8.320   1.497  0.0606 -0.2486 -0.0482
23905W        W39522  12.612  13.776  13.944  0.0951 -0.3200  0.1393
23906W        W39523   8.798   1.007   3.918 -0.2417  0.0407  0.1346
23907W        W39524   2.493  13.292   4.532 -0.3166 -0.0329 -0.3239
23908W        W39525  14.106   1.538   1.872 -0.0119 -0.2660 -0.2160
23909W        W39526   7.178  17.415   0.716 -0.0184  0.1222 -0.0289
23910W        W39527  11.919  11.966   3.094  0.0796 -0.2791  0.0598
23911W        W39528  16.692  11.625  14.318 -0.1324  0.1564  0.1131
23912W        W39529  12.869  14.571   2.303  0.1897 -0.2121 -0.0624
23913W        W39530   3.239   2.555   5.478 -0.1530 -0.1114 -0.1975
23914W        W39531   0.180  15.057  15.010  0.0495 -0.3313 -0.0286
23915W        W39532  10.416  15.058  11.792 -0.1911 -0.1189  0.1547
23916W        W39533   0.879   2.299  16.294  0.3409 -0.0437  0.1098
23917W        W39534  17.968  10.787   2.376 -0.0725  0.2983 -0.2500
23918W        W39535   2.043   3.570   2.347 -0.1330  0.0739 -0.1642
23919W        W39536   0.208   4.121   0.838  0.1700 -0.0761 -0.0157
23920W        W39537   9.171   6.939  14.591 -0.0561  0.1624  0.0420
23921W        W39538   5.750  14.949   2.348 -0.1797  0.1044 -0.1250
23922W        W39539  11.943  15.572  16.657 -0.2402  0.1662  0.0980
23923W        W39540  17.361   3.669  16.227 -0.3252 -0.0602 -0.1072
23924W        W39541   6.277   7.284   1.449 -0.1172  0.0948 -0.0326
23925W        W39542   3.634   0.213  13.194  0.1001 -0.0318 -0.0114
23926W        W39543  15.707   5.343   1.535 -0.0946  0.0740  0.0174
23927W        W39544   6.760  16.704  12.005  0.1747  0.1376 -0.0424
23928W        W39545   0.665   8.358   0.595  0.1644  0.0173 -0.3109
23929W        W39546  14.372  12.108   5.654 -0.0467  0.1499  0.2754
23930W        W39547  12.983  10.479   2.320  0.0313 -0.0786  0.2100
23931W        W39548  14.375   3.542  16.771  0.0067  0.1676  0.1431
23932W        W39549  12.459  12.345  12.251  0.2278  0.0337 -0.2413
23933W        W39550  16.275  14.523   0.566 -0.0578  0.0466  0.1448
23934W        W39551   3.049  13.056   3.844  0.2742  0.2197  0.2324
23935W        W39552  16.652  12.012   5.247  0.0021 -0.4023 -0.2741
23936W        W39553  15.120   7.411   5.543  0.0862  0.1945 -0.2821
23937W        W39554   0.724   5.365   1.202  0.1052  0.1720  0.2630
23938W        W39555  12.057   4.599  12.350  0.1079 -0.2327  0.3800
23939W        W39556  16.767   4.623  15.491  0.0411  0.2132 -0.0399
23940W        W39557   3.729  16.177  13.291  0.1183 -0.0190  0.0756
23941W        W39558   3.781  11.177   3.430 -0.0145 -0.0482  0.1666
23942W        W39559   0.452  13.375  12.432  0.3570 -0.1592 -0.1202
23943W        W39560  14.275  11.875  13.024 -0.2354 -0.0597  0.0691
23944W        W39561  13.641  13.742  11.844 -0.2999 -0.0201  0.0847
23945W        W39562   8.251   0.529   2.631  0.1370 -0.2823 -0.0045
23946W        W39563  12.751   5.597  14.383 -0.1857  0.0421  0.0102
23947W        W39564  12.027  14.095   2.027 -0.1913  0.1069 -0.1348
23948W        W39565  12.616   3.653  12.210  0.1009  0.0413 -0.1961
23949W        W39566   2.480   8.195   0.361  0.5436  0.0774  0.0752
23950W        W39567   0.329   4.426  13.848 -0.1810  0.0745  0.0356
23951W        W39568  12.004  15.058  14.095  0.1284  0.1681 -0.2493
23952W        W39569  12.967  10.725   5.387 -0.0823  0.2016  0.2712
23953W        W39570  13.286  16.972  11.962 -0.1235 -0.2506  0.0199
23954W        W39571   2.292   0.305  16.612 -0.3669  0.0801  0.1593
23955W        W39572  14.498   3.405   1.182 -0.2102 -0.3473  0.0156
23956W        W39573  14.004  12.618   5.133 -0.4039  0.0767  0.1026
23957W        W39574   3.458   0.487  16.238  0.1905 -0.2405 -0.1627
23958W        W39575   2.739   7.970   2.728  0.1063  0.1686  0.1271
23959W        W39576   3.655  15.850  15.794 -0.0921  0.1408  0.1623
23960W        W39577   3.938   7.307  13.922 -0.4447 -0.1375  0.3177
23961W        W39578  15.823   0.811  12.847 -0.0345 -0.1300  0.2060
23962W        W39579   5.211   6.846  11.290 -0.3941 -0.2555  0.1180
23963W        W39580   2.917   7.908   0.376  0.1315 -0.0162 -0.0885
23964W        W39581   4.108  14.498   4.368 -0.0358 -0.0439  0.0435
23965W        W39582  16.254   7.662  11.709 -0.2693 -0.0750 -0.1457
23966W        W39583   9.289   6.581  16.756 -0.1369  0.1740 -0.0009
23967W        W39584   5.052   5.537  14.390 -0.0913 -0.0551  0.0332
23968W        W39585  12.936   2.879   0.150 -0.3044 -0.2185 -0.2287
23969W        W39586  17.987   7.574   2.107  0.1331 -0.1434 -0.3230
23970W        W39587   9.424   0.488   2.971  0.1009  0.0484 -0.1530
23971W        W39588   2.892  17.386   3.872  0.2318 -0.2672  0.1537
23972W        W39589  11.022   3.058  16.670  0.4201  0.3175 -0.0535
23973W        W39590   7.943   0.195  13.192 -0.3226 -0.0122 -0.1119
23974W        W39591   4.481   2.401   4.101 -0.4597 -0.0993 -0.1188
23975W        W39592  10.814   6.137   0.771  0.0741 -0.0134  0.1525
23976W        W39593   6.496  17.262   3.235  0.0149  0.0451 -0.1594
23977W        W39594   1.059  11.357  15.758  0.0353  0.0243 -0.0270
23978W        W39595   7.317   0.953   2.222 -0.1278 -0.3546  0.0464
23979W        W39596  15.367  16.019  12.136 -0.0064  0.0597  0.2660
23980W        W39597   6.767  15.091   1.037  0.0979  0.2581 -0.1281
23981W        W39598   0.974   1.569  11.594  0.0510 -0.2155  0.1200
23982W        W39599  17.390   9.108   1.850  0.1962 -0.0676  0.1871
23983W        W39600  17.956   6.451  15.336 -0.1971 -0.1007  0.3053
23984W        W39601   0.817   9.491  12.054  0.2944  0.3299  0.2026
23985W        W39602  12.147  14.764  14.510 -0.0451  0.0111  0.0319
23986W        W39603   5.569  14.955  15.557 -0.3091  0.0698  0.3615
23987W        W39604   0.734   9.369  13.562  0.0820  0.0971 -0.3171
23988W        W39605  10.890   7.688   0.654 -0.4375  0.0675 -0.3295
23989W        W39606  16.920  15.302   2.747  0.1342 -0.0185  0.0707
23990W        W39607   4.420   8.058  13.370  0.0311 -0.5393 -0.1567
23991W        W39608   9.461   9.030  15.102  0.2949  0.2071  0.1973
23992W        W39609   9.332  13.547  16.625  0.2088 -0.1406 -0.1748
23993W        W39610  14.971  12.479   2.002  0.0147 -0.0755  0.0505
23994W        W39611   7.177   2.542  12.188  0.0178 -0.0399 -0.0801
23995W        W39612  10.105   2.438  16.284  0.0278  0.0666  0.0050
23996W        W39613   4.253   9.866   0.465  0.2206  0.1216  0.1765
23997W        W39614  12.086  11.942  14.187 -0.0346 -0.3880 -0.1576
23998W        W39615  16.038   0.053  16.725  0.2118  0.3134 -0.2395
23999W        W39616  17.912  10.467  11.756  0.0817 -0.0596  0.1670
24000W        W39617   2.594  11.103   1.376  0.1440 -0.3773 -0.2459
24001W        W39618  15.900  17.860   1.412 -0.1432 -0.1343  0.2859
24002W        W39619   7.843  11.988  13.423 -0.3177  0.2618 -0.2095
24003W        W39620  14.230   5.118   4.440  0.0157  0.3596  0.0159
24004W        W39621  15.556  13.317   0.280  0.1157 -0.2492  0.2580
24005W        W39622   7.243  17.535  12.840  0.0288 -0.0721  0.3027
24006W        W39623   5.755   5.931   1.452 -0.1122 -0.0925  0.0141
24007W        W39624   6.199   7.589   2.279 -0.0759 -0.0849  0.1324
24008W        W39625   3.666   6.984   5.136 -0.2678 -0.1039  0.0645
24009W        W39626  14.194   0.535   5.525  0.0752 -0.1197 -0.1860
24010W        W39627   2.315  11.523  12.540 -0.2719  0.0247  0.1217
24011W        W39628   9.812   5.921   0.859 -0.2120 -0.1303 -0.0836
24012W        W39629   2.101   4.389  13.461 -0.0199 -0.0636 -0.0817
24013W        W39630  11.164   7.421   4.161 -0.3165 -0.0884  0.1211
24014W        W39631  17.661   5.098   5.466  0.1290  0.1777  0.0219
24015W        W39632   7.446   1.527  13.618 -0.3073 -0.0016 -0.0316
24016W        W39633  13.832  16.767   1.042 -0.0623  0.2388 -0.2179
24017W        W39634  10.114   8.500  11.724 -0.1065  0.3757 -0.1789
24018W        W39635   9.627  14.237   5.890 -0.1049  0.1317  0.1809
24019W        W39636   0.845  13.568  13.272 -0.3916 -0.1275 -0.0662
24020W        W39637   0.264  10.563  15.115 -0.0640  0.0429 -0.1153
24021W        W39638  18.023  16.952  15.662  0.0793 -0.2128 -0.0117
24022W        W39639  12.925   1.824   5.946 -0.0804 -0.0864  0.2293
24023W        W39640  10.798   3.012   2.041  0.2279 -0.2506 -0.1209
24024W        W39641   6.306   8.888   5.050  0.0969  0.1957  0.4354
24025W        W39642  15.375  12.278  12.608  0.1616 -0.4026  0.2642
24026W        W39643   8.134   3.205  13.512  0.0183  0.0971 -0.1126
24027W        W39644  13.261   6.955  15.457 -0.0540  0.1975  0.1578
24028W        W39645   5.885  15.673   3.117 -0.0208 -0.0368  0.0415
24029W        W39646  15.817  12.668   2.296  0.1691 -0.1896  0.1693
24030W        W39647   1.075   9.531   3.340 -0.0767  0.1167  0.2028
24031W        W39648  12.920   6.596  12.491 -0.3288 -0.0286 -0.4385
24032W        W39649   2.378  12.052   0.336  0.1158  0.0605  0.1341
24033W        W39650   9.688   0.931  11.806 -0.1560  0.3815 -0.1198
24034W        W39651   0.223  11.464  12.440  0.2163  0.1562 -0.1435
24035W        W39652   4.314  17.487  15.193 -0.1480  0.0550 -0.0609
24036W        W39653   1.237   5.179   3.288  0.0924 -0.1261  0.4128
24037W        W39654   4.780  13.656  15.996  0.1748 -0.2174  0.0166
24038W        W39655  13.395   6.584   3.173 -0.1034 -0.0029  0.1575
24039W        W39656  12.799  12.482   4.474  0.0675 -0.0330  0.2971
24040W        W39657  13.153  17.149  13.297  0.0799  0.0023 -0.1296
24041W        W39658   7.072  12.325  16.018  0.0362 -0.0524 -0.1404
24042W        W39659  13.247   4.873   3.348  0.1588 -0.2116 -0.2736
24043W        W39660  17.303   0.695  13.208 -0.3239  0.0602 -0.0370
24044W        W39661   3.704   3.078  15.425  0.0932  0.1558  0.1511
24045W        W39662   6.810   3.833   3.251 -0.0797  0.1560 -0.0054
24046W        W39663   6.447  12.775  12.408 -0.2721  0.0842  0.2663
24047W        W39664   2.209   3.481  14.260 -0.1610 -0.2886  0.0983
24048W        W39665  11.428   8.052  12.473  0.1949 -0.0878 -0.1860
24049W        W39666   4.465   1.284   1.258  0.1920 -0.3868 -0.2408
24050W        W39667   7.890  17.301  15.265  0.2187 -0.0147  0.2570
24051W        W39668  12.332  16.571  11.827  0.0840 -0.0836 -0.1639
24052W        W39669   3.262   5.747  16.258 -0.2238 -0.1072 -0.1866
24053W        W39670   8.216   0.350   1.460  0.0991 -0.1001  0.0649
24054W        W39671   2.766   8.883   1.612  0.2260 -0.0827 -0.1428
24055W        W39672  13.085   4.022   3.383  0.2165  0.2748 -0.1998
24056W        W39673   5.022   1.720   2.741 -0.2094 -0.0875 -0.1525
24057W        W39674  16.044  14.216   4.019 -0.1005  0.2957 -0.1253
24058W        W39675   9.415   9.451  13.205  0.1875 -0.0255  0.0464
24059W        W39676   1.174  10.807   0.759 -0.2476 -0.0166  0.0125
24060W        W39677   2.726   0.621   0.661  0.0055  0.1898 -0.4120
24061W        W39678   3.822   5.773   3.801 -0.2232  0.1376 -0.2653
24062W        W39679   0.081  12.062  14.278 -0.0481 -0.1457  0.2288
24063W        W39680   2.985   9.884  11.899 -0.1210  0.0341  0.1927
24064W        W39681  10.473  10.249   1.490 -0.2692 -0.2958 -0.0081
24065W        W39682   4.762   2.211  14.097  0.3071 -0.0344  0.1113
24066W        W39683  11.687   6.194   0.250  0.1689  0.2244 -0.0859
24067W        W39684   3.801  13.031   0.087  0.0902  0.0627  0.1422
24068W        W39685   1.900   6.467  12.641  0.3823  0.2110 -0.2498
24069W        W39686   1.428   6.543   4.025  0.2159  0.2865  0.1138
24070W        W39687   7.676   2.615  16.011 -0.2136  0.0854 -0.0908
24071W        W39688  17.517  16.315   6.000 -0.0500  0.2405  0.1312
24072W        W39689  16.316  11.198   5.524 -0.1560  0.0292 -0.0244
24073W        W39690   8.329   5.367   2.200  0.2523  0.0009  0.1819
24074W        W39691   2.995   0.580   6.158 -0.0319 -0.0665  0.4644
24075W        W39692   6.031   5.454  16.084  0.1089 -0.2141  0.0599
24076W        W39693  10.224   5.394   3.133 -0.0714  0.2328 -0.2523
24077W        W39694   3.324  12.464   0.565 -0.1438  0.1094 -0.3569
24078W        W39695  14.636   7.609  15.773  0.0385  0.0785  0.2900
24079W        W39696   0.257  14.836   1.995 -0.2633  0.0598  0.0789
24080W        W39697  12.686  16.314   5.428  0.0323  0.0922  0.0310
24081W        W39698   2.202   3.371  16.445 -0.0252 -0.2831 -0.0699
24082W        W39699   3.069   6.012   4.519  0.0540 -0.1237  0.1834
24083W        W39700  15.071  14.983  14.592 -0.0489  0.2876 -0.2822
24084W        W39701  14.092   4.776  13.818  0.0583 -0.5785  0.0431
24085W        W39702   6.642   9.465   2.002  0.1257 -0.3814  0.1254
24086W        W39703  17.317   0.674   1.918  0.0606 -0.2185  0.3268
24087W        W39704  11.691   9.251  11.023 -0.1735 -0.0941 -0.0965
24088W        W39705   8.225   6.895  13.444 -0.3405  0.0027 -0.2534
24089W        W39706  17.283  14.045   2.379 -0.1074 -0.0926 -0.0801
24090W        W39707  14.682   0.677   1.751  0.2869 -0.0051 -0.1309
24091W        W39708  13.429  13.174  12.129  0.0524 -0.0855  0.0506
24092W        W39709   7.614  10.745  15.316  0.0525  0.0003  0.1331
24093W        W39710  10.250   2.127  12.515  0.1509  0.1262 -0.2032
24094W        W39711   3.780   2.567  16.350  0.3858  0.2059  0.0241
24095W        W39712  11.694   1.989   0.658  0.0708 -0.0623 -0.2710
24096W        W39713  17.339   9.696   5.715  0.0481  0.0898  0.2750
24097W        W39714  13.181  17.313   3.799  0.0995 -0.0744 -0.2324
24098W        W39715   2.780   9.943  13.414  0.1948  0.1267 -0.0281
24099W        W39716   2.275  16.827   2.354 -0.0019 -0.0328 -0.0358
24100W        W39717   3.651   6.754  14.040 -0.0429  0.2349  0.0575
24101W        W39718   4.822   2.837  16.520 -0.3125 -0.1201 -0.0398
24102W        W39719   5.658  11.907  12.849  0.2130 -0.2709  0.0328
24103W        W39720   3.816  11.322   5.458 -0.3969  0.1000  0.0834
24104W        W39721  11.944   4.219  14.681 -0.0851  0.1780 -0.0929
24105W        W39722  10.133  10.968  15.699 -0.0380 -0.2649  0.3344
24106W        W39723  12.017  13.513   3.903 -0.0058 -0.0371 -0.2045
24107W        W39724   2.060  17.246  14.927 -0.0675 -0.2127 -0.4798
24108W        W39725   5.512  12.644  12.233 -0.1299 -0.0947  0.0954
24109W        W39726   0.564   1.328  11.883  0.3419  0.0736 -0.1081
24110W        W39727   9.558  14.564   6.323  0.0270 -0.0948 -0.0338
24111W        W39728  17.534  11.066   4.611 -0.0278 -0.1919  0.1783
24112W        W39729   0.723  15.743  16.568  0.5412 -0.1553  0.0369
24113W        W39730   9.213  17.775   3.601  0.0381  0.1466  0.2032
24114W        W39731  11.111   8.268  11.513  0.3298  0.0961  0.1172
24115W        W39732   4.059  13.284   4.406 -0.0593 -0.0862  0.1784
24116W        W39733   6.636  17.759   1.937  0.2860  0.1365 -0.0064
24117W        W39734  10.862   1.557  12.167 -0.1113 -0.2143 -0.2357
24118W        W39735  12.407   2.616   3.495 -0.2886 -0.0632 -0.0902
24119W        W39736   4.798  17.161   1.626 -0.1035  0.0662  0.3366
24120W        W39737  15.716   5.198   3.644 -0.2811 -0.1908 -0.2207
24121W        W39738  13.690   7.997   3.475 -0.1081 -0.2117  0.3556
24122W        W39739   9.339   4.425  15.932  0.3464  0.1202  0.2945
24123W        W39740  12.874  11.689  13.613  0.3434  0.4742  0.2288
24124W        W39741  15.153   8.766  13.475 -0.2541 -0.2545  0.1485
24125W        W39742  11.203   7.481   1.615 -0.0781  0.2905  0.1152
24126W        W39743   0.115  14.321   4.258  0.2496  0.1151  0.2570
24127W        W39744   8.486  17.571   1.153  0.0626  0.4283 -0.0430
24128W        W39745  17.866   8.278   3.491 -0.2030  0.2462 -0.0018
24129W        W39746  14.014   9.854  12.521 -0.0107 -0.2047 -0.4132
24130W        W39747   9.642   2.370  16.114  0.0394  0.2487 -0.0390
24131W        W39748  17.322   6.127   5.388  0.1539 -0.0816 -0.0229
24132W        W39749   2.294  17.995   1.902  0.2027 -0.2318  0.1577
24133W        W39750  11.500  12.625  16.315 -0.0736 -0.1669  0.0610
24134W        W39751   4.367   2.943  11.445  0.1535  0.2032 -0.1122
24135W        W39752  11.834   3.183  15.441  0.1126  0.0106  0.6238
24136W        W39753  17.220  16.738   0.999 -0.0880  0.1142  0.1062
24137W        W39754   6.611  11.289   5.003  0.1095 -0.2062  0.1723
24138W        W39755   8.985   5.266   4.775 -0.0755  0.5425 -0.2715
24139W        W39756  13.427  17.894   1.556  0.0731  0.0689  0.0630
24140W        W39757   4.727   7.179   0.794  0.1009 -0.1818 -0.2580
24141W        W39758   6.894   4.850   3.159  0.2730  0.4019 -0.1610
24142W        W39759   4.776   8.993  11.218 -0.1978  0.1109  0.2296
24143W        W39760   2.099   8.922  14.306 -0.2331  0.0773 -0.0728
24144W        W39761  13.350  17.001   4.189  0.3074  0.1782 -0.1907
24145W        W39762   1.984  13.499   3.820  0.0571 -0.0359  0.2361
24146W        W39763  14.377   9.184  16.090  0.2409  0.2302  0.4052
24147W        W39764  12.066   6.578  11.040  0.0368 -0.1942 -0.0329
24148W        W39765   3.622   6.025   2.075  0.3267  0.1891 -0.0374
24149W        W39766  13.669   9.448  12.668 -0.1424 -0.1265 -0.1880
24150W        W39767  14.306   6.678   5.473  0.0664  0.1003  0.0568
24151W        W39768   0.039  15.638   3.895  0.2355  0.2092  0.0114
24152W        W39769   1.565  14.067  12.288 -0.3908  0.1843  0.1283
24153W        W39770  13.717   1.575  11.984  0.3235 -0.0820  0.2954
24154W        W39771   6.799  13.985   4.618 -0.3081  0.1164  0.2601
24155W        W39772   1.638   9.775  13.424  0.1021  0.1919 -0.2197
24156W        W39773   6.171  15.856   0.047  0.0784  0.1066  0.0119
24157W        W39774   1.798   5.033  12.438 -0.0888  0.1658 -0.3189
24158W        W39775  14.605   0.040   4.460 -0.0352 -0.0699  0.0348
24159W        W39776   9.110   2.089  16.711  0.1591  0.3203  0.0002
24160W        W39777   0.527   6.708  13.334 -0.1413 -0.1024  0.0315
24161W        W39778  16.316   5.425   4.664  0.1772 -0.1232 -0.0928
24162W        W39779  10.299   1.064  15.098 -0.1739 -0.0585  0.1271
24163W        W39780   9.285   1.431   2.638 -0.5603 -0.1285  0.0094
24164W        W39781  10.147   9.678   1.383  0.0458 -0.0477  0.0475
24165W        W39782  12.698   1.485   1.706  0.0829  0.2674 -0.2967
24166W        W39783   8.720   7.653  12.221 -0.2923 -0.1132  0.3208
24167W        W39784   9.561  15.678   4.381  0.1111 -0.2881  0.1631
24168W        W39785  13.823   8.995   5.206  0.0121  0.0048  0.3201
24169W        W39786  16.830  14.712   1.497  0.2549  0.1123 -0.1712
24170W        W39787  11.345   0.150   2.600  0.2602  0.0840 -0.1404
24171W        W39788   9.590  14.065  13.668 -0.1678 -0.2976  0.1318
24172W        W39789   6.459   8.275  12.618  0.0715  0.1919 -0.1760
24173W        W39790   0.125   6.308  13.197  0.1226  0.3244  0.0018
24174W        W39791  15.728  13.843  12.563  0.2329 -0.0112  0.3526
24175W        W39792   4.023  15.162   3.448 -0.1673 -0.0092 -0.1332
24176W        W39793   0.832  11.564   1.201  0.1472  0.4387 -0.3640
24177W        W39794  13.964  12.695   0.369  0.0262 -0.2589  0.0927
24178W        W39795  15.681  10.550   4.183 -0.0077  0.0380 -0.0465
24179W        W39796   9.784   3.123  15.690  0.0065 -0.1534 -0.1603
24180W        W39797   1.665   7.867  12.547 -0.0400 -0.0260 -0.4548
24181W        W39798   1.834  15.960  13.550  0.3751 -0.5495 -0.0447
24182W        W39799  15.235   6.877  13.566 -0.0506  0.0097  0.0573
24183W        W39800  10.258  15.277   4.946  0.2427  0.0646 -0.1260
24184W        W39801   0.721  15.216  15.777  0.0611  0.0457  0.1091
24185W        W39802   8.484   1.478  15.096  0.1094  0.1931  0.4047
24186W        W39803   3.653   9.345   3.112  0.0487  0.1060  0.1930
24187W        W39804  12.295  16.467   4.812  0.0274 -0.0886 -0.0826
24188W        W39805  16.229  14.580   5.312  0.0307  0.1560  0.0298
24189W        W39806  14.611   2.243   1.624 -0.0580  0.2698 -0.1881
24190W        W39807   8.430  10.745   2.063 -0.0653  0.3655  0.1723
24191W        W39808  12.440  13.707   4.050 -0.1612  0.0265  0.0717
24192W        W39809  17.193   4.265   6.730 -0.0053  0.2110 -0.1544
24193W        W39810   9.835   6.900  16.631  0.1143  0.0923  0.2948
24194W        W39811   4.534   7.458   3.899 -0.0764 -0.0941  0.1572
24195W        W39812  17.534  10.486  15.691 -0.0316  0.0653 -0.2609
24196W        W39813   4.027   6.815   2.479  0.1073 -0.3073  0.2069
24197W        W39814   3.285   7.217  12.803 -0.0193  0.0331  0.1264
24198W        W39815  15.951  11.364   5.156 -0.0283 -0.0789 -0.0916
24199W        W39816   1.060   6.826  12.350  0.3395  0.1565 -0.1256
24200W        W39817   2.037   7.099   5.615 -0.1500 -0.0214 -0.1918
24201W        W39818   8.203   0.196  12.278 -0.0342 -0.0766 -0.1418
24202W        W39819  16.545   1.653   1.833  0.3401 -0.1604  0.0025
24203W        W39820   4.041  12.238   1.900  0.0747  0.0027 -0.1855
24204W        W39821   4.023   0.084   1.926 -0.3084  0.0285  0.1068
24205W        W39822  13.260   5.189   1.571  0.1144  0.2411  0.1592
24206W        W39823   3.766  14.730  13.498 -0.2346 -0.0849 -0.1056
24207W        W39824  17.109  17.591   0.006 -0.3136 -0.2205 -0.2116
24208W        W39825   1.794   3.629  12.305 -0.1859 -0.0635 -0.2539
24209W        W39826   6.081   9.250  14.900 -0.0370 -0.1855 -0.2044
24210W        W39827   2.360   4.122  12.233 -0.0315 -0.0415 -0.2085
24211W        W39828  17.469   1.218  12.426 -0.5507 -0.3978  0.4388
24212W        W39829   5.393  15.098  16.053 -0.2435  0.0748 -0.3723
24213W        W39830  17.775   7.687   4.880 -0.0621 -0.1287  0.0175
24214W        W39831   1.178   4.915  16.223 -0.2314  0.2060 -0.1100
24215W        W39832   5.931   5.581  12.615 -0.0982  0.1297  0.3210
24216W        W39833   5.841   5.458   2.315  0.1149 -0.3307  0.2632
24217W        W39834   5.141  10.286   4.440  0.0629 -0.2204  0.0827
24218W        W39835   3.929   5.829  14.190 -0.1177  0.1591  0.0788
24219W        W39836   1.769  11.266  16.656  0.0366 -0.0704  0.0835
24220W        W39837   0.129   5.816   6.005 -0.1548 -0.1856  0.1072
24221W        W39838   7.327  12.146   1.995 -0.1322  0.0636 -0.0808
24222W        W39839  13.667  12.560   1.369 -0.0116 -0.0493 -0.0155
24223W        W39840   5.313   6.447   4.418  0.1980  0.1002 -0.3003
24224W        W39841  17.482   9.513  16.505  0.0163 -0.3395  0.5708
24225W        W39842   0.186   6.334  13.723  0.0317  0.0600 -0.2710
24226W        W39843  10.986   4.256  13.745  0.2203  0.1568 -0.0614
24227W        W39844  11.421   8.941  12.451  0.3577 -0.2163  0.0031
24228W        W39845   8.225   4.363   4.615  0.0116  0.1033 -0.0522
24229W        W39846   6.908   4.023  13.333  0.3554  0.1772 -0.0596
24230W        W39847   4.587   5.406  12.949  0.0446  0.3254 -0.6385
24231W        W39848   5.556   6.532   0.565  0.1623 -0.3352 -0.1452
24232W        W39849   0.391  17.664  14.708 -0.1109  0.1052  0.1101
24233W        W39850   3.337  12.158   0.179 -0.2313 -0.0925  0.0255
24234W        W39851   2.688   3.807  14.357  0.0310  0.2632  0.1167
24235W        W39852   2.126   5.427   2.032 -0.1041  0.1945  0.0831
24236W        W39853   8.195  13.518   0.703 -0.1339  0.1926 -0.0825
24237W        W39854   1.857   2.360  12.626  0.3220 -0.0759  0.1635
24238W        W39855  15.097   1.557   4.144 -0.1048  0.1616 -0.0177
24239W        W39856  12.543  17.599  14.309 -0.2084  0.2628 -0.0212
24240W        W39857   9.420   6.173   1.196 -0.2170  0.1064  0.0026
24241W        W39858   4.857   5.160   5.822  0.1995  0.5494 -0.2963
24242W        W39859  11.520   4.363   3.890  0.0837  0.2441  0.0609
24243W        W39860  10.080   0.879  14.309 -0.1785  0.1733  0.1049
24244W        W39861  15.533  12.634  15.226 -0.4949 -0.0553  0.0333
24245W        W39862  10.978   1.992  15.910 -0.1555 -0.1471 -0.3858
24246W        W39863   4.173   3.804  16.196 -0.3413 -0.1323 -0.0965
24247W        W39864  14.173  16.484  14.413 -0.2541  0.1157 -0.0495
24248W        W39865   7.674  14.882  13.914 -0.3202 -0.1251  0.2784
24249W        W39866   3.258   9.320   3.450 -0.1785 -0.2527  0.2621
24250W        W39867   9.964  15.305  10.876  0.0539  0.2226 -0.1332
24251W        W39868  17.281  14.105   4.594  0.0418 -0.1792 -0.0412
24252W        W39869   6.301  17.292  13.481  0.0290 -0.0592  0.0468
24253W        W39870   4.943  15.715   5.643 -0.0836  0.0663  0.4344
24254W        W39871   5.053   6.926  15.450 -0.2314  0.0654 -0.2329
24255W        W39872  11.582  15.054  12.332  0.0135 -0.2885 -0.1587
24256W        W39873  17.612   0.028   3.506  0.2570 -0.1243  0.0135
24257W        W39874   1.993   1.855   5.555 -0.2453  0.1453 -0.1843
24258W        W39875  16.890   2.448  13.892  0.2350  0.1674 -0.2622
24259W        W39876  11.899  10.280   2.938 -0.0853  0.2484 -0.0011
24260W        W39877   3.881   6.290   2.444 -0.0602 -0.2375  0.0814
24261W        W39878   1.639   1.049   3.374  0.1834 -0.1809 -0.1755
24262W        W39879  16.391  10.295   5.986  0.2131 -0.0248 -0.0162
24263W        W39880   4.700  11.650  13.961 -0.2636 -0.0510  0.1353
24264W        W39881  11.637  15.017   5.074 -0.2629  0.0976  0.0206
24265W        W39882   7.696   5.034   2.327 -0.1326  0.0543 -0.2586
24266W        W39883   2.343   1.662  12.882 -0.2320 -0.1728 -0.2530
24267W        W39884   5.931   5.693   5.108 -0.0896 -0.0733 -0.0318
24268W        W39885   2.329  10.461   4.876  0.0003 -0.0842  0.0192
24269W        W39886   3.878  15.550  10.708 -0.1367  0.0350  0.0360
24270W        W39887  14.785   5.559   1.114 -0.0422 -0.2541 -0.0874
24271W        W39888   8.100   9.339   5.834  0.3362 -0.1508 -0.0116
24272W        W39889   2.113  14.517   5.140  0.0004  0.1189  0.1515
24273W        W39890  13.018   2.893  14.294  0.1192 -0.1874  0.6180
24274W        W39891   5.289   8.437   1.024 -0.0205  0.1905 -0.4182
24275W        W39892  12.256   8.919   0.722  0.3948 -0.0398  0.0951
24276W        W39893  13.168  14.762   1.365 -0.0956  0.1803  0.1104
24277W        W39894   8.452  13.497   5.750  0.2380 -0.0308 -0.3452
24278W        W39895   1.676   2.102  15.668 -0.3944 -0.3374  0.0540
24279W        W39896  17.028  10.967   1.918  0.0925  0.0118  0.1606
24280W        W39897  17.119   7.764  16.497  0.0375  0.2464 -0.0471
24281W        W39898  15.397  10.499   5.662  0.0663 -0.4115 -0.0980
24282W        W39899  13.809  10.178   4.910  0.0130  0.0553 -0.5664
24283W        W39900  17.611  17.035   4.739  0.1839 -0.2175 -0.1475
24284W        W39901  10.313  14.560   2.043 -0.1536  0.0885  0.0402
24285W        W39902  11.197   0.258   3.241 -0.6906 -0.2600 -0.2745
24286W        W39903   9.279  15.327   0.139  0.0765 -0.0372 -0.3062
24287W        W39904  14.585  15.734   4.933  0.1637 -0.1435  0.0735
24288W        W39905   5.204   9.503   6.220  0.0043  0.0503 -0.0043
24289W        W39906   6.489   8.154  14.161  0.1072  0.0078  0.0498
24290W        W39907  15.614   4.919   5.891  0.0064  0.2528  0.0960
24291W        W39908   1.550  11.882  14.828  0.0111 -0.1109 -0.2126
24292W        W39909   8.940   3.417  12.281  0.2467 -0.2713 -0.1230
24293W        W39910   7.573  13.362  13.004 -0.0472  0.0222  0.2047
24294W        W39911  10.429   6.489   0.880  0.0962  0.0869 -0.0210
24295W        W39912  15.050  11.082   2.739  0.1449  0.1832 -0.0958
24296W        W39913  14.242   9.805  13.383  0.0217 -0.0078  0.1827
24297W        W39914   2.934   0.150   0.889  0.1181 -0.2126 -0.0190
24298W        W39915   9.582   4.743   5.764  0.1046  0.0365  0.0330
24299W        W39916   1.364   2.529  11.543 -0.0653  0.3847  0.2393
24300W        W39917  11.605  14.867  13.857  0.0622  0.2350 -0.2546
24301W        W39918   0.315   7.470  16.127  0.0121 -0.1180 -0.1073
24302W        W39919   1.625   4.735   1.065 -0.1451 -0.3059  0.0555
24303W        W39920   5.022  17.202   1.186 -0.0600  0.0195  0.3335
24304W        W39921  17.516  16.179   2.631  0.0524 -0.3775 -0.3807
24305W        W39922  14.284  13.024  11.539 -0.0958 -0.2989  0.3510
24306W        W39923  14.895  13.000   4.250 -0.2228 -0.0773  0.0045
24307W        W39924  15.836   8.168  11.131  0.1012  0.1869 -0.1101
24308W        W39925  10.919  14.019   1.439 -0.1489 -0.0846  0.0250
24309W        W39926   5.768  10.565  12.650  0.1270  0.1348 -0.3958
24310W        W39927   4.469   2.013   0.800  0.0920 -0.0637  0.0650
24311W        W39928   5.013   4.898   2.570 -0.2038  0.0543  0.0513
24312W        W39929   9.376   6.642   1.068 -0.1517  0.1117  0.2981
24313W        W39930  16.444   8.210  11.892  0.0633  0.2151  0.1576
24314W        W39931   7.122  10.771  12.946  0.0299 -0.3155  0.1084
24315W        W39932   8.032   3.592  15.376 -0.3329  0.1374  0.0767
24316W        W39933   2.877   4.243   6.040  0.0147 -0.2307 -0.1215
24317W        W39934  12.747  11.710   2.748 -0.1324 -0.0636 -0.1218
24318W        W39935  16.989   4.447  13.507  0.0846  0.3170  0.1168
24319W        W39936   6.447   3.990   1.515 -0.2724  0.0370  0.1280
24320W        W39937  15.356   5.075   4.511  0.0617 -0.0101  0.0687
24321W        W39938  14.741  14.668  14.883 -0.0402 -0.0434 -0.2230
24322W        W39939   8.106   3.213  12.918  0.3306 -0.2190 -0.4059
24323W        W39940   8.142   3.888   1.882  0.0440  0.0455  0.0180
24324W        W39941  11.134   8.767  14.889  0.0158 -0.0609  0.2995
24325W        W39942  12.068   9.538   5.095  0.0698  0.2017 -0.0133
24326W        W39943   5.821   4.840   6.019  0.1513 -0.0485 -0.1364
24327W        W39944   5.972  15.716  12.475 -0.0578 -0.0937 -0.0548
24328W        W39945   4.744   9.102   4.438  0.1655  0.2684 -0.0954
24329W        W39946  17.200  15.806   4.598 -0.3544 -0.4231 -0.4191
24330W        W39947  17.525   7.794   5.667  0.1346 -0.2529 -0.0826
24331W        W39948  17.162   2.646   3.810  0.2759  0.0447 -0.0684
24332W        W39949  16.857   7.448   2.186  0.0665 -0.0886 -0.1266
24333W        W39950  10.212   7.430  12.274 -0.0975 -0.3904 -0.0155
24334W        W39951   4.661  12.556  12.134 -0.1165  0.1183 -0.1887
24335W        W39952   8.919   0.757   4.538  0.3588  0.0212 -0.1970
24336W        W39953   1.039  13.292   0.575 -0.0071 -0.0205  0.6328
24337W        W39954   1.729  10.455  15.127 -0.2580  0.0845  0.0808
24338W        W39955  14.786   0.405   4.190  0.1124  0.2005  0.1057
24339W        W39956   8.949  11.058  13.193  0.1448 -0.0160 -0.0894
24340W        W39957  12.010   6.560   3.107 -0.1699 -0.0266 -0.1950
24341W        W39958  13.113  10.413  16.673 -0.0899 -0.1453 -0.1442
24342W        W39959   1.516  14.614  13.983  0.2712 -0.5556  0.0310
24343W        W39960   6.604   7.592  12.936 -0.0538  0.3210 -0.2726
24344W        W39961   7.219   6.526  15.775  0.0692  0.1619  0.0555
24345W        W39962   8.145  15.307  13.679 -0.3558 -0.1990 -0.0365
24346W        W39963   3.472   4.754  12.928 -0.2560  0.0390 -0.2110
24347W        W39964  16.307   8.034   4.318 -0.2282 -0.1864  0.0081
24348W        W39965   5.297  16.593  15.649  0.0882 -0.1492 -0.2773
24349W        W39966   3.782  10.981  14.358 -0.2341 -0.1579 -0.2096
24350W        W39967   3.406   3.014   4.776 -0.2689  0.0261  0.1258
24351W        W39968  14.426  11.825   4.700  0.1873 -0.2760  0.0274
24352W        W39969  15.747  13.061  15.451  0.2718 -0.1314  0.0667
24353W        W39970  10.546   1.808   2.597  0.0204 -0.1463  0.0218
24354W        W39971   9.468  17.587   5.334 -0.0356 -0.0146 -0.0086
24355W        W39972   1.317   4.740   2.944  0.1389 -0.2850 -0.0181
24356W        W39973   0.625  16.839  12.150 -0.1368  0.1093  0.1594
24357W        W39974  10.176   8.243  13.707 -0.1285  0.0822  0.0291
24358W        W39975  14.261   3.037  15.297  0.1047  0.0024  0.2713
24359W        W39976  12.540  13.496   3.589  0.1937 -0.2190 -0.1337
24360W        W39977   7.347  17.984  11.521 -0.2359  0.0394  0.2714
24361W        W39978   3.965   1.314   4.856 -0.1884  0.0313  0.2366
24362W        W39979   8.544   5.917   2.451 -0.2923  0.0488  0.0157
24363W        W39980  13.934  13.041  12.245 -0.0590 -0.4324  0.2188
24364W        W39981   6.937   9.084  14.452 -0.5007 -0.2162 -0.0721
24365W        W39982  15.552  16.458  14.948  0.2703  0.1588  0.0333
24366W        W39983   7.945   4.083   4.281  0.0032  0.2521 -0.1707
24367W        W39984   3.160   6.447  14.296  0.0212  0.0064 -0.1471
24368W        W39985   8.902   8.295   1.814 -0.1968 -0.1208  0.1775
24369W        W39986   2.776  16.432   1.699  0.0392  0.0711  0.0385
24370W        W39987   7.377  10.330  12.792  0.0375  0.1101  0.2032
24371W        W39988   4.247  14.776  11.887  0.0258 -0.3530 -0.1611
24372W        W39989   0.576   8.407  16.161  0.0731  0.0165  0.3030
24373W        W39990   6.232   4.710  12.164 -0.0041  0.1841  0.2658
24374W        W39991  13.701  10.994  16.426  0.2714 -0.1406  0.0535
24375W        W39992   0.947  14.994   2.684  0.0549 -0.2234 -0.2598
24376W        W39993   9.823   0.523  14.531  0.1599 -0.2882 -0.0182
24377W        W39994  10.104  11.437  16.596  0.1812 -0.0359  0.1375
24378W        W39995  17.512   5.542  15.897 -0.1347  0.2858  0.2661
24379W        W39996  16.071   6.338  15.984  0.2430  0.2425  0.1970
24380W        W39997  14.665   0.679  16.193 -0.1359  0.1409 -0.0766
24381W        W39998   3.013   3.323  13.882 -0.1432  0.0493 -0.1017
24382W        W39999   7.797  12.898   1.485 -0.1527 -0.1821 -0.2262
24383W        W40000  17.071   2.708  15.179  0.3702  0.4470  0.2260
24384W        W40001   8.140   2.451   3.051 -0.2432  0.0873 -0.2707
24385W        W40002   0.782   1.789  16.112 -0.1819  0.0499  0.4055
24386W        W40003   9.260   5.411   0.736 -0.0030  0.1705 -0.1625
24387W        W40004  15.600  17.472   1.362 -0.0783 -0.1668 -0.2935
24388W        W40005  10.822  17.230  16.731  0.0651 -0.2195 -0.0294
24389W        W40006   0.416  10.161  15.532  0.2274  0.1867  0.0508
24390W        W40007   4.752  11.960  14.818  0.0305  0.3248 -0.1249
24391W        W40008  14.968  11.496  15.789 -0.0565 -0.0378  0.3485
24392W        W40009   1.856   5.630   2.401  0.1180  0.1545 -0.3025
24393W        W40010  10.216  17.392   0.838  0.3832 -0.1513 -0.0616
24394W        W40011  12.874   5.727  11.908 -0.1290 -0.0422 -0.0957
24395W        W40012  14.491   8.314  12.287  0.0835  0.0853 -0.1351
24396W        W40013   2.420  14.694   4.289 -0.2644 -0.1743  0.0074
24397W        W40014  12.722   7.120   3.274  0.2632 -0.0474  0.1924
24398W        W40015   5.884   1.601  14.077  0.2315 -0.0060  0.0433
24399W        W40016   2.182  12.981  13.115  0.1588  0.0474 -0.2078
24400W        W40017  15.716   1.925  12.299  0.3610  0.4320 -0.1244
24401W        W40018  17.469   2.451  14.401  0.2794 -0.5766  0.1067
24402W        W40019  11.298   1.568   1.398  0.2818 -0.1261  0.1496
24403W        W40020   5.798  16.360   4.408  0.0419 -0.2310 -0.0509
24404W        W40021  11.743   3.756  16.163  0.1514  0.1458 -0.2217
24405W        W40022   5.614  16.375  16.104  0.1388 -0.1185 -0.0191
24406W        W40023   6.604  16.012   4.314  0.0351 -0.0437 -0.1538
24407W        W40024  10.069  17.597  12.299 -0.2014 -0.0924 -0.3807
24408W        W40025  17.416   3.587  14.036  0.2543  0.3438  0.0076
24409W        W40026  11.391  14.343  16.677  0.1129 -0.0722  0.3582
24410W        W40027   7.978  11.124  13.138  0.0749  0.2166  0.0481
24411W        W40028  10.249  14.031  16.547  0.0280 -0.0815  0.4758
24412W        W40029   6.985   2.957   5.532 -0.1062 -0.1200 -0.0789
24413W        W40030   1.765  13.536   0.520 -0.2538 -0.0387 -0.3928
24414W        W40031   7.263  17.674  14.556 -0.0239 -0.3114  0.3078
24415W        W40032  11.613  15.730  12.938 -0.1176 -0.1424  0.2315
24416W        W40033   9.296  12.082   2.917 -0.1314  0.0056  0.1175
24417W        W40034   3.468  16.360   2.002  0.2214 -0.4733 -0.0294
24418W        W40035  15.967  12.614  16.506  0.1581  0.0705  0.0918
24419W        W40036  15.563  15.858   0.800  0.1440 -0.0541 -0.0358
24420W        W40037   5.496  13.900   4.581  0.1701 -0.0623 -0.1309
24421W        W40038   3.409  14.759   1.238  0.1263 -0.4150 -0.2769
24422W        W40039   7.905  13.366   1.311  0.1427  0.2958  0.0249
24423W        W40040  12.410   7.245  12.012  0.3187  0.1622 -0.0385
24424W        W40041   5.069  13.038   3.162  0.3158 -0.6709  0.1198
24425W        W40042  16.638   1.313   2.646 -0.2033 -0.0284  0.1532
24426W        W40043  15.901   7.613   4.779 -0.0632  0.1047  0.0184
24427W        W40044   9.852   2.251   3.189  0.1146  0.2242  0.1296
24428W        W40045  14.285  14.499  16.345  0.3038  0.2751 -0.1412
24429W        W40046   0.742   5.784   1.458  0.2552 -0.0735 -0.1499
24430W        W40047  14.228  10.185   0.528 -0.3849 -0.2510  0.1698
24431W        W40048   7.401  11.962  14.704 -0.0655  0.2263 -0.0665
24432W        W40049   6.460   8.655  14.179 -0.3520 -0.0064 -0.0334
24433W        W40050   3.899   2.193  15.490 -0.2664  0.1811  0.1065
24434W        W40051  14.530  14.117  16.149 -0.0152 -0.0913 -0.0281
24435W        W40052  15.575  17.926   6.122 -0.0634 -0.2740  0.1859
24436W        W40053   7.705   0.015   3.208 -0.4685  0.3161  0.1922
24437W        W40054  13.310   1.208   1.686  0.1767  0.2094 -0.1211
24438W        W40055   1.133  10.218  12.291 -0.0807  0.2419  0.2289
24439W        W40056   5.430   2.731  12.317  0.1785 -0.2915 -0.0695
24440W        W40057   5.263  16.020  13.109 -0.0187  0.0131 -0.0485
24441W        W40058  17.748   5.485  12.816  0.0868  0.0729  0.1525
24442W        W40059   2.609   7.488   2.720 -0.1585  0.1848 -0.2487
24443W        W40060   1.326  10.360  16.601  0.0253  0.0993 -0.0522
24444W        W40061  14.476  10.048  16.683 -0.0046  0.0870  0.1952
24445W        W40062  11.418  18.024   1.607 -0.0229 -0.3694  0.1842
24446W        W40063   9.636   5.947  16.193 -0.1367 -0.0518  0.1293
24447W        W40064   7.121  10.947  13.490  0.1843  0.2184 -0.0656
24448W        W40065  15.002   5.060   0.960 -0.0870  0.2743  0.1154
24449W        W40066   5.457   9.736  12.260  0.0409 -0.1397 -0.1467
24450W        W40067  17.788   5.217   1.062  0.0283 -0.0019 -0.0963
24451W        W40068  16.774   4.577  15.980 -0.0415 -0.1576 -0.0176
24452W        W40069  15.499  15.170   4.809  0.3796  0.3633  0.0283
24453W        W40070  13.885   7.502  15.924 -0.1896 -0.0212 -0.0234
24454W        W40071   9.885  17.869   1.202 -0.1323  0.3380 -0.0779
24455W        W40072  16.340   1.281  13.386 -0.1155  0.2987  0.0281
24456W        W40073   3.037   3.531  12.206 -0.1099 -0.1018  0.2464
24457W        W40074   9.833  16.186   2.061 -0.1894 -0.3126 -0.3079
24458W        W40075   2.730   6.457  12.447 -0.1301  0.0711  0.2241
24459W        W40076  12.777  12.592   5.035  0.0406  0.3646  0.0614
24460W        W40077  12.730   2.756   1.062  0.0056 -0.0239 -0.0442
24461W        W40078   3.006  17.312   0.201 -0.0677  0.0632 -0.4488
24462W        W40079   0.033  11.092   3.124 -0.0836  0.2546 -0.0648
24463W        W40080  12.317   5.011   1.570  0.1645 -0.0129  0.1221
24464W        W40081   6.354   0.452   3.822 -0.1451 -0.0408  0.2262
24465W        W40082   2.649   1.008   4.104  0.0616 -0.0323  0.0182
24466W        W40083   3.722  13.105   4.056  0.2298  0.0107 -0.0597
24467W        W40084  14.277  13.871   0.427 -0.0474  0.0629 -0.0298
24468W        W40085   5.599   2.213   0.431 -0.0363 -0.2065  0.2480
24469W        W40086  15.032   0.087   5.214 -0.2858  0.1158 -0.1328
24470W        W40087   9.253   8.344  14.076  0.1666 -0.4369  0.4200
24471W        W40088  13.760   2.455  12.624  0.4481  0.0548 -0.2233
24472W        W40089   4.906  15.112   2.277  0.0414  0.1000 -0.0945
24473W        W40090   2.595  14.020  12.396 -0.5391 -0.0436 -0.0931
24474W        W40091   4.433  11.809  14.395  0.1985 -0.2337  0.0499
24475W        W40092  12.890  17.315  12.085 -0.0738 -0.2842 -0.0867
24476W        W40093  11.065  15.248  15.196 -0.2539  0.0283  0.2347
24477W        W40094  16.840   7.324   5.351  0.0471 -0.0579 -0.0838
24478W        W40095   1.494   6.713  15.836 -0.0525  0.0272 -0.1292
24479W        W40096  17.255  10.819  12.847  0.1118  0.1907 -0.0859
24480W        W40097  17.942   4.764  14.557  0.0723 -0.0638  0.0735
24481W        W40098   6.692   0.424  14.386 -0.1484  0.4143 -0.0427
24482W        W40099   4.945  12.276  15.843 -0.3497  0.2771 -0.3632
24483W        W40100   9.659  15.539  13.715 -0.1722  0.4611  0.1318
24484W        W40101  10.319  17.261   4.070  0.1622  0.0336  0.3161
24485W        W40102   0.323   6.135  16.243 -0.0833  0.5106 -0.0778
24486W        W40103   4.641  15.955   2.498  0.0496  0.3100  0.0845
24487W        W40104   8.714  17.315   5.040  0.2730  0.1868  0.1463
24488W        W40105  14.775   9.881   2.645  0.0072  0.3182 -0.1929
24489W        W40106   3.102   7.410  15.282  0.0056  0.0370  0.1001
24490W        W40107  15.344   0.888  13.050 -0.0883  0.2308 -0.1664
24491W        W40108  18.025   1.215  14.687  0.0766 -0.0522 -0.0541
24492W        W40109  14.772   7.734   4.755  0.1264  0.0207 -0.1417
24493W        W40110  10.681   9.178  12.365  0.0474  0.3887  0.2229
24494W        W40111  16.141   3.365   1.738  0.1090  0.0762  0.1247
24495W        W40112  12.808  12.667  14.044  0.0650  0.0560 -0.0337
24496W        W40113   2.244   2.565  16.057 -0.2535  0.1127  0.0461
24497W        W40114   0.376   7.231  11.748 -0.1394  0.1530 -0.2950
24498W        W40115  14.465   1.974   1.053  0.0605 -0.0204  0.0535
24499W        W40116  12.294   0.625   2.140  0.2635 -0.0705 -0.2720
24500W        W40117  18.001   8.967  13.338 -0.0620  0.0379 -0.2192
24501W        W40118  15.650  12.160  13.670 -0.2486 -0.1731 -0.1857
24502W        W40119   7.253   9.265   2.539  0.0849  0.0781 -0.0732
24503W        W40120   2.863  15.953  13.348  0.2350  0.0774  0.0187
24504W        W40121  12.620  11.243  12.720 -0.0406 -0.0343  0.1482
24505W        W40122  14.472  17.046   3.348  0.0520 -0.1591 -0.1874
24506W        W40123   9.507  14.693  11.951 -0.1565 -0.0261  0.0778
24507W        W40124   3.815  13.144   2.088 -0.0741 -0.0014 -0.2752
24508W        W40125   6.651   5.978   1.297  0.3839  0.1716 -0.0709
24509W        W40126   0.027  10.230   5.124  0.3382  0.2711 -0.3564
24510W        W40127   3.331   2.380  12.121 -0.0132 -0.0916 -0.2259
24511W        W40128  10.108   2.610  11.709 -0.0135  0.3623  0.1161
24512W        W40129   8.349  11.924   3.070  0.2868  0.0883  0.2031
24513W        W40130  14.679  13.721  14.995 -0.3067 -0.0529 -0.4252
24514W        W40131   7.843   9.785   2.088 -0.0783 -0.0237  0.1617
24515W        W40132   7.252  12.119   2.822 -0.0465  0.0871 -0.4113
24516W        W40133  12.512  13.651  14.412  0.0264  0.1102 -0.0664
24517W        W40134   1.591   6.179   2.690  0.0715 -0.0959 -0.1785
24518W        W40135  10.055   8.596  16.433  0.2715  0.0807  0.2064
24519W        W40136   7.609   9.418  11.701  0.0214 -0.1170 -0.1438
24520W        W40137   0.347  12.333   1.724 -0.2298 -0.0705 -0.0722
24521W        W40138   2.615  17.512   1.140 -0.0757 -0.3228  0.2628
24522W        W40139   9.756   1.025   0.071 -0.0102  0.1695  0.0345
24523W        W40140   7.842   0.173  15.485 -0.2100  0.1215  0.1226
24524W        W40141   8.072  17.783  13.454  0.1540 -0.0233 -0.2278
24525W        W40142  10.820   0.161  15.226 -0.0540 -0.0603 -0.2665
24526W        W40143   1.231  15.753   4.044  0.0400  0.2347 -0.5841
24527W        W40144   0.696   7.734   5.924 -0.1883  0.0056  0.0658
24528W        W40145  13.507  14.027  14.841  0.0532  0.0229  0.0039
24529W        W40146   9.100  10.252   4.033 -0.1236 -0.0464 -0.0564
24530W        W40147  12.778   8.651   4.312  0.3426 -0.2916 -0.2634
24531W        W40148  15.287   8.695   5.796 -0.1633  0.1012  0.0809
24532W        W40149  17.102  12.923  11.806  0.0896 -0.0992 -0.3265
24533W        W40150  18.022  17.284   6.688  0.6139 -0.0705 -0.2183
24534W        W40151   1.728  13.425  11.615  0.0828  0.2338 -0.0273
24535W        W40152   7.383   5.573   4.413  0.3206 -0.0524 -0.2720
24536W        W40153   0.996  12.270  16.779  0.1222 -0.1476  0.2230
24537W        W40154  16.932   2.915  12.876 -0.0346 -0.0459  0.0756
24538W        W40155   0.436   1.550   2.089 -0.3814 -0.0411 -0.2652
24539W        W40156   6.487  11.055  12.168  0.0833 -0.0975 -0.0014
24540W        W40157   9.082   7.158  13.058  0.2575  0.2930 -0.0287
24541W        W40158   1.498  16.443   3.319  0.3130 -0.0454  0.0585
24542W        W40159   5.799  16.026   3.686 -0.1650 -0.2212  0.1910
24543W        W40160  17.432  15.942  12.024  0.1752  0.3854  0.0907
24544W        W40161  11.136  17.926  14.012 -0.0101  0.3386  0.3692
24545W        W40162   1.232   7.679  15.449  0.1738  0.0627 -0.0540
24546W        W40163  10.551   7.513   3.085  0.1670  0.2071 -0.2372
24547W        W40164   6.491  11.121   1.196 -0.0257 -0.0428 -0.5340
24548W        W40165   6.530  16.989  14.611 -0.0309  0.4764  0.0088
24549W        W40166   7.223   6.627  13.793  0.0912  0.0738 -0.1546
24550W        W40167   2.576   5.727   1.133 -0.0844  0.1289 -0.1448
24551W        W40168  14.947  17.027  13.522  0.0157 -0.0572  0.2000
24552W        W40169  18.047   5.835   2.422 -0.2505 -0.1701 -0.0941
24553W        W40170   4.236  11.584  13.918 -0.4239 -0.1061 -0.2756
24554W        W40171  12.787   9.948   0.616 -0.1368 -0.2398 -0.1528
24555W        W40172   5.311   0.674  11.142 -0.0781  0.3140 -0.1916
24556W        W40173   3.458   9.661  11.311  0.1961  0.1473 -0.2076
24557W        W40174  15.910  14.026   3.485  0.3411  0.1358 -0.2389
24558W        W40175  13.039  13.466  13.811 -0.0235 -0.3494  0.0379
24559W        W40176  16.448  11.171  13.880  0.3211 -0.1476  0.0648
24560W        W40177   1.651  15.777   0.337  0.1354  0.1283  0.1462
24561W        W40178  17.203  13.789   1.949 -0.0962 -0.1148  0.2538
24562W        W40179   5.085  15.490   3.187 -0.0513 -0.0085 -0.0005
24563W        W40180  14.815   0.013   2.905 -0.2447 -0.2731  0.0193
24564W        W40181   0.412  11.276   1.224 -0.2257  0.0577  0.3059
24565W        W40182  14.584   5.426  13.279  0.0610 -0.1505 -0.2191
24566W        W40183   0.447   2.753   4.548  0.2240 -0.0621 -0.2064
24567W        W40184  11.394  17.178  16.768  0.1983 -0.0719 -0.0169
24568W        W40185   2.412   7.408   1.265 -0.0600  0.0767  0.0931
24569W        W40186   7.777   2.838   3.070  0.0776 -0.3482  0.2743
24570W        W40187   9.449  16.066  14.439 -0.0213 -0.2166  0.0682
24571W        W40188   9.164   6.682   5.023  0.0392 -0.3338 -0.3508
24572W        W40189   9.675   4.490  16.356  0.0693  0.2277 -0.0263
24573W        W40190   9.703   9.809  16.316 -0.0526 -0.1642  0.0516
24574W        W40191   4.742   1.311  12.426  0.0692  0.0277  0.0937
24575W        W40192  13.574  11.980  14.176  0.2888 -0.0947 -0.0135
24576W        W40193   8.453   2.938  16.359 -0.2762 -0.0234 -0.0126
24577W        W40194  17.764   6.205  14.482 -0.3256 -0.1122  0.1924
24578W        W40195   3.822  15.330   0.630 -0.0726 -0.0926 -0.3538
24579W        W40196  15.364  13.150   4.060  0.1212 -0.0467 -0.0689
24580W        W40197  16.064  15.944   1.728 -0.0427 -0.3964  0.1504
24581W        W40198  12.515  10.832  11.574  0.4091 -0.2575  0.2486
24582W        W40199  10.254   5.571   3.908  0.1201  0.0140  0.0227
24583W        W40200  10.946  10.057   2.838  0.1061  0.0821 -0.2828
24584W        W40201  10.784   5.022   1.249  0.2351  0.2840 -0.1573
24585W        W40202   7.018   6.666   2.791  0.1349  0.1596  0.2110
24586W        W40203   7.274  17.995  14.993  0.2388 -0.1844 -0.0089
24587W        W40204  15.764   6.092  14.040  0.1732  0.1972  0.0736
24588W        W40205  11.967   9.723  14.729  0.0950 -0.0399  0.1129
24589W        W40206   0.791   0.544   4.255  0.0333  0.1781  0.0064
24590W        W40207  17.263   9.756  13.701  0.3156 -0.1420 -0.2881
24591W        W40208  16.858   1.621   4.835 -0.0197 -0.0833  0.3261
24592W        W40209   1.676  15.559   4.264  0.4936  0.0233  0.0149
24593W        W40210   5.079   3.261  16.631 -0.0483  0.0975  0.0323
24594W        W40211  12.318   3.595   3.704  0.0989 -0.1899  0.2505
24595W        W40212   4.678   3.017   0.955  0.2662  0.1664 -0.3128
24596W        W40213  10.871  11.156  11.144 -0.0687  0.3402 -0.1194
24597W        W40214   4.028  12.098  12.646 -0.3832 -0.0880 -0.0953
24598W        W40215  15.166  14.916   3.537  0.0582  0.1287  0.4010
24599W        W40216   8.076  12.246   3.774  0.1233 -0.1549  0.3017
24600W        W40217  13.690  16.650  12.653  0.0065  0.1379 -0.0883
24601W        W40218  11.341  10.690   2.830  0.0393  0.0749  0.1614
24602W        W40219   6.628  11.501  15.478  0.1264  0.5912 -0.2028
24603W        W40220  10.594  14.852   3.175 -0.0793  0.1301 -0.3672
24604W        W40221  15.354   5.225  16.448 -0.0682  0.0179  0.0425
24605W        W40222   4.627  10.540   4.121  0.0333  0.0455 -0.0367
24606W        W40223   1.573   4.352   2.004  0.4825 -0.0641 -0.0761
24607W        W40224   1.831  16.987   6.342 -0.2613 -0.0884 -0.3069
24608W        W40225   2.556   8.819   4.360 -0.0074  0.2227 -0.2484
24609W        W40226   2.028   7.534   0.553  0.1244 -0.0632  0.1548
24610W        W40227  13.365   7.698  13.118 -0.0483 -0.2294  0.2822
24611W        W40228   1.073   2.420  16.779  0.1372 -0.3213 -0.4759
24612W        W40229  10.481  16.790   0.109  0.0332  0.2140  0.1845
24613W        W40230   7.581   1.984  11.911 -0.0162  0.0734 -0.5226
24614W        W40231   3.646   3.888  13.324 -0.0046  0.1871 -0.2996
24615W        W40232  18.021   3.253  13.535  0.3201  0.0621  0.0393
24616W        W40233   3.653  17.483  16.451 -0.2236  0.2483  0.0058
24617W        W40234  16.037  15.452  11.976 -0.1746  0.0334  0.0159
24618W        W40235   6.358   4.400   5.685  0.0222  0.1680 -0.0667
24619W        W40236   4.073  12.151   3.270  0.2867  0.0268  0.0552
24620W        W40237   2.906  12.330   1.477 -0.2811  0.0168 -0.0514
24621W        W40238   4.819  12.187  12.777 -0.1833  0.3719  0.1915
24622W        W40239  17.002   4.608  14.501  0.4036  0.2197  0.3695
24623W        W40240   7.367   2.415  11.540 -0.0316 -0.1848  0.1052
24624W        W40241  17.281   8.665  16.459  0.1027 -0.0462  0.2857
24625W        W40242   0.921   1.567  14.217 -0.1639 -0.0136  0.0042
24626W        W40243   4.573   9.793   3.735  0.0347 -0.2034 -0.0415
24627W        W40244   8.216  15.197   0.928  0.0983 -0.3386  0.1242
24628W        W40245   3.586  15.766   4.751 -0.0222  0.1143 -0.1338
24629W        W40246   5.581  17.796  15.835  0.2821 -0.2118 -0.1488
24630W        W40247   3.097  17.614   5.056  0.2291 -0.5155  0.1448
24631W        W40248  17.678  16.175   4.393  0.8267 -0.0343  0.0335
24632W        W40249   2.279   1.188  16.344 -0.1187  0.2349 -0.2241
24633W        W40250   3.738   0.546   4.155  0.0910 -0.1605  0.0786
24634W        W40251  15.096   2.958   1.742 -0.0266  0.1493  0.3149
24635W        W40252  15.018   9.581   1.097 -0.4031 -0.1395 -0.1794
24636W        W40253   3.356   0.060   0.122  0.4326 -0.1007 -0.0366
24637W        W40254  10.430  12.160  16.451  0.2479 -0.0184  0.5412
24638W        W40255  16.664   5.487   2.160  0.2010 -0.2902  0.2822
24639W        W40256  17.460   0.294   3.966  0.3753  0.2351  0.1488
24640W        W40257   2.977  17.874   3.051 -0.1994  0.0526 -0.2757
24641W        W40258   5.586  12.419  16.698 -0.2237  0.0842  0.1789
24642W        W40259   3.728   0.796  13.094  0.2498 -0.0735  0.0710
24643W        W40260   6.715  12.591   2.551  0.1456  0.0375 -0.0823
24644W        W40261  16.167   5.370  13.806  0.1126 -0.1741  0.4241
24645W        W40262  13.541   9.229   0.413  0.0014  0.3499 -0.3549
24646W        W40263  14.730   6.066   1.540  0.2660  0.0089  0.1072
24647W        W40264   5.048  13.759  12.973 -0.3031 -0.3400  0.1263
24648W        W40265   2.287   0.191   4.007 -0.0064 -0.1214  0.0592
24649W        W40266   6.625   0.660   2.671 -0.1714 -0.4291 -0.1109
24650W        W40267   7.391   1.594  11.680  0.1108 -0.0606  0.0307
24651W        W40268  14.129   5.011   1.932  0.1453 -0.2967  0.3906
24652W        W40269  17.571   9.637  15.218 -0.0167  0.0668 -0.4185
24653W        W40270   6.768  11.155  13.872  0.2054 -0.1027 -0.1487
24654W        W40271  13.265   8.383   1.525  0.0546 -0.1645  0.5697
24655W        W40272  12.946   3.464   2.572 -0.0357 -0.0001  0.2257
24656W        W40273  12.535  15.100   1.036 -0.1548  0.2534  0.0625
24657W        W40274  13.593  15.803  14.325 -0.3128 -0.4574  0.0298
24658W        W40275  13.994   4.369   3.070  0.5365  0.1025  0.0914
24659W        W40276  16.745  13.817   5.413 -0.1909  0.4024  0.1588
24660W        W40277  14.435  10.536  16.493 -0.3053  0.0602 -0.3745
24661W        W40278   4.007  16.844   5.370  0.0026  0.2165  0.2566
24662W        W40279   2.962   8.339   0.798  0.0744  0.2347  0.1673
24663W        W40280   2.334  16.848   5.197  0.0323 -0.1980 -0.3745
24664W        W40281   5.573  16.341   5.632 -0.2235 -0.1904  0.2761
24665W        W40282  14.735  15.246  16.755  0.1272 -0.0021  0.1746
24666W        W40283   1.552   1.151   1.784  0.1307 -0.3589 -0.1152
24667W        W40284   6.100   2.587  12.281  0.0530  0.1544 -0.1343
24668W        W40285   9.065   1.560  15.117 -0.1343 -0.1782  0.1999
24669W        W40286  13.208  11.493   2.843 -0.2330  0.1440 -0.2474
24670W        W40287   5.529   5.034   3.873  0.1741 -0.3375 -0.1718
24671W        W40288   5.813   7.319   3.583 -0.0781 -0.1138  0.1591
24672W        W40289   3.918   1.367   3.573  0.0113 -0.0676  0.2716
24673W        W40290   3.389   4.278  12.516  0.1334  0.2289  0.2530
24674W        W40291   7.363  13.758   3.182  0.0981  0.2377 -0.0709
24675W        W40292  11.523  14.998   5.610 -0.1104 -0.1026  0.1737
24676W        W40293   0.330   1.065   0.298 -0.0798  0.4144 -0.3049
24677W        W40294   3.898   0.214   0.300 -0.0665  0.2838 -0.3078
24678W        W40295   4.493   3.629  12.736  0.1605 -0.1061 -0.0944
24679W        W40296   5.771   8.739   4.740 -0.0600 -0.3382 -0.1214
24680W        W40297   7.508   7.433  14.468 -0.0339  0.1527 -0.2073
24681W        W40298   8.870   9.088   5.697 -0.1985 -0.0160  0.1963
24682W        W40299  17.626  12.046   4.353  0.1109  0.2343  0.1468
24683W        W40300  13.054  14.913   3.675 -0.1293  0.0884  0.3676
24684W        W40301   3.073   2.707   1.590 -0.1533  0.0925  0.1132
24685W        W40302   0.058  14.484   5.537  0.0933 -0.0995 -0.0714
24686W        W40303  10.738  11.899  11.716  0.2149 -0.1676  0.1696
24687W        W40304   1.984   8.174   5.161 -0.1445 -0.0981 -0.0734
24688W        W40305   4.413   7.796   4.318  0.4462  0.2287 -0.0059
24689W        W40306   9.993   6.029   3.846  0.1561 -0.1195  0.0352
24690W        W40307  10.893  11.916   2.759 -0.3468 -0.1584 -0.2701
24691W        W40308  15.509  16.050   0.252 -0.1215 -0.0998 -0.1604
24692W        W40309   9.519  10.482   5.336  0.1467 -0.2373  0.3350
24693W        W40310  13.717   6.330   2.915 -0.1754 -0.4619 -0.1614
24694W        W40311   3.460   3.231   1.641  0.0549 -0.3185  0.0120
24695W        W40312   9.343  17.028  11.685 -0.1139  0.0451 -0.0042
24696W        W40313  17.746  11.150  10.981 -0.0495  0.2462  0.0552
24697W        W40314  14.400   1.436   0.950  0.0463 -0.1704  0.1376
24698W        W40315   8.573   9.263  11.899 -0.0127 -0.3305  0.0016
24699W        W40316   2.108  11.126  13.347  0.0038 -0.0720 -0.2208
24700W        W40317   5.300   4.522  16.761 -0.0186 -0.0903 -0.1472
24701W        W40318  12.951  13.580   2.098  0.2086 -0.0767  0.0661
24702W        W40319   2.586   9.675  13.877 -0.2256  0.1347  0.0887
24703W        W40320  14.381   4.614   4.353  0.0307 -0.2346 -0.2196
24704W        W40321  11.701   9.832  13.410 -0.0079  0.1375 -0.2928
24705W        W40322  16.990   7.281  13.040  0.0411 -0.0201 -0.3493
24706W        W40323  15.215  17.212   3.683  0.0720 -0.1066  0.1150
24707W        W40324   1.460   4.358   2.554 -0.0404 -0.0346  0.1889
24708W        W40325  11.371   5.389   2.663 -0.0674  0.0178  0.0486
24709W        W40326  14.761   7.582   2.727  0.3863 -0.0282  0.1899
24710W        W40327   3.190   6.984  14.211  0.1951 -0.3042 -0.2213
24711W        W40328   9.991   3.062  16.553 -0.1421 -0.4237 -0.1765
24712W        W40329  14.200   1.431   5.012  0.1575 -0.0549  0.1662
24713W        W40330  17.717  15.663  15.621  0.1432  0.2918 -0.1493
24714W        W40331  15.001   8.650   3.831 -0.0990  0.2658  0.0094
24715W        W40332   0.423   3.697   1.586  0.0802  0.1293 -0.5479
24716W        W40333  11.653  16.331   2.345 -0.1085  0.2290  0.2143
24717W        W40334   9.654   6.992  14.493  0.0127 -0.1007 -0.2487
24718W        W40335   0.638  17.632  12.964 -0.0898 -0.1786 -0.3737
24719W        W40336   5.732  13.951  13.836 -0.1675 -0.3740  0.2539
24720W        W40337  15.715   4.365  16.333 -0.0809  0.3576 -0.0645
24721W        W40338   3.511   8.200   5.374  0.0514 -0.4300 -0.3864
24722W        W40339  15.813  10.495  14.373 -0.0707 -0.0130  0.1202
24723W        W40340  16.686   5.677   2.910  0.0195 -0.0512 -0.2382
24724W        W40341  12.132   2.266   1.756 -0.0785  0.0181 -0.1241
24725W        W40342   6.000   1.688   5.249 -0.1399 -0.0302 -0.0515
24726W        W40343   8.892  16.296   4.818 -0.0657  0.3595  0.1128
24727W        W40344   8.657  15.703  11.550 -0.0060 -0.0749  0.2579
24728W        W40345   0.762   6.852  16.690  0.1186 -0.2771  0.0486
24729W        W40346  16.002  14.239  12.897 -0.2498  0.0023 -0.0943
24730W        W40347  13.420  12.772   0.239  0.0300  0.3948  0.0905
24731W        W40348  17.601   0.542   1.489 -0.2226 -0.1877  0.0654
24732W        W40349  14.371   1.749   2.783 -0.0725 -0.0110 -0.0084
24733W        W40350  10.563  14.319  13.515 -0.2846  0.2278  0.1266
24734W        W40351   5.540   5.389  14.603 -0.2770 -0.3259 -0.1112
24735W        W40352   2.337  17.790  14.714 -0.0977  0.1775  0.0635
24736W        W40353   5.751  15.884   0.430 -0.1418  0.2006  0.0587
24737W        W40354   1.167   4.775   2.372 -0.0456 -0.0856  0.2060
24738W        W40355   8.169   4.582  12.927 -0.1431  0.1911  0.1873
24739W        W40356   2.676   8.276   1.799  0.0068  0.0822 -0.2220
24740W        W40357   2.873   4.891  14.735 -0.0208  0.0474  0.1678
24741W        W40358  12.014  10.318  16.589 -0.2372  0.1236  0.0438
24742W        W40359  12.723   9.505  12.258  0.1748 -0.0822 -0.1527
24743W        W40360  12.970  12.611  16.107 -0.4406 -0.2213 -0.0002
24744W        W40361  13.468  11.993  16.484 -0.1177 -0.0086 -0.3362
24745W        W40362  17.022   0.784   5.192 -0.4238 -0.1661  0.3395
24746W        W40363  16.697   9.618  13.602  0.3108  0.0638  0.1005
24747W        W40364   0.384   1.986  13.669  0.1661 -0.1938 -0.0384
24748W        W40365   8.778   1.514   3.918  0.1389 -0.2311 -0.2205
24749W        W40366   4.302   8.286  14.952  0.3097  0.0561 -0.0492
24750W        W40367   4.524   0.492   1.052 -0.0512 -0.0767  0.0865
24751W        W40368   3.205   4.433   2.423  0.1494 -0.3752 -0.0219
24752W        W40369  13.116  13.358   4.511  0.1217 -0.0502  0.1169
24753W        W40370   2.077   4.531   0.120  0.0170 -0.0930 -0.1262
24754W        W40371   7.479  16.167  13.456 -0.0201  0.1620 -0.0612
24755W        W40372   5.897  16.018   5.245  0.0050  0.2855 -0.1230
24756W        W40373  14.364   3.173   0.282  0.1307  0.1479 -0.0636
24757W        W40374   9.560  10.062   3.835  0.1252  0.0337 -0.1132
24758W        W40375  13.229  15.758  13.895  0.4801  0.1416 -0.0495
24759W        W40376  17.774  10.000   2.673  0.1385  0.0153  0.1281
24760W        W40377   0.089   3.204   1.852 -0.5627 -0.0300 -0.2041
24761W        W40378   2.213  10.698  13.162  0.1516  0.2547 -0.0782
24762W        W40379   8.906   5.717   0.640  0.1865 -0.0088  0.1333
24763W        W40380   1.822  16.928  12.126  0.2464 -0.0743  0.1312
24764W        W40381   1.023   7.967   5.560 -0.1056 -0.1560  0.1220
24765W        W40382  17.073   2.463   2.594 -0.2059  0.2886  0.2179
24766W        W40383  13.469  11.386   4.347  0.2048 -0.1858 -0.0782
24767W        W40384   6.933   3.913  14.317  0.3137 -0.0024 -0.3243
24768W        W40385  15.530   6.660   3.110  0.0658  0.0405  0.1140
24769W        W40386  16.715   3.210  13.327 -0.3639 -0.0614 -0.1042
24770W        W40387   1.685  18.009   0.276  0.1571  0.0164 -0.0905
24771W        W40388   7.809  15.649   1.290 -0.2471 -0.1561  0.2092
24772W        W40389   6.124  15.295  15.608 -0.2282  0.1818  0.2587
24773W        W40390  10.744  17.774   0.639  0.1084 -0.0218  0.1003
24774W        W40391   3.807  14.602  12.566  0.0644 -0.2697  0.0222
24775W        W40392  14.157   0.040  14.553  0.0899  0.0427  0.1006
24776W        W40393   8.759   3.909   5.545 -0.4621 -0.0735  0.2459
24777W        W40394   0.841  15.710   6.657 -0.0519  0.2113 -0.1303
24778W        W40395   9.231   0.716  12.974  0.0389  0.4049  0.1350
24779W        W40396   8.500  17.080   5.443  0.1627 -0.0405 -0.0041
24780W        W40397  18.028   3.270  16.175  0.1637 -0.2292 -0.1005
24781W        W40398  10.973   9.669   4.904 -0.2616  0.0014 -0.1076
24782W        W40399   8.079   5.094   2.732  0.1525 -0.2955 -0.3741
24783W        W40400  14.064   3.805   6.350 -0.1268 -0.0104 -0.0741
24784W        W40401   6.718   1.752  11.705 -0.0821  0.1654 -0.0576
24785W        W40402   5.651  15.631  11.220  0.0964  0.0171  0.4692
24786W        W40403   3.821  11.314  12.991  0.0628 -0.1726  0.0270
24787W        W40404  16.353   2.914   4.481  0.0126 -0.0096 -0.0927
24788W        W40405   2.055   3.843   4.384  0.2087  0.0035 -0.2512
24789W        W40406  13.746  10.689   1.804 -0.3127  0.0826 -0.0694
24790W        W40407  15.687   1.653   2.341 -0.1310 -0.2673 -0.0644
24791W        W40408   8.856   8.849  15.618 -0.0690 -0.1055  0.2362
24792W        W40409  17.760  11.579   0.887  0.0649 -0.2079 -0.0266
24793W        W40410   3.128   4.242  14.002  0.0256 -0.1891  0.0734
24794W        W40411   3.594  14.915   4.853  0.0890 -0.0356 -0.0272
24795W        W40412   2.619   7.573   4.045 -0.3156  0.3503  0.2612
24796W        W40413   0.232  11.669   2.642  0.0243  0.1231  0.0566
24797W        W40414   8.563  12.838   1.831  0.0211  0.3272 -0.0245
24798W        W40415   1.922   5.940  15.527 -0.0073  0.0546  0.1660
24799W        W40416   1.907   6.989   5.087 -0.3104 -0.0023 -0.2055
24800W        W40417   4.691   0.766   2.939  0.1741  0.2914 -0.0917
24801W        W40418  15.860   3.817  12.917  0.0894  0.0079 -0.1214
24802W        W40419   6.925   5.142  16.320 -0.4169 -0.0457 -0.4421
24803W        W40420  10.232   7.866   6.356  0.2761  0.0969 -0.1330
24804W        W40421   9.533   5.815  13.417  0.5309  0.3142  0.1935
24805W        W40422   6.166  11.695  15.321 -0.1264  0.0619 -0.1676
24806W        W40423  10.077   6.480   3.989 -0.2051 -0.1620 -0.0313
24807W        W40424   2.895  10.284   0.796  0.0822 -0.1943 -0.1071
24808W        W40425   1.219  15.837   2.519 -0.2506 -0.0233  0.0588
24809W        W40426   3.543   2.040   1.472 -0.1458  0.1158  0.3205
24810W        W40427   3.806   6.667   3.754  0.1475 -0.0731  0.1027
24811W        W40428  16.238   7.629  16.186 -0.2638 -0.0170  0.4300
24812W        W40429   5.954  14.060   4.773  0.1794  0.2596 -0.1782
24813W        W40430   4.108   4.853  16.360 -0.0692  0.2442  0.4846
24814W        W40431   2.973   5.835   0.811 -0.0026 -0.2754 -0.1126
24815W        W40432  13.819  17.877  15.627 -0.0524 -0.4063  0.1812
24816W        W40433  13.068   0.228   2.333 -0.1721  0.0161  0.0488
24817W        W40434  11.677   3.178   0.844 -0.4545 -0.1080 -0.0571
24818W        W40435  10.269   8.345   3.081 -0.5161  0.0425 -0.1125
24819W        W40436  10.752  16.630   4.827 -0.2556  0.1368  0.0636
24820W        W40437   6.705  11.830  14.358 -0.0884 -0.0861  0.1910
24821W        W40438   0.771   0.999   5.521 -0.0152  0.1061 -0.2215
24822W        W40439  11.929  12.914  16.282  0.1457 -0.2441 -0.0179
24823W        W40440  10.053  11.791  16.248  0.3078  0.2221  0.2061
24824W        W40441  15.779   1.507  12.007  0.0625 -0.0229 -0.1158
24825W        W40442   8.134   6.945   4.472 -0.0902  0.0600 -0.1348
24826W        W40443  12.390   3.652   2.037 -0.1027  0.0775 -0.0062
24827W        W40444   7.458  13.723   1.271 -0.1017  0.3224 -0.2733
24828W        W40445   3.356   9.001   2.158  0.1341  0.1844  0.0812
24829W        W40446  10.486   6.232  16.717  0.4097 -0.3514 -0.1338
24830W        W40447   4.986   2.291  15.740  0.0377  0.1400  0.1270
24831W        W40448  17.758  12.108  11.022 -0.2357 -0.0021 -0.1845
24832W        W40449   5.804  11.651   5.190 -0.1940 -0.0349 -0.2025
24833W        W40450   0.575  15.768  12.993  0.1843 -0.0190  0.2478
24834W        W40451   9.947   0.640   5.378 -0.1901  0.1486 -0.2635
24835W        W40452   2.697  15.762  12.538 -0.0637 -0.0681 -0.0312
24836W        W40453   9.826  17.356  15.134  0.0223  0.0904 -0.2410
24837W        W40454   1.183  14.131   4.696  0.1501 -0.0023 -0.0177
24838W        W40455   0.973   5.123   4.977 -0.1690  0.1007 -0.5098
24839W        W40456  16.429   9.978  14.933 -0.1761  0.2560 -0.2221
24840W        W40457  15.162   6.080  11.939  0.1924  0.0367  0.0137
24841W        W40458   2.505  12.376   3.696 -0.0302  0.2209  0.0226
24842W        W40459  11.383  14.240  14.370 -0.0868  0.0610 -0.0208
24843W        W40460   3.387  10.598  16.346  0.2321 -0.0732  0.2382
24844W        W40461   0.270  13.790   3.129  0.0264  0.2549 -0.0000
24845W        W40462  14.932  13.593  13.608  0.0136  0.0636  0.0350
24846W        W40463   2.791  15.444  12.148  0.0155 -0.5152  0.1184
24847W        W40464   3.137  14.697  15.494  0.1407 -0.0181 -0.0462
24848W        W40465   3.929  18.019   4.809  0.1039  0.2712  0.0272
24849W        W40466   0.424  17.330  16.532 -0.0235  0.0161  0.1118
24850W        W40467  16.924   8.826  11.831  0.0335 -0.1519  0.3282
24851W        W40468  15.365   0.494  12.753  0.0539 -0.2980 -0.3563
24852W        W40469  14.897  17.461   3.973  0.0285 -0.1143  0.1748
24853W        W40470   6.029   8.470  12.828  0.0389  0.1346  0.1072
24854W        W40471  14.506  13.400   5.766 -0.2947  0.1357  0.3845
24855W        W40472   1.813  11.874  15.253 -0.0616  0.0942  0.0284
24856W        W40473   0.145   1.644  15.025 -0.1939  0.0215  0.0803
24857W        W40474  16.074  16.178   2.644  0.2539  0.0968 -0.0666
24858W        W40475   2.064   5.156  13.824 -0.1125 -0.1011  0.0877
24859W        W40476   2.046   6.534   1.421  0.0945  0.0273  0.0398
24860W        W40477   2.652   0.253  13.753  0.0406 -0.0891  0.0489
24861W        W40478  16.042  17.814  12.015 -0.3520 -0.2523 -0.0007
24862W        W40479   4.454   4.948   2.577 -0.0350  0.1134 -0.1657
24863W        W40480  15.529   0.336   2.505  0.0722  0.0149 -0.2365
24864W        W40481  16.393   5.566   1.453  0.1300  0.3653 -0.2010
24865W        W40482   9.698   5.875   4.365 -0.1022 -0.0897  0.2649
24866W        W40483   0.054   0.398   3.412 -0.0598  0.0454 -0.2120
24867W        W40484   6.775   4.172  15.243 -0.1155  0.2759  0.0192
24868W        W40485   2.987   8.463   0.301 -0.2609  0.0547  0.0118
24869W        W40486   6.344   6.498   3.905 -0.2556 -0.1909 -0.0946
24870W        W40487  17.626   0.097  16.400 -0.0752 -0.1302 -0.0041
24871W        W40488   0.120   6.967   5.915  0.0155  0.4477 -0.1676
24872W        W40489   1.780  16.752  16.548 -0.1969 -0.2364 -0.3884
24873W        W40490   1.759  15.083  13.259  0.0993 -0.0189  0.0287
24874W        W40491   6.987  16.739  14.750 -0.3238 -0.1642  0.1477
24875W        W40492   7.039  13.651   3.978  0.1742  0.0251  0.2874
24876W        W40493   0.622   6.329  12.990 -0.2433 -0.1196  0.3389
24877W        W40494  16.070   2.868   5.375  0.0215  0.0950 -0.0459
24878W        W40495  13.970   9.499   6.057 -0.2435 -0.2812  0.0958
24879W        W40496   3.739   6.976  15.483 -0.1123 -0.1098  0.2623
24880W        W40497   1.909   7.793   2.135 -0.0937 -0.0590  0.1607
24881W        W40498   6.744  15.149  14.281  0.4036  0.1086  0.2308
24882W        W40499  16.595  10.035  16.429  0.0379 -0.0462  0.0427
24883W        W40500   1.836  12.094   0.577  0.1609 -0.0898 -0.4393
24884W        W40501   6.228  17.491   5.633  0.2078  0.0321 -0.0652
24885W        W40502   1.640   3.097   0.163 -0.3432  0.3036  0.4151
24886W        W40503  13.937  17.252  13.704  0.0343  0.1824  0.0128
24887W        W40504   5.338   3.820   3.506 -0.4720 -0.2386  0.3396
24888W        W40505   7.834   3.713   3.880  0.2174 -0.0117 -0.1214
24889W        W40506   4.422   4.690  15.126  0.0675  0.2722 -0.3498
24890W        W40507   9.707   6.886   6.470 -0.2369 -0.2294  0.1384
24891W        W40508  15.773   1.517   1.162 -0.0233  0.5630  0.0641
24892W        W40509   8.810   3.596  15.466 -0.0778  0.0877 -0.1034
24893W        W40510   7.086   6.240  12.859 -0.1798  0.0445  0.0615
24894W        W40511  11.584   3.456  10.721 -0.2437  0.2477  0.1707
24895W        W40512   3.824  16.864   1.286 -0.0098  0.2902 -0.1975
24896W        W40513   4.765  14.684   2.736 -0.0858  0.0855  0.1124
24897W        W40514   8.707   6.575  10.929  0.2576  0.0564  0.0402
24898W        W40515   9.232   2.806   4.356  0.3120  0.1061 -0.0541
24899W        W40516  15.786   1.225   4.217  0.4408  0.0440  0.0960
24900W        W40517  15.123   9.081  15.634  0.1712  0.0744  0.4556
24901W        W40518  11.128   9.581  11.640 -0.0426  0.2020  0.0850
24902W        W40519  13.911   3.060   1.592  0.2485 -0.1871  0.4791
24903W        W40520  16.905   3.672  14.578  0.0078  0.0374  0.1533
24904W        W40521  16.766   8.232   0.527  0.0298 -0.2632  0.0204
24905W        W40522   7.946  11.579   0.657 -0.3211 -0.0752 -0.0651
24906W        W40523  16.643   7.344  12.626 -0.2299 -0.0230  0.0278
24907W        W40524   2.448   0.173   1.086 -0.0484 -0.0886 -0.0448
24908W        W40525  10.033   5.905   1.299 -0.0908  0.0860  0.0189
24909W        W40526  10.240   9.344  12.671 -0.1670  0.0563 -0.1651
24910W        W40527  10.654   1.047  15.821 -0.2776  0.1513 -0.1804
24911W        W40528   2.316   7.478   2.289 -0.1158  0.0624  0.0916
24912W        W40529   1.350   8.005  14.999  0.0364 -0.3392 -0.1146
24913W        W40530  11.378  13.083   4.501 -0.0579 -0.1298  0.1404
24914W        W40531   0.695   5.030  15.934  0.1898 -0.1545 -0.3535
24915W        W40532   4.569  12.983  14.871 -0.2388  0.0957 -0.1587
24916W        W40533   9.580  16.720   5.405  0.0961 -0.1848  0.1193
24917W        W40534  11.834  10.057   4.343 -0.0322 -0.0722 -0.0681
24918W        W40535  13.002   1.770   2.670  0.0927  0.0756  0.0736
24919W        W40536   9.672   0.942  10.484  0.1120 -0.0448 -0.1792
24920W        W40537   3.637   7.780   3.556 -0.0785 -0.0055 -0.1046
24921W        W40538  11.894  13.956   0.539  0.0381  0.3659 -0.1016
24922W        W40539   9.905   6.837  13.696 -0.3959 -0.1210 -0.1263
24923W        W40540   6.387   6.080   5.615 -0.1496  0.1679 -0.0406
24924W        W40541   0.420  11.382   4.570  0.0427 -0.0449 -0.0937
24925W        W40542   3.586  16.827   0.856  0.1171  0.2106 -0.2480
24926W        W40543   3.259  18.010   1.431 -0.0862  0.1685  0.1925
24927W        W40544  11.126   6.022  12.261  0.2872 -0.1937  0.4154
24928W        W40545  14.467  15.139  12.506  0.0575 -0.1403 -0.2560
24929W        W40546   6.533   5.353  15.805 -0.0862  0.2275  0.1303
24930W        W40547  13.714  12.304   5.471  0.2061  0.4430 -0.6076
24931W        W40548   0.970  14.661   3.145  0.0240 -0.0450  0.1512
24932W        W40549   9.935  11.558  14.525 -0.0262  0.3811  0.3193
24933W        W40550   1.558   3.955   4.546 -0.0208 -0.0808 -0.2391
24934W        W40551   7.098   1.622   5.298  0.2095  0.1159  0.1112
24935W        W40552   7.892  13.430  13.415  0.4478  0.1757  0.2127
24936W        W40553   7.332   6.926  16.112  0.1562 -0.3447  0.2163
24937W        W40554  13.889  11.284  15.359  0.2231 -0.0974  0.0741
24938W        W40555  12.143   0.911  13.227 -0.0072  0.1204  0.0678
24939W        W40556  17.831   0.217  14.758  0.1786  0.1781  0.0282
24940W        W40557  12.115   3.063   1.819  0.2199 -0.0008 -0.0529
24941W        W40558   9.829   1.802  13.718  0.1760  0.0351 -0.0570
24942W        W40559  17.184   9.199   4.258 -0.2019  0.1211  0.0930
24943W        W40560   8.237   5.931  13.249 -0.3110 -0.4110 -0.2578
24944W        W40561  16.264   5.344   1.923 -0.0582  0.1607 -0.2620
24945W        W40562  11.170   0.125  13.121  0.1650 -0.0901  0.3378
24946W        W40563   8.492   9.886  14.421 -0.0392 -0.1864  0.1973
24947W        W40564  14.741   3.804  14.687  0.1795  0.0643  0.2264
24948W        W40565   9.019   5.842   3.812  0.0378  0.2256  0.0537
24949W        W40566  16.069  15.180  15.946  0.2683  0.0936 -0.1125
24950W        W40567   7.035  16.443  13.514  0.2078  0.2199  0.2354
24951W        W40568   2.864   7.814   0.957  0.1361  0.1515  0.0736
24952W        W40569  11.595  16.507   1.377 -0.1653 -0.2974  0.0119
24953W        W40570   3.246  15.699  13.576  0.1345  0.0169 -0.0285
24954W        W40571   7.586  14.856   5.068 -0.3041 -0.2086  0.1502
24955W        W40572   4.095   0.917  15.081  0.0273 -0.1811 -0.0731
24956W        W40573   6.374  11.365  12.623 -0.2384  0.0788 -0.1531
24957W        W40574   7.044   9.850  12.567  0.0485 -0.3155  0.2082
24958W        W40575   4.836   5.136  15.190  0.1648  0.4276 -0.2738
24959W        W40576   7.524   0.102  15.953 -0.3436  0.3197  0.1774
24960W        W40577  17.288  16.804   5.892  0.0006  0.1379 -0.2742
24961W        W40578   0.794   5.337   4.552  0.2951  0.2788 -0.1853
24962W        W40579  12.670   9.480   0.606  0.0122  0.0237  0.2643
24963W        W40580   4.306   2.704  16.225 -0.0997 -0.0554  0.0588
24964W        W40581   6.013   4.096   1.196  0.2585  0.1328 -0.0067
24965W        W40582  11.172   6.176  15.588 -0.1345  0.0709  0.2653
24966W        W40583   1.850   3.246  11.928  0.3071  0.0988 -0.0159
24967W        W40584  13.651  11.001   5.729 -0.1189  0.0200  0.0631
24968W        W40585   6.649   0.318  11.735 -0.2397  0.3336 -0.1335
24969W        W40586  14.950  16.868  12.389  0.2686  0.0539 -0.0689
24970W        W40587   1.614   6.289   1.190 -0.2082  0.4346 -0.0756
24971W        W40588   8.892  13.891   2.567 -0.1131  0.0345  0.2406
24972W        W40589  10.941   8.794  12.311 -0.0583  0.1366  0.0696
24973W        W40590   9.003  16.286  13.201  0.1696  0.4011  0.0510
24974W        W40591  10.393   2.987   1.239 -0.0101  0.0439  0.0136
24975W        W40592  11.618   1.898   4.747 -0.2401 -0.0958  0.3087
24976W        W40593  17.146  13.155  14.534 -0.2102 -0.0367  0.1256
24977W        W40594  12.914   1.724  11.869  0.1899 -0.1479 -0.1862
24978W        W40595   0.262  10.611  16.005  0.0357  0.1196  0.0797
24979W        W40596  11.329  12.378  14.163 -0.0003 -0.0739  0.1415
24980W        W40597  10.451  16.235   4.644 -0.2188 -0.2675 -0.2746
24981W        W40598  16.266  14.681   2.353  0.3846  0.2196  0.0229
24982W        W40599   7.105  17.617  15.330  0.1486 -0.4345  0.1398
24983W        W40600  15.460  11.153  15.662  0.1103 -0.0331  0.0693
24984W        W40601   5.445   2.712  13.432  0.0709 -0.0489 -0.0777
24985W        W40602   7.303   4.800  13.183 -0.1091  0.2209 -0.1470
24986W        W40603  17.615   2.222  12.914  0.2305  0.0712 -0.0075
24987W        W40604   3.072   6.939  15.556  0.1926 -0.3296  0.0253
24988W        W40605   1.240  10.356   2.388 -0.0437 -0.0119  0.3130
24989W        W40606   3.196   7.600  14.473  0.0735 -0.1899  0.2884
24990W        W40607  10.988  16.724  13.416  0.0326  0.0142 -0.0946
24991W        W40608   1.457   4.758  11.696 -0.0220  0.1845 -0.0831
24992W        W40609   4.224  10.549   0.191  0.1530 -0.1056  0.1049
24993W        W40610  14.293   0.042   0.148 -0.0631  0.0592  0.2353
24994W        W40611  12.762   0.610  14.393 -0.0351 -0.3885  0.0159
24995W        W40612   2.754  16.124   2.988  0.1814  0.0745 -0.0866
24996W        W40613  10.656   0.221   2.234  0.0843 -0.2487  0.1047
24997W        W40614  12.217  15.481   0.940  0.1006 -0.4058  0.1782
24998W        W40615  11.350   8.230   4.143  0.1840 -0.2664 -0.0919
24999W        W40616   7.137   5.449  13.207  0.1160 -0.1338  0.2793
25000W        W40617   4.176  17.707  16.683  0.0171  0.0088 -0.0263
25001W        W40618   7.220  14.260   1.928 -0.0591  0.4616  0.2678
25002W        W40619  14.322  10.039   2.420  0.0180  0.3251  0.1106
25003W        W40620   4.064  11.764   0.350  0.0902  0.1175  0.2363
25004W        W40621  14.852  13.133  12.299 -0.0281  0.1619  0.0214
25005W        W40622  10.953   8.838  14.390  0.1101 -0.1806 -0.0489
25006W        W40623  17.212  16.356  12.948  0.1333  0.2489 -0.0981
25007W        W40624  13.142  13.696  16.160 -0.0248 -0.0571  0.2485
25008W        W40625   0.486  15.162   2.798  0.1185 -0.3496 -0.3143
25009W        W40626  17.496   9.950   5.247 -0.0318 -0.0169 -0.0682
25010W        W40627  11.644   1.370  13.594 -0.4323  0.2572  0.3163
25011W        W40628   8.716   2.493   4.073  0.0209 -0.1065  0.1753
25012W        W40629  16.379  17.177  11.976  0.0973 -0.2347 -0.0659
25013W        W40630  15.755   7.737  14.791 -0.0525  0.0060 -0.1886
25014W        W40631   8.246   4.841   2.200 -0.0833 -0.1055 -0.0821
25015W        W40632  11.351   6.956   4.426  0.0016 -0.0687 -0.2268
25016W        W40633   3.778   6.097  11.730  0.0502 -0.0884 -0.2542
25017W        W40634   9.199  13.042   1.073 -0.0009 -0.1571 -0.3185
25018W        W40635   3.641  16.927   4.960 -0.1023  0.0689 -0.3321
25019W        W40636   3.886   2.689   3.505  0.1147 -0.1144  0.4123
25020W        W40637   7.282  13.485  16.581 -0.2417  0.0933  0.2349
25021W        W40638   4.732   2.506   2.628 -0.0875 -0.0769  0.2308
25022W        W40639   8.082  14.739   5.093  0.3182  0.2418 -0.0563
25023W        W40640  14.172   9.314   4.263 -0.2226  0.1662  0.2471
25024W        W40641  16.105   6.988  14.732 -0.2377 -0.0537 -0.0947
25025W        W40642   2.859  17.126  12.697  0.0705 -0.4464  0.3009
25026W        W40643  10.481   4.047  13.054  0.0909  0.2335  0.1248
25027W        W40644  12.291  11.926  13.258 -0.3235  0.0630 -0.1299
25028W        W40645  13.798   6.073   0.060 -0.1996  0.2713 -0.1504
25029W        W40646   6.848   0.500  15.157 -0.1131 -0.4645 -0.3509
25030W        W40647   1.879  12.291  13.429 -0.2940 -0.0430 -0.0375
25031W        W40648   6.842  11.795  10.647 -0.0932  0.0122 -0.0227
25032W        W40649  17.628   5.980  12.690 -0.1977  0.2189  0.1208
25033W        W40650  17.669   8.251   5.694 -0.2221 -0.0410  0.0503
25034W        W40651   5.581   1.450   3.761 -0.3057  0.3521 -0.0450
25035W        W40652   2.241  15.541   0.937  0.1775 -0.1764 -0.1529
25036W        W40653   6.104   5.441   3.115  0.2565  0.0223 -0.0223
25037W        W40654   0.690   7.972  14.072 -0.0280 -0.0944  0.1279
25038W        W40655   1.683  12.443  16.114 -0.2696  0.0563 -0.4554
25039W        W40656   1.765  15.055   1.577  0.0026 -0.1777  0.3156
25040W        W40657  10.780  11.217   2.413 -0.1190  0.2592  0.0585
25041W        W40658   1.401   8.747   4.792 -0.0234 -0.0410  0.3133
25042W        W40659  16.457  16.880   3.394  0.3040  0.2827 -0.0295
25043W        W40660  17.482   1.020   5.243 -0.2300  0.2846  0.1934
25044W        W40661  12.165   3.121   0.707  0.1740  0.0885 -0.1696
25045W        W40662  13.705   9.755  16.520 -0.0862 -0.2892 -0.3447
25046W        W40663  13.040  11.697   4.207 -0.1540  0.4118 -0.3497
25047W        W40664   8.332   7.945  14.124 -0.1714  0.1553  0.1056
25048W        W40665  17.157  14.274   5.515 -0.1254  0.2513  0.1606
25049W        W40666   9.779   2.189  15.414 -0.1649  0.1129 -0.5502
25050W        W40667   2.750   8.302   4.877  0.2844  0.1558  0.4687
25051W        W40668   7.832   2.801  13.641  0.1056  0.0180 -0.0719
25052W        W40669   6.351   0.682  14.197  0.0116  0.2669 -0.0449
25053W        W40670   7.863   0.548   3.293  0.2996  0.1473  0.0133
25054W        W40671  11.179  11.039  12.539  0.3696  0.0248 -0.1721
25055W        W40672   0.629  11.907   1.704  0.4176  0.1935 -0.0676
25056W        W40673  14.216   6.565  16.251 -0.3600 -0.0711  0.3701
25057W        W40674   4.613  17.698  14.587  0.2191 -0.0063 -0.2044
25058W        W40675   9.448   9.429  15.457  0.1426 -0.4795  0.0846
25059W        W40676   8.625   0.329   0.125 -0.2089  0.1354  0.0763
25060W        W40677  11.761  17.818  11.811  0.0553  0.1284 -0.2716
25061W        W40678   6.955   9.454   4.628  0.2054  0.0042 -0.1291
25062W        W40679  16.505  10.822   2.539 -0.3592 -0.1590  0.3580
25063W        W40680  15.261  13.585  16.156 -0.0656  0.0138 -0.0162
25064W        W40681   2.332   2.421  13.455 -0.1182  0.0307  0.3185
25065W        W40682  10.880   7.722   2.575  0.1680  0.1336 -0.1793
25066W        W40683   3.716   4.465  14.082 -0.0934  0.1582 -0.0146
25067W        W40684   6.906  13.629   2.927 -0.0969 -0.3286  0.0530
25068W        W40685   1.270   9.002   4.389  0.3724  0.1801 -0.0018
25069W        W40686  11.099  14.175   3.778  0.0014 -0.1616  0.1829
25070W        W40687  17.681   2.002  15.107  0.0905 -0.1974  0.1422
25071W        W40688   1.726   8.586  11.868 -0.1167 -0.0292 -0.1284
25072W        W40689  13.168  15.749   1.272  0.0779 -0.2368 -0.1570
25073W        W40690   1.231  12.647  14.157 -0.2516 -0.1692 -0.2950
25074W        W40691   7.240  11.534   3.689  0.0929 -0.0709  0.1745
25075W        W40692   1.224   8.663   1.240 -0.0361  0.1865  0.0871
25076W        W40693   0.999   7.455   4.999 -0.0483 -0.0157 -0.0058
25077W        W40694  17.725   0.526   0.261  0.0959 -0.1539  0.0048
25078W        W40695   4.092  15.599  14.062  0.3543  0.4678  0.0202
25079W        W40696  11.239   5.173   5.100 -0.0287 -0.0287 -0.1109
25080W        W40697  10.880  11.924  12.216 -0.3268  0.3580  0.5120
25081W        W40698   0.121  10.699   0.745 -0.2224 -0.1169 -0.0290
25082W        W40699   3.629   7.196   3.805  0.0701  0.1371  0.0963
25083W        W40700  12.354   9.668   0.252 -0.0068  0.2918  0.0006
25084W        W40701   6.163  16.536   0.019  0.0798  0.0852 -0.1382
25085W        W40702  13.602   2.797  12.139  0.0085  0.1181  0.2774
25086W        W40703   6.294   2.152   3.590 -0.0298  0.3223  0.2450
25087W        W40704   0.336  17.167  13.076 -0.1112  0.0371  0.0804
25088W        W40705   9.643  11.610   2.239 -0.0204 -0.0172  0.2884
25089W        W40706  16.262  10.747   3.191 -0.0008  0.0890 -0.0699
25090W        W40707  12.266  13.181   2.610  0.0890  0.1211  0.1163
25091W        W40708  17.623   1.456   5.423 -0.2404  0.2346  0.0314
25092W        W40709   5.745   4.081  13.436  0.1913 -0.0307  0.0770
25093W        W40710  10.513   5.460   1.302 -0.0179 -0.0879  0.0443
25094W        W40711   8.496  17.932  14.059 -0.2663  0.0421 -0.0791
25095W        W40712  17.391  11.380   0.604 -0.0854  0.0607  0.1467
25096W        W40713   5.978   6.626   4.373 -0.3562 -0.0265  0.2154
25097W        W40714  14.679  12.771  11.511  0.1246  0.1314 -0.3297
25098W        W40715  10.048  16.938   3.390  0.1441 -0.0105  0.0270
25099W        W40716   8.654   2.257  15.751 -0.1515  0.0299 -0.1460
25100W        W40717   7.985  13.842   2.978 -0.1858  0.0026 -0.1482
25101W        W40718  12.089  16.926  12.094 -0.0900 -0.3040  0.0713
25102W        W40719  11.682  13.872   4.595 -0.4240 -0.0090  0.2293
25103W        W40720  11.818   5.536   2.724 -0.2039  0.0856  0.0757
25104W        W40721  13.169   8.318   3.487 -0.2540 -0.0592  0.0120
25105W        W40722  16.040  10.131   0.534 -0.0472 -0.3087  0.2777
25106W        W40723   7.280  16.910  13.973  0.0106 -0.0599  0.0066
25107W        W40724   0.100  16.019   5.380 -0.0283 -0.0489 -0.1406
25108W        W40725   5.184   8.936   1.181  0.2584  0.1048 -0.0624
25109W        W40726   7.121   9.964  13.892 -0.0449  0.0802  0.0463
25110W        W40727  15.740   0.376  14.004 -0.1833 -0.0455  0.3824
25111W        W40728  17.420   8.197  12.958  0.3850 -0.1321  0.1680
25112W        W40729   4.824   1.229   1.631 -0.0593  0.0498 -0.1440
25113W        W40730  16.881   2.606  15.696 -0.0799 -0.0794 -0.3112
25114W        W40731   2.086   1.253   0.364 -0.3961  0.4251  0.2220
25115W        W40732   4.194   4.805  14.125  0.1058  0.2070 -0.0962
25116W        W40733   4.014   1.354  14.795 -0.0641  0.0131 -0.2252
25117W        W40734   6.930  11.435  13.523  0.1451  0.1626  0.0640
25118W        W40735   4.529  13.365   4.225  0.1612  0.2141  0.0830
25119W        W40736   8.972   7.434  12.573  0.0560  0.3132 -0.1144
25120W        W40737   8.992   7.620   3.589 -0.0652 -0.3163 -0.0709
25121W        W40738   8.540   0.652  12.529 -0.0559  0.0403  0.0388
25122W        W40739  10.204   9.897   1.821  0.0948 -0.0344 -0.1047
25123W        W40740  18.027  17.829  14.600  0.3171 -0.1095  0.3475
25124W        W40741   2.923  13.099  15.245 -0.1101 -0.0693 -0.2126
25125W        W40742  12.480   0.581   1.183  0.1998 -0.2187  0.0111
25126W        W40743  12.439  14.146   2.789 -0.1779 -0.0709 -0.0215
25127W        W40744  13.149  13.806  12.712 -0.2270 -0.0787  0.1231
25128W        W40745   2.107   6.142   2.712 -0.2483 -0.0554 -0.3100
25129W        W40746  17.542   1.173   3.763  0.0295  0.0324  0.2035
25130W        W40747   6.181  11.505   2.994  0.0978  0.4396  0.0609
25131W        W40748  17.552  12.003   6.165 -0.0914  0.1212  0.0170
25132W        W40749   9.118   7.404  15.567 -0.2609 -0.0923 -0.1231
25133W        W40750   8.091   0.871  11.572 -0.5228  0.0194 -0.1125
25134W        W40751   5.050  12.480  12.415  0.3837 -0.2935  0.0102
25135W        W40752   6.901  14.460  13.886 -0.2009  0.2984 -0.1757
25136W        W40753  15.047   3.330   1.154 -0.1774  0.1323 -0.1252
25137W        W40754  13.186  11.540  14.458 -0.0170 -0.0069 -0.0260
25138W        W40755  11.629  15.414   5.879  0.3607  0.0057 -0.3551
25139W        W40756  11.893  11.549  13.886 -0.0790  0.2895  0.1552
25140W        W40757   4.527   2.602   0.119 -0.2133  0.1601  0.0509
25141W        W40758   2.463  11.413   3.392  0.0680  0.0342  0.3310
25142W        W40759   9.311   8.394   2.298  0.1019  0.0805  0.2368
25143W        W40760   7.844   8.102   3.978  0.3664 -0.4336  0.1465
25144W        W40761   3.852   5.586   2.257 -0.0805 -0.0390 -0.0319
25145W        W40762   2.961  15.931   2.533 -0.0731 -0.0610 -0.2463
25146W        W40763   5.011   5.976   2.841  0.0888 -0.0427  0.1544
25147W        W40764  14.394   6.567  13.847 -0.1114 -0.3149  0.1227
25148W        W40765  11.333   7.659   5.892  0.0691 -0.1110 -0.2391
25149W        W40766  12.616  15.637   0.136  0.1492  0.0461  0.2586
25150W        W40767  15.722   4.008   0.628 -0.2406 -0.0867  0.1162
25151W        W40768  13.869  10.385   2.282  0.1382  0.0988 -0.2358
25152W        W40769  10.281   1.685   0.997 -0.2483 -0.0593  0.2889
25153W        W40770   6.126  14.862   0.545  0.0699 -0.0779 -0.2161
25154W        W40771   8.007   6.843   4.950 -0.0604 -0.1423  0.1127
25155W        W40772  11.921   8.900  16.557 -0.4644 -0.0844  0.1782
25156W        W40773  14.939  16.232   0.476  0.3135  0.1032 -0.0009
25157W        W40774  17.711   9.738  12.829  0.0249  0.0143 -0.2141
25158W        W40775  17.430  13.063  11.368 -0.1365 -0.0051  0.2799
25159W        W40776   0.967  14.781   0.741  0.2386  0.0097 -0.0499
25160W        W40777   1.429   6.294   3.171 -0.0931  0.1188  0.1781
25161W        W40778   3.624  14.243   4.635  0.1009  0.2757 -0.1989
25162W        W40779   2.408   7.256   5.223  0.3098 -0.1289  0.1807
25163W        W40780   6.277   8.728   1.982 -0.0661 -0.2126 -0.1346
25164W        W40781   7.835   3.748   0.774  0.1671  0.0034 -0.0655
25165W        W40782   9.707   1.015   5.200  0.0043 -0.1012  0.2208
25166W        W40783  16.942   1.031   1.728  0.1200 -0.1069  0.0179
25167W        W40784  13.710  11.611  14.527 -0.0203 -0.0851 -0.2732
25168W        W40785   2.285   5.908   3.668  0.3675  0.1500 -0.2556
25169W        W40786  14.792   0.377  11.780 -0.2662 -0.0205  0.0034
25170W        W40787   4.209  12.274  12.157  0.5317  0.0601  0.1131
25171W        W40788   8.502   8.957   4.255 -0.1110  0.0926 -0.2713
25172W        W40789   0.907   3.527  12.984 -0.0101  0.2196  0.2821
25173W        W40790  17.266   2.353  13.534  0.3107 -0.1888  0.0054
25174W        W40791  14.522   5.238  15.893  0.0363 -0.0553  0.1859
25175W        W40792  11.375  16.371   4.320 -0.1128  0.2100 -0.2178
25176W        W40793   8.000   8.847  14.839  0.1196  0.1651  0.2201
25177W        W40794  14.989  17.210   4.800 -0.5415 -0.1090 -0.1117
25178W        W40795  17.579  12.235  12.678  0.1073  0.0021 -0.2596
25179W        W40796   4.782   0.113  14.423 -0.1523  0.0220  0.1068
25180W        W40797   5.635   1.980   5.353  0.2334 -0.0431 -0.2960
25181W        W40798   4.248   3.689   2.547  0.2426 -0.2781  0.0353
25182W        W40799   0.396  13.288  14.305 -0.0734  0.1346 -0.0697
25183W        W40800  13.480   9.410   2.539  0.4327  0.1925 -0.0406
25184W        W40801   7.038  13.130  15.716 -0.2284  0.1695 -0.2607
25185W        W40802  14.850   3.400  12.719  0.3121 -0.1643  0.1030
25186W        W40803   4.760   0.192   5.180  0.2791 -0.4107 -0.1792
25187W        W40804   6.667  17.190  16.588  0.0347  0.0104  0.3041
25188W        W40805  17.716  10.911   5.037  0.1083 -0.2157  0.1044
25189W        W40806  11.469  11.553  11.899 -0.1744 -0.2681 -0.0492
25190W        W40807  13.079  12.608  11.569  0.0537  0.2218  0.0281
25191W        W40808   7.414  17.560  16.165  0.0352 -0.0313  0.0743
25192W        W40809  12.299   6.090   2.743  0.0653  0.2775 -0.0809
25193W        W40810   0.819  16.181   4.528 -0.1528 -0.4535 -0.2797
25194W        W40811  13.516  11.044   3.403  0.0344 -0.1492  0.1753
25195W        W40812  14.370   5.218   4.898  0.1652  0.0908 -0.0376
25196W        W40813   2.753   2.064   2.187 -0.1727  0.0256 -0.0136
25197W        W40814   6.611  17.735   5.220 -0.1419 -0.0514  0.2359
25198W        W40815  13.385   8.088   1.916 -0.2997  0.0423  0.1353
25199W        W40816   6.824  15.339  13.833  0.0824  0.0022 -0.2615
25200W        W40817   4.040   5.178  11.366 -0.1777  0.0401  0.0203
25201W        W40818   2.785   0.081  14.574 -0.1219 -0.0034 -0.0121
25202W        W40819   9.346   7.495   4.289 -0.1224  0.0632 -0.1632
25203W        W40820   5.654  11.470  13.046 -0.1604 -0.1104 -0.0631
25204W        W40821  12.043   0.393  15.591  0.1958  0.1146  0.0811
25205W        W40822  10.442  16.155   5.519  0.1469  0.0041 -0.0983
25206W        W40823   3.295  12.012   0.798 -0.0898 -0.1982  0.1220
25207W        W40824  14.355  13.329  12.484 -0.2086  0.2118  0.1053
25208W        W40825  10.150   7.960  16.715 -0.2613 -0.0289 -0.0669
25209W        W40826  12.312  10.083  15.445 -0.2542  0.3884 -0.1929
25210W        W40827  14.311  12.689  13.763 -0.2681  0.2314 -0.2261
25211W        W40828  10.354   9.012  15.243 -0.1700 -0.1878 -0.2319
25212W        W40829  14.053   8.627  15.265  0.4116 -0.0811  0.0082
25213W        W40830  14.362  10.708   4.977  0.4894  0.1748 -0.3443
25214W        W40831   0.394   1.369  14.454 -0.2986 -0.0685  0.2613
25215W        W40832   7.250  16.279  12.471  0.2172 -0.4476  0.2645
25216W        W40833   1.846   8.867  15.931 -0.2385 -0.2802  0.2223
25217W        W40834   7.991   8.831   2.686  0.3050 -0.2396  0.0631
25218W        W40835   6.404   3.879   2.885  0.0764  0.0545  0.0336
25219W        W40836   6.141  12.918   5.501 -0.2839 -0.1744 -0.1531
25220W        W40837  17.610   8.763   1.583 -0.0612 -0.2627 -0.1253
25221W        W40838   3.084   5.413   1.613  0.1567  0.0275 -0.0280
25222W        W40839  14.211   2.056   6.487  0.0632 -0.0998 -0.2028
25223W        W40840   5.561   7.802   3.292  0.1770  0.2775  0.3838
25224W        W40841  16.179   1.704  13.205 -0.1086  0.2851  0.4185
25225W        W40842  14.851   0.085   0.943 -0.0767 -0.1800  0.0303
25226W        W40843  15.331   0.081   0.425 -0.3038 -0.0960  0.0210
25227W        W40844   4.144   5.653  15.608  0.0092 -0.0686 -0.1701
25228W        W40845   5.539   1.685   1.560 -0.1714 -0.0761  0.1088
25229W        W40846  15.585   1.682   4.261 -0.1720  0.0497 -0.2336
25230W        W40847  15.814  16.261   6.166  0.0810  0.0734  0.2506
25231W        W40848  15.434  17.125   1.823  0.0294 -0.1681  0.3442
25232W        W40849   7.921   6.797   0.052  0.0578 -0.0635  0.0005
25233W        W40850  15.655   0.451  13.195  0.0858 -0.5149 -0.5699
25234W        W40851  12.527   4.526  15.252 -0.0097  0.2173 -0.0002
25235W        W40852  13.598   4.592  16.514  0.3677 -0.0310 -0.1974
25236W        W40853  17.025   5.961  16.792  0.1980 -0.0168  0.0600
25237W        W40854  14.779   3.352   5.757  0.0127  0.0070  0.3357
25238W        W40855   7.461   2.809  11.223  0.0484  0.3277 -0.1530
25239W        W40856  14.755  14.321  16.564 -0.2095  0.0852  0.0631
25240W        W40857  10.966   1.457   4.143  0.2280 -0.0653  0.1586
25241W        W40858  13.847   9.313   4.660 -0.3807 -0.0116  0.0680
25242W        W40859   1.625  12.268   4.454  0.4957  0.3726  0.0650
25243W        W40860  14.729  15.321  14.260 -0.1376  0.0104  0.0013
25244W        W40861  16.124  10.746   4.039  0.1533  0.0428 -0.1500
25245W        W40862   6.962  14.089  14.271  0.0217 -0.3267  0.1273
25246W        W40863  12.680   3.008   2.639 -0.0480 -0.0356  0.2852
25247W        W40864  17.565  15.079   6.213 -0.2124 -0.0568 -0.1380
25248W        W40865  14.762   3.050  13.236  0.2916 -0.0309 -0.4134
25249W        W40866  16.906   7.912   2.598  0.1072  0.0176  0.0717
25250W        W40867  17.717  16.371   0.902  0.0194 -0.2018 -0.1281
25251W        W40868  14.891   8.137  16.683  0.0400  0.0609  0.0411
25252W        W40869   2.815   6.443   3.090 -0.2300  0.1601 -0.1131
25253W        W40870   7.904   9.517  16.475  0.0021  0.0122  0.0014
25254W        W40871   8.686  15.094   1.243  0.1088 -0.0957  0.0532
25255W        W40872   6.354   5.745  16.729  0.0667  0.0247 -0.0396
25256W        W40873  14.574  16.044  12.053 -0.0527 -0.3974  0.2131
25257W        W40874   4.133   5.499   1.141  0.2043  0.2070 -0.1061
25258W        W40875   7.436   9.842   0.683 -0.0766  0.5092 -0.1614
25259W        W40876  12.338   4.497   1.091  0.0529  0.0651 -0.1517
25260W        W40877   3.918  13.663  12.390  0.1318  0.0358  0.1162
25261W        W40878   3.608  14.412   0.947 -0.0850 -0.0809  0.1291
25262W        W40879   5.018   5.018  13.525 -0.3735 -0.0344  0.0962
25263W        W40880  14.195  10.421  15.182 -0.1535  0.2417 -0.1648
25264W        W40881   5.568  17.511   3.727  0.2415 -0.0877  0.1236
25265W        W40882  17.972  17.936   2.096 -0.0248  0.0725  0.0542
25266W        W40883   6.207  14.634  16.318 -0.0152  0.0340 -0.0851
25267W        W40884   9.794  15.063   3.475 -0.1829  0.0353 -0.0300
25268W        W40885  16.904  15.195   1.756 -0.0994  0.0742 -0.0789
25269W        W40886   1.780   0.571   4.977  0.2977  0.1814 -0.0721
25270W        W40887  16.169  12.610  11.105 -0.0854 -0.0432  0.0851
25271W        W40888   9.817   0.324  13.594 -0.0956 -0.1140 -0.1952
25272W        W40889  17.401   3.702  14.549 -0.1630 -0.0956  0.0629
25273W        W40890   0.719  16.376  14.296 -0.1043  0.3766  0.2068
25274W        W40891  12.019  15.863  15.376  0.1339 -0.0660  0.4085
25275W        W40892   7.037   3.402   5.286 -0.2690 -0.0042  0.2176
25276W        W40893   0.844  13.911   5.497 -0.0699 -0.0019  0.2580
25277W        W40894   8.942   0.811  14.723  0.1533  0.2551  0.2631
25278W        W40895   0.093  15.420  13.839 -0.0149  0.5428 -0.0498
25279W        W40896   2.840  10.523  15.680 -0.2584 -0.2076  0.0536
25280W        W40897  17.738  14.923  13.213  0.1561 -0.0111  0.1120
25281W        W40898   8.058   4.425   3.780 -0.1695 -0.3107  0.1473
25282W        W40899  14.981  11.617   3.596 -0.3145  0.4771  0.4008
25283W        W40900   6.270   4.022  12.684 -0.1646 -0.1942  0.0652
25284W        W40901  12.667  15.645  14.028  0.1575 -0.2016 -0.1269
25285W        W40902  17.340  13.962  15.076  0.0242 -0.2523  0.2597
25286W        W40903   0.483   0.619  13.269  0.0938  0.0668  0.3621
25287W        W40904   6.585  13.876   0.026  0.2808  0.0153  0.0122
25288W        W40905   3.154  10.182  16.027  0.2074  0.0084 -0.2905
25289W        W40906  13.635   8.409  12.589  0.0737  0.1902 -0.0708
25290W        W40907  12.058   1.314  16.340  0.0366  0.0458  0.3019
25291W        W40908   0.229   8.053   0.745  0.4654  0.2010  0.1017
25292W        W40909  17.150   1.314   0.833  0.1496  0.1758 -0.0001
25293W        W40910   4.552   6.100   4.588 -0.0988 -0.2037 -0.2226
25294W        W40911   1.905   6.098  12.281  0.0033 -0.2152 -0.0054
25295W        W40912   2.253   3.625  12.065 -0.1232 -0.1527  0.0331
25296W        W40913  11.654   7.623   1.988 -0.3591 -0.0983 -0.2597
25297W        W40914  12.999   5.583   4.919  0.1897  0.1456  0.2005
25298W        W40915  12.760   4.690   2.232  0.1632  0.2618  0.1359
25299W        W40916   0.995   5.954   4.598  0.1109  0.1086  0.3391
25300W        W40917  11.096  16.261   1.381 -0.2314 -0.0027  0.1414
25301W        W40918  12.348  15.395  13.181 -0.3250  0.2358 -0.3567
25302W        W40919   8.658   8.888   4.740  0.2110  0.1811 -0.0770
25303W        W40920   1.365   1.678   4.020 -0.1593  0.0677  0.0171
25304W        W40921   7.587   6.140   5.111  0.0151  0.0404  0.4324
25305W        W40922   5.825  17.031   1.571 -0.2396  0.2433  0.2910
25306W        W40923   3.764   5.121  11.829 -0.1849  0.3313  0.0984
25307W        W40924   8.451   8.426   3.499 -0.1792 -0.1098 -0.1388
25308W        W40925   1.349  16.996   6.076  0.0948  0.1218 -0.1793
25309W        W40926  11.194   8.798  15.475 -0.0603 -0.1082  0.3544
25310W        W40927  17.253  15.451  16.392 -0.2025 -0.2436  0.2125
25311W        W40928  12.776   5.073   1.871 -0.3249 -0.0279  0.2030
25312W        W40929  15.772  16.340  13.985  0.1564 -0.3915 -0.1844
25313W        W40930   3.697  15.623  13.250 -0.1158  0.0312  0.1313
25314W        W40931  13.508  16.381   5.103 -0.1871  0.1328 -0.1381
25315W        W40932   4.943   5.892  13.547  0.1478 -0.0193 -0.2579
25316W        W40933   6.810  17.213  15.012  0.1179 -0.2003 -0.0046
25317W        W40934  10.953  13.239  11.080  0.2976  0.1398  0.1414
25318W        W40935  12.810  15.074   1.529  0.1000 -0.0811  0.4494
25319W        W40936   9.479  14.184   5.304  0.3151 -0.0529 -0.0634
25320W        W40937  15.694   6.521   3.926 -0.2763 -0.0714 -0.0556
25321W        W40938  12.228   9.824   1.891 -0.1520  0.2100  0.0236
25322W        W40939  10.307  12.748   2.901 -0.1404 -0.1234  0.1263
25323W        W40940  16.509   0.527   0.639 -0.0574 -0.2195 -0.0486
25324W        W40941   8.752  11.113  15.833  0.2562  0.0699 -0.0729
25325W        W40942   5.952   5.708  14.738 -0.1402 -0.1606 -0.1302
25326W        W40943  12.215  13.684   2.674 -0.1760 -0.0866 -0.2169
25327W        W40944  14.500  11.755   3.246  0.0570  0.2938  0.1028
25328W        W40945  12.459  12.945   1.649  0.1118  0.0123  0.1438
25329W        W40946   5.272   8.656   3.203  0.1035  0.0204 -0.0634
25330W        W40947   9.579   1.279   1.539  0.0680 -0.0752 -0.2227
25331W        W40948  12.060  15.049  16.159  0.0263  0.2910 -0.0718
25332W        W40949  13.760   2.077  13.905  0.2155  0.1376 -0.0537
25333W        W40950   7.172   9.890   4.603  0.2837 -0.3199  0.0029
25334W        W40951   9.835  13.756  15.844 -0.1306  0.0795  0.2492
25335W        W40952   6.039  15.540  13.438  0.0911  0.1714  0.0788
25336W        W40953  14.342   1.239  12.400  0.2746  0.0249 -0.1194
25337W        W40954  16.567   7.719   1.186  0.0843  0.0470  0.3008
25338W        W40955   9.072   8.735  11.538 -0.0303 -0.1628  0.2086
25339W        W40956  12.334   4.139   0.724 -0.0451 -0.0630  0.3411
25340W        W40957   7.065  15.866  15.143  0.0995 -0.0941  0.0450
25341W        W40958   2.235  10.207   1.467  0.0845  0.0378 -0.1508
25342W        W40959  14.671  14.607   3.099  0.3167  0.1343 -0.1355
25343W        W40960  10.095  17.935  13.580  0.1914  0.0502  0.0019
25344W        W40961   0.119  12.036   3.980 -0.4228  0.2525  0.1704
25345W        W40962  15.777  17.323   3.374  0.1006 -0.0252  0.0373
25346W        W40963   4.620  12.738   3.052 -0.2728  0.3707 -0.1215
25347W        W40964   8.321  11.952  13.630 -0.1324 -0.2020 -0.1261
25348W        W40965  14.356   3.065   5.739 -0.0678 -0.0037 -0.2320
25349W        W40966   2.308  14.192  15.614 -0.2842 -0.2901 -0.0795
25350W        W40967  13.210  10.516  14.358 -0.3419  0.0140  0.0607
25351W        W40968  11.526  11.089   4.770  0.0091  0.0997 -0.1455
25352W        W40969  15.489   7.867   4.963  0.0511  0.3282  0.0156
25353W        W40970   8.973   4.922  11.551 -0.0034 -0.0246 -0.2179
25354W        W40971   3.889   3.455   3.844  0.2003 -0.2280 -0.3408
25355W        W40972  11.781  10.782   3.136 -0.3746  0.2102 -0.1017
25356W        W40973   2.395  15.504   1.933  0.0171  0.0407  0.1183
25357W        W40974   9.546  14.752   0.017 -0.1152 -0.0704 -0.0109
25358W        W40975   5.158   0.414  13.267  0.1777  0.2120  0.0474
25359W        W40976   0.384  14.698   5.146 -0.2216 -0.2346  0.1101
25360W        W40977  11.074   3.487   5.786 -0.0678 -0.1030 -0.2582
25361W        W40978  12.772   4.520   6.324 -0.0285 -0.1588  0.0256
25362W        W40979  13.477   3.606  11.926  0.2185 -0.1719  0.1443
25363W        W40980  10.986  13.717  15.030 -0.0114  0.0918 -0.4041
25364W        W40981  14.926   5.204  16.116 -0.0943  0.3006 -0.0530
25365W        W40982  16.282   4.764   3.741 -0.0109 -0.2508  0.0879
25366W        W40983  14.639  13.788   4.428  0.2644  0.1351  0.1867
25367W        W40984  11.229   2.447   5.061 -0.1968  0.0050  0.0128
25368W        W40985  14.250  15.272  12.094 -0.0558  0.0992  0.4134
25369W        W40986   6.209   8.591   0.509 -0.2904  0.1320  0.1130
25370W        W40987   4.154  16.591  14.004  0.0372 -0.2132  0.0421
25371W        W40988  11.813   5.282  11.402  0.0533  0.2284  0.0482
25372W        W40989  11.354  11.408   0.624  0.0359  0.0421  0.1553
25373W        W40990  13.236   4.640   2.458  0.0853  0.0613  0.0103
25374W        W40991  16.206  12.551  11.684  0.1401 -0.2066  0.0283
25375W        W40992  17.503  10.392  11.409  0.2443  0.2102 -0.0091
25376W        W40993   4.731  13.786   5.080  0.1300  0.1055 -0.4432
25377W        W40994   8.755  13.452  11.119  0.2640  0.4874  0.2075
25378W        W40995   3.384   5.302  13.807  0.0152  0.1501 -0.0331
25379W        W40996   1.453   7.608   2.178  0.0030  0.2144 -0.1949
25380W        W40997  16.462   7.949  14.655  0.1499 -0.1119 -0.1113
25381W        W40998   7.751   8.265  14.749 -0.0353 -0.2601  0.1183
25382W        W40999   7.721   5.949   4.514  0.3998  0.0239  0.0015
25383W        W41000   7.434  14.601   3.204 -0.0209  0.1865  0.1162
25384W        W41001   5.242  13.039  12.365  0.2531  0.1028  0.0868
25385W        W41002   2.604  14.648  15.716 -0.2051  0.0944  0.1906
25386W        W41003   6.946   1.287  10.369 -0.0124  0.0755  0.0402
25387W        W41004  11.014  17.807   3.376  0.1248  0.0720  0.4058
25388W        W41005   2.193  13.743   4.742 -0.0764 -0.0357  0.1093
25389W        W41006   3.050  15.637  16.562  0.1449 -0.1013  0.0874
25390W        W41007  11.468   8.720   4.250 -0.2444  0.2929 -0.2841
25391W        W41008   6.632   7.583   2.522 -0.1665 -0.3760 -0.4867
25392W        W41009   7.366  10.165  10.937 -0.0697 -0.0191  0.2393
25393W        W41010  14.135   7.429   0.923 -0.1078 -0.3005 -0.0049
25394W        W41011  12.657  14.752  11.890  0.1273  0.3142 -0.0190
25395W        W41012   1.074  15.338   2.339 -0.4036 -0.2705 -0.0106
25396W        W41013   9.755  10.477   3.525  0.1792  0.0819 -0.0054
25397W        W41014   1.749   8.053   0.257 -0.1652 -0.0983  0.0274
25398W        W41015   4.647  13.608  11.995  0.0832 -0.3383  0.2789
25399W        W41016   4.351  13.478   0.111  0.2108  0.3156  0.0608
25400W        W41017  16.302  13.349   1.134  0.3464  0.0761  0.2760
25401W        W41018  14.475   4.096  13.231 -0.3397  0.2125 -0.2539
25402W        W41019  12.774   5.758  16.752  0.2210 -0.2771  0.4747
25403W        W41020  16.482   6.121   2.569  0.0934  0.0728  0.1236
25404W        W41021   9.229   3.618  15.151  0.0607 -0.0305 -0.2468
25405W        W41022   3.517  13.760   2.966  0.3516 -0.0037 -0.2583
25406W        W41023   9.842   4.368  14.387  0.1089  0.2567 -0.0352
25407W        W41024  15.892   5.053   4.680 -0.0659 -0.0397 -0.1228
25408W        W41025  17.553   5.091  15.022 -0.3490 -0.0070 -0.2313
25409W        W41026  11.680   0.462   3.445 -0.1258  0.1221 -0.1524
25410W        W41027   0.335  11.464  14.375 -0.4562 -0.1361 -0.0065
25411W        W41028   0.337   8.970   6.468  0.1219 -0.2331  0.1431
25412W        W41029  13.804   3.358  13.050  0.4498 -0.0601  0.0550
25413W        W41030  14.681   3.890   1.480  0.1088 -0.0955  0.5702
25414W        W41031   2.717  17.425   3.348  0.2954 -0.0477 -0.2438
25415W        W41032   0.078   0.941   2.236 -0.2392  0.1599 -0.1558
25416W        W41033  16.062  17.721  11.058  0.2177 -0.1697  0.0013
25417W        W41034   0.207   2.497  13.731  0.1002 -0.1320  0.1316
25418W        W41035   0.246   2.299   2.093  0.0980 -0.1389 -0.2337
25419W        W41036   7.236   3.116   2.549 -0.1526 -0.2130 -0.2039
25420W        W41037   2.713  10.157   2.774 -0.4206 -0.0889  0.0232
25421W        W41038   5.323   8.422  13.476 -0.0705 -0.3456 -0.0928
25422W        W41039   3.126   2.843  13.724 -0.0820  0.0408 -0.1120
25423W        W41040   1.293   8.523  13.166 -0.0997  0.3395 -0.0367
25424W        W41041   9.657   4.099   4.327  0.0747  0.1487 -0.0375
25425W        W41042   1.960  14.285   2.170  0.1191 -0.2494 -0.0065
25426W        W41043   4.473  11.012  16.316 -0.0039  0.1583  0.0955
25427W        W41044   2.956   3.098  14.817  0.0073  0.3525 -0.1062
25428W        W41045  14.417  10.590   0.203 -0.0287  0.1269  0.0523
25429W        W41046  17.882  12.002  11.534 -0.0685 -0.2367  0.1132
25430W        W41047  11.422   9.575  14.385  0.2810 -0.0482  0.0552
25431W        W41048  14.881   0.763  11.447  0.0926  0.2947 -0.1232
25432W        W41049  14.040   8.413  16.781  0.1398 -0.0269  0.0985
25433W        W41050   7.145   6.222   6.026 -0.1562 -0.0801  0.1060
25434W        W41051  17.578   8.377   0.307  0.0340 -0.1007  0.0517
25435W        W41052  16.708   3.349  15.036 -0.0482 -0.1091  0.0375
25436W        W41053   7.887   8.207   0.676 -0.0399  0.0068  0.0078
25437W        W41054   9.976  12.968  16.475  0.1025  0.2937 -0.0139
25438W        W41055   6.457  17.836   4.215 -0.2014  0.2280 -0.2767
25439W        W41056   0.944  11.813  13.675  0.0016 -0.3115  0.1477
25440W        W41057   9.843   3.408   0.545 -0.1285 -0.0074  0.1360
25441W        W41058   0.027   8.303  14.263 -0.0874 -0.1580 -0.1703
25442W        W41059  16.660  17.033   5.381  0.1429  0.0239 -0.2208
25443W        W41060  17.819   3.259   3.190 -0.0988  0.0773 -0.0255
25444W        W41061  10.041   3.323   1.087  0.1200 -0.1996 -0.0984
25445W        W41062   9.193  12.671   5.372 -0.3056  0.0162  0.4341
25446W        W41063   5.626  16.016  11.538 -0.1966  0.1293 -0.2337
25447W        W41064  10.280   1.149   5.486  0.1643  0.0937 -0.1649
25448W        W41065  13.919  16.428   4.844 -0.2655  0.0847 -0.1971
25449W        W41066   8.411   0.769   4.801 -0.0068 -0.2188 -0.2120
25450W        W41067  10.619   2.286  12.904  0.0530  0.4301 -0.1664
25451W        W41068   1.445   1.495   2.069  0.1081  0.0146 -0.1711
25452W        W41069  10.257   6.771   2.881  0.1411  0.4462 -0.3047
25453W        W41070  17.691  16.891   0.789  0.0589  0.0959  0.1359
25454W        W41071  10.778   0.109   4.111  0.0744 -0.0098 -0.5824
25455W        W41072  13.111   2.827  12.249 -0.3395 -0.1441  0.3931
25456W        W41073   4.398  15.429  15.498  0.0292 -0.1728 -0.1861
25457W        W41074  13.517  11.462   4.926  0.1119 -0.5088 -0.1963
25458W        W41075   9.685  12.632   5.024  0.0556 -0.2917 -0.0163
25459W        W41076   9.312   5.318  13.614  0.1268 -0.0249 -0.1626
25460W        W41077   2.618  15.553   2.648  0.1541 -0.1738  0.1456
25461W        W41078   5.273  17.819  16.776  0.0889 -0.0726  0.2629
25462W        W41079   3.996  17.361   5.992  0.3113  0.2330 -0.0038
25463W        W41080   1.260   2.247  14.879  0.0209  0.1831  0.1313
25464W        W41081  17.253  11.205  15.263  0.1805  0.1565  0.2376
25465W        W41082   6.702   6.079   2.271  0.3375  0.3413 -0.1000
25466W        W41083   7.285   4.082   1.436 -0.0242  0.1043 -0.3191
25467W        W41084  16.271   9.252   3.515  0.3013  0.1695  0.2705
25468W        W41085   3.027   3.216  16.178 -0.2253  0.1063  0.0559
25469W        W41086   1.657   2.740   5.311 -0.1908  0.2852 -0.1587
25470W        W41087   1.769   2.279  16.091  0.1310 -0.0370  0.1202
25471W        W41088   6.043  11.433  12.200 -0.3425  0.0656  0.3396
25472W        W41089  12.540   2.318   2.064  0.1660  0.0084  0.1349
25473W        W41090  14.843   3.999   4.624  0.1550  0.1420 -0.0789
25474W        W41091   1.139  11.964   1.423  0.1464 -0.0447 -0.1912
25475W        W41092  11.666   3.801   3.194 -0.1862 -0.1240 -0.0732
25476W        W41093  12.916   2.091  15.537 -0.1930  0.1483 -0.1615
25477W        W41094   7.401   4.360   0.138 -0.0637 -0.0835  0.0697
25478W        W41095   5.384  12.644  14.970  0.0359 -0.0432  0.1547
25479W        W41096   9.904  15.656   0.920  0.1218 -0.2965 -0.0112
25480W        W41097  17.713  14.487  14.288 -0.1961  0.2699 -0.1032
25481W        W41098  17.519   0.113   1.879  0.4333  0.1077 -0.0997
25482W        W41099   2.629  17.572  12.569  0.0514 -0.3151 -0.0049
25483W        W41100  10.160   2.554   1.023 -0.0610  0.1606 -0.2052
25484W        W41101   5.494   9.318   3.471  0.0243  0.1676 -0.4030
25485W        W41102   4.232   5.452   4.599 -0.2931 -0.1945  0.0938
25486W        W41103  11.501  14.251   4.914  0.2644 -0.1776 -0.0453
25487W        W41104  17.520  16.730  15.553 -0.1894 -0.0704  0.1989
25488W        W41105   8.218  14.345  13.201 -0.0469  0.1135 -0.0167
25489W        W41106   3.763  10.258   5.440  0.2184 -0.2238 -0.0856
25490W        W41107   2.897  14.469  12.519 -0.2735 -0.1066  0.4770
25491W        W41108   2.854   9.038   3.340 -0.0514  0.2126 -0.2452
25492W        W41109   2.894   2.010   0.391  0.0309  0.0707  0.1897
25493W        W41110  15.008  12.524   3.699 -0.2095 -0.4057 -0.1829
25494W        W41111   7.251  12.572  11.225  0.3265  0.3257 -0.2133
25495W        W41112   0.674   4.820   4.590  0.1270  0.0799  0.0691
25496W        W41113   6.890   6.667  12.673  0.2185 -0.3968  0.0691
25497W        W41114   5.806  16.619   3.181  0.0070  0.0006 -0.3969
25498W        W41115  12.901  11.547  13.073  0.1218  0.1904  0.5970
25499W        W41116  11.596   4.286   0.028 -0.1655  0.0269  0.1171
25500W        W41117   2.861   1.041  14.068 -0.0315 -0.0661  0.4359
25501W        W41118   4.668   4.125   3.652 -0.0402 -0.3266 -0.2096
25502W        W41119   1.542  11.244   0.785 -0.0107  0.2691 -0.1875
25503W        W41120   5.909   3.694   3.049  0.0698 -0.0645  0.2589
25504W        W41121  10.254   6.074   5.143 -0.1757  0.0534 -0.0298
25505W        W41122  15.914   2.908  15.868  0.0357 -0.1084  0.0222
25506W        W41123   3.118   2.267  12.575  0.0000 -0.1029  0.2285
25507W        W41124   5.553  10.501  13.830 -0.2718  0.0455 -0.0602
25508W        W41125   5.390  15.879   5.461  0.0560 -0.0556  0.2111
25509W        W41126   6.662   7.707  11.981 -0.2882  0.1374  0.0146
25510W        W41127   3.034  14.542   2.135  0.1189  0.2100 -0.0480
25511W        W41128   0.697  14.553   4.011  0.2873  0.0634  0.2105
25512W        W41129  10.124  14.609   3.064 -0.0531  0.2159  0.0860
25513W        W41130   6.600   6.139  11.542  0.4078  0.0402 -0.3277
25514W        W41131  10.555  16.776   3.374 -0.1734 -0.3070  0.2397
25515W        W41132   9.505   2.629  14.288 -0.1288 -0.2705  0.1591
25516W        W41133  16.631   3.481   5.072 -0.3947 -0.2359 -0.0396
25517W        W41134   3.458  10.043   0.273  0.1403  0.1297 -0.3099
25518W        W41135   3.760   6.923  10.957  0.1247  0.0788  0.1525
25519W        W41136  17.046  10.530  13.407 -0.1341  0.0947 -0.0317
25520W        W41137  10.161   3.289  15.944 -0.1695 -0.0687 -0.2711
25521W        W41138   2.803  11.748  15.381  0.2141  0.3534  0.1143
25522W        W41139   2.063  12.251  13.915  0.0545  0.0185 -0.2566
25523W        W41140  14.493   2.328   6.822  0.1278  0.2297 -0.1374
25524W        W41141  11.567  11.675  12.706  0.2409 -0.0537  0.4310
25525W        W41142  10.070   3.001  13.050  0.0092  0.0240 -0.2540
25526W        W41143  13.054   7.918   5.697 -0.0407 -0.0139  0.1738
25527W        W41144   7.005   4.314  12.654  0.0845  0.3214  0.3667
25528W        W41145   3.848  11.790   4.633  0.1368  0.2432  0.1881
25529W        W41146  12.197  17.986  12.881 -0.0271 -0.1835  0.1895
25530W        W41147   2.444  13.362  13.180  0.1247  0.0253  0.0542
25531W        W41148   9.399   6.262  15.819  0.0324 -0.1218  0.1588
25532W        W41149   5.861  12.039  11.496 -0.1872  0.4234  0.0597
25533W        W41150  17.932  17.213   3.516  0.2352  0.0811  0.1432
25534W        W41151   5.242   0.283  14.536 -0.2211  0.0873  0.2064
25535W        W41152   6.266   9.165   4.187 -0.3095  0.1083  0.1377
25536W        W41153   4.116  15.837  15.400 -0.2294  0.1824 -0.0414
25537W        W41154  10.784  12.837   5.224 -0.3257 -0.2891  0.2038
25538W        W41155  17.979   3.672   1.699  0.2880 -0.1207  0.0380
25539W        W41156  13.425   8.696   0.842 -0.3096  0.0096 -0.2807
25540W        W41157   3.072   1.725   2.450  0.1760  0.1049  0.0666
25541W        W41158   4.900  14.596   4.669 -0.0705 -0.2517 -0.2288
25542W        W41159  15.513   3.801  15.897 -0.3870  0.2670  0.4272
25543W        W41160  12.644  10.269   4.494  0.1311 -0.1485 -0.0687
25544W        W41161   3.337   2.046   2.045  0.0124 -0.3231 -0.1457
25545W        W41162   0.992   8.439  14.872 -0.2214 -0.2043  0.1633
25546W        W41163  16.986   8.886   2.518 -0.1114 -0.2439  0.0106
25547W        W41164  15.293  15.549  15.937  0.1026 -0.1311 -0.2045
25548W        W41165   6.945  11.860   0.416  0.2360 -0.2653 -0.0988
25549W        W41166   2.345   4.902   1.595 -0.0312 -0.1806 -0.0708
25550W        W41167   0.566   0.544  11.887  0.0906  0.2304  0.1363
25551W        W41168   0.101  14.269  16.606 -0.0258 -0.0801 -0.0289
25552W        W41169  13.341   4.574  12.360  0.2058 -0.1643  0.1899
25553W        W41170  17.708  11.292   3.664 -0.0366 -0.1878 -0.1121
25554W        W41171   4.055   3.759  13.047  0.2420 -0.1477 -0.1685
25555W        W41172   2.112   1.782  16.518  0.1983  0.0506 -0.0773
25556W        W41173  17.960  10.799   1.865 -0.2863  0.2361  0.1894
25557W        W41174  16.223   4.396   4.757  0.0100 -0.0786  0.4072
25558W        W41175   1.481   0.794   2.642  0.2010 -0.3607  0.2956
25559W        W41176  14.912   9.944  15.441 -0.0766 -0.2893 -0.2266
25560W        W41177  13.087   0.133  15.203 -0.2974  0.0536 -0.1989
25561W        W41178  17.667   4.335   5.059 -0.0198 -0.1018  0.0574
25562W        W41179   4.012  16.883  13.210 -0.3325 -0.0540  0.0208
25563W        W41180   4.650   1.395  15.517 -0.1792  0.1582  0.1197
25564W        W41181   2.922  17.949  15.945  0.3708 -0.1746 -0.0001
25565W        W41182   3.145  18.015  16.381  0.2296 -0.0682  0.1652
25566W        W41183   7.854  11.338   1.825 -0.1416  0.1465 -0.2002
25567W        W41184  15.757   9.522   5.709 -0.0560 -0.0788  0.2369
25568W        W41185   1.902   7.608   5.360 -0.0418  0.1832  0.0939
25569W        W41186  11.618   0.998  12.279  0.2269 -0.0764  0.0296
25570W        W41187   6.332   7.997  16.397 -0.0900 -0.2772  0.3139
25571W        W41188   5.178  17.593  15.560  0.1317 -0.1378 -0.1556
25572W        W41189   0.344  16.932  11.699 -0.3334 -0.0389 -0.2624
25573W        W41190   2.871   1.530  14.759 -0.0894  0.1974  0.3234
25574W        W41191   1.301  15.026  13.662  0.1436 -0.0561  0.1053
25575W        W41192  11.835  16.039  13.236  0.4262  0.1554 -0.0265
25576W        W41193  11.021  12.685  13.964 -0.2117 -0.2275 -0.0034
25577W        W41194   0.914   6.451   5.487 -0.0681 -0.1080 -0.0514
25578W        W41195   9.764  13.310  16.118 -0.0780 -0.0657  0.0577
25579W        W41196   7.800   4.377  15.498  0.0369  0.0600  0.2647
25580W        W41197  10.829   9.901  15.963 -0.2753 -0.3117  0.2431
25581W        W41198  13.046   7.929   1.541 -0.2789  0.0838 -0.1732
25582W        W41199   7.429   5.800  12.859  0.3039 -0.0209 -0.0050
25583W        W41200  13.404   4.631   5.384 -0.3137  0.3536  0.1333
25584W        W41201  13.270  15.355   1.777  0.2669 -0.0983 -0.2847
25585W        W41202   4.667   3.417   0.683  0.4160 -0.1524 -0.0050
25586W        W41203   8.751  15.383  14.681  0.1281  0.0241 -0.0434
25587W        W41204  11.688  16.006   5.228  0.2101  0.0263 -0.1678
25588W        W41205   3.310  16.567  14.033 -0.1214  0.1839  0.0522
25589W        W41206  11.623  15.290  15.852 -0.0945 -0.0699  0.0376
25590W        W41207  13.399  17.516   4.211 -0.0882  0.0221 -0.0213
25591W        W41208  17.908   1.439   2.109 -0.0493  0.0129 -0.0079
25592W        W41209  15.296   7.915   0.650 -0.0523 -0.0405  0.0359
25593W        W41210   0.108   1.802   2.422 -0.1917 -0.1820 -0.0511
25594W        W41211  17.696  15.566  13.684  0.1211  0.2423  0.0469
25595W        W41212  15.015   3.678  15.095 -0.2338  0.0039  0.1629
25596W        W41213   0.132   6.496   3.845  0.1090  0.2209  0.1377
25597W        W41214   0.435  10.993  13.286 -0.0788  0.0047 -0.1371
25598W        W41215  14.166   2.279   3.429 -0.2271  0.2891 -0.0790
25599W        W41216  16.085   6.607   5.303 -0.0241  0.2801  0.0428
25600W        W41217  14.730  17.003   3.884  0.0325  0.0708 -0.0967
25601W        W41218  12.726  11.411  12.168  0.0692 -0.2822 -0.3577
25602W        W41219  13.843  12.755   6.448 -0.0577 -0.1034 -0.0047
25603W        W41220  12.963   5.281  15.477 -0.2447  0.3046  0.2806
25604W        W41221   1.838   4.136  14.749  0.2771  0.2113  0.1964
25605W        W41222  12.144  10.804  15.876  0.4049  0.0277 -0.0616
25606W        W41223   0.877   1.998   3.753 -0.4092 -0.0705  0.1557
25607W        W41224  16.506  17.548  15.548  0.0158  0.1423  0.2134
25608W        W41225   8.268   1.827  13.876  0.3197  0.0806  0.0567
25609W        W41226  10.575   8.367  12.940 -0.0948  0.1649 -0.0689
25610W        W41227   2.355   4.784   5.208 -0.0840 -0.0232 -0.0239
25611W        W41228  16.028  17.924  12.608  0.0074 -0.1247  0.0720
25612W        W41229  11.945   5.722  11.086  0.1207  0.1963  0.1465
25613W        W41230  15.968  11.651  16.216 -0.3396  0.0032  0.2387
25614W        W41231   1.583  15.030   6.265  0.2158  0.2376  0.1576
25615W        W41232  10.537   9.666   0.108  0.3702 -0.0250 -0.3834
25616W        W41233   5.599   3.189  12.465  0.0111 -0.0381 -0.2169
25617W        W41234   4.700   5.212   2.242  0.1251  0.5041  0.2885
25618W        W41235   9.640   6.262   1.676 -0.2781 -0.3631 -0.0164
25619W        W41236  13.046  16.048  12.031  0.1936 -0.0589  0.3717
25620W        W41237   3.190  13.359  14.956  0.1158 -0.0051  0.1895
25621W        W41238   4.947   6.865   1.081  0.0296  0.0212 -0.0886
25622W        W41239   2.582   7.566   0.198  0.0259  0.0787 -0.3490
25623W        W41240   2.389   1.023  13.746 -0.4501 -0.0607 -0.1249
25624W        W41241   5.810  10.017   1.630 -0.1421  0.1913  0.0602
25625W        W41242   6.951  12.641  15.603  0.0593 -0.3102 -0.0404
25626W        W41243   5.767  14.450  14.647  0.3112 -0.0245 -0.1108
25627W        W41244   0.958   2.684  15.566  0.2605  0.1005 -0.4350
25628W        W41245  12.958  14.132   2.669 -0.0313 -0.2805 -0.0941
25629W        W41246   4.791  15.481   0.737  0.1007 -0.0205 -0.0064
25630W        W41247   9.613   3.971  14.491  0.1817  0.2930 -0.2500
25631W        W41248  14.472   1.156   4.676 -0.0952 -0.3457  0.2293
25632W        W41249   5.320  16.710   3.044 -0.2826  0.2221 -0.0810
25633W        W41250  14.321   7.411  13.853  0.1467 -0.0370 -0.0523
25634W        W41251   6.129   6.730  11.103  0.1285 -0.0821  0.1394
25635W        W41252   6.227   8.707   4.550 -0.3624 -0.1177  0.3574
25636W        W41253   3.305   5.352  16.518 -0.0805 -0.3117  0.2463
25637W        W41254   4.123  16.279  15.863  0.3496 -0.0013 -0.0552
25638W        W41255   7.416  10.006  13.209 -0.2306  0.1084 -0.3195
25639W        W41256  17.376   8.730   5.569 -0.0365  0.1917  0.1613
25640W        W41257   7.493  16.219   0.445 -0.2978 -0.1963  0.1324
25641W        W41258  16.530  12.458  14.365 -0.1293  0.2381 -0.1348
25642W        W41259  12.783   4.758  12.995 -0.1110  0.3323  0.1479
25643W        W41260   8.586  17.868   1.584  0.2321  0.0261 -0.0762
25644W        W41261  12.545  14.244   1.865  0.1077  0.1026  0.2733
25645W        W41262   5.573   1.733   3.337  0.0016 -0.2897 -0.3745
25646W        W41263   7.064   7.287  12.000 -0.1536  0.1582  0.2583
25647W        W41264   4.893   3.688  14.120 -0.1671  0.0487  0.0653
25648W        W41265   3.929  10.065   0.035 -0.0299  0.1614  0.0486
25649W        W41266   6.929   7.597  11.579  0.0340  0.0653  0.2188
25650W        W41267   1.676   4.732   2.286  0.1145 -0.0024  0.0464
25651W        W41268   5.186   9.415  16.540  0.0595 -0.2884 -0.1179
25652W        W41269   8.261  14.587  16.587 -0.1566 -0.2237 -0.0574
25653W        W41270   4.945   7.889   1.041 -0.1337 -0.1832 -0.1391
25654W        W41271  13.883   8.430   3.136  0.2391  0.2820  0.1239
25655W        W41272  17.974   8.889   1.165 -0.2753  0.0282  0.4240
25656W        W41273   9.755   8.432   4.087 -0.1501  0.0100 -0.0639
25657W        W41274  16.314   7.823   0.689  0.1802 -0.0561 -0.0509
25658W        W41275   4.674   9.570  13.553  0.2662  0.0002 -0.0504
25659W        W41276   9.631   0.972   3.864  0.0592 -0.2819  0.1926
25660W        W41277   5.399   1.192   4.429 -0.0688 -0.5691  0.0017
25661W        W41278  16.307  12.554  12.210 -0.0253  0.1002 -0.2448
25662W        W41279  13.542  17.064   3.473  0.2793  0.3204  0.1664
25663W        W41280   7.786  12.425  16.444  0.0220 -0.0975  0.4155
25664W        W41281   7.001   2.964   2.059  0.2179 -0.2552  0.0572
25665W        W41282   8.964   2.315   5.165 -0.0187 -0.1307  0.1686
25666W        W41283  16.351  17.359   0.822 -0.1949  0.1680  0.0329
25667W        W41284   0.538   4.849   1.252 -0.0071  0.4460 -0.1684
25668W        W41285  14.076   0.302   0.510  0.3806 -0.2913 -0.1288
25669W        W41286   6.796  13.562   0.572 -0.1785  0.2091  0.2611
25670W        W41287   2.082  13.815   5.485 -0.0888 -0.1632 -0.1857
25671W        W41288   5.806   9.731   4.864 -0.0411  0.1643  0.0553
25672W        W41289  17.466   4.773  12.633  0.1864 -0.1562 -0.1216
25673W        W41290   7.601  17.619  13.250  0.1824 -0.0743 -0.3193
25674W        W41291  10.466   7.441   6.191  0.2895  0.0139  0.3457
25675W        W41292   3.708   5.832  14.817 -0.1009 -0.1207  0.0126
25676W        W41293  16.797   9.121   3.923  0.0479 -0.0074 -0.0466
25677W        W41294   7.861   8.225   2.650  0.0285 -0.0886  0.0998
25678W        W41295  12.971   9.026  15.436  0.0076 -0.1162  0.3443
25679W        W41296  11.063  12.597  15.892 -0.2672 -0.0871 -0.2932
25680W        W41297  11.640   7.948   0.264 -0.0942 -0.0632 -0.0955
25681W        W41298  11.921   9.446   2.001  0.0098 -0.0517 -0.0591
25682W        W41299   4.416   4.891   1.909 -0.1175 -0.0278 -0.0084
25683W        W41300  15.510   1.358  14.973 -0.1064 -0.3198 -0.0254
25684W        W41301  14.828   7.894  14.609  0.1223 -0.1715  0.1315
25685W        W41302  12.565  16.011  15.250 -0.1022 -0.1514  0.0825
25686W        W41303  11.502   8.938   0.034  0.1244  0.1403 -0.0587
25687W        W41304   5.156   0.079   1.252 -0.1457  0.0380  0.0266
25688W        W41305   0.652   6.150  13.511  0.2698 -0.0010  0.0468
25689W        W41306  15.039   7.123  11.741 -0.1741  0.5794 -0.1229
25690W        W41307  15.914   1.225   1.539  0.1141  0.1784 -0.0547
25691W        W41308  15.058  18.012  12.666 -0.2056  0.1804  0.1842
25692W        W41309   0.136  11.102  15.943  0.3092 -0.0407  0.1750
25693W        W41310   7.152   3.221  13.203  0.1225  0.2712 -0.2166
25694W        W41311  14.161  10.783   1.462 -0.0840  0.4951 -0.2577
25695W        W41312   6.514   8.593  13.104  0.1970  0.1289 -0.1723
25696W        W41313   6.854  12.323   0.627  0.0039  0.1025  0.1360
25697W        W41314   7.946   4.953   5.956  0.0724 -0.0026 -0.0523
25698W        W41315   5.759   7.712  14.479 -0.3313 -0.0620  0.2720
25699W        W41316   2.500   0.620   5.683 -0.0070  0.1533  0.2304
25700W        W41317  14.621  10.433  12.349 -0.2025  0.2052 -0.2326
25701W        W41318   1.856   1.593   1.132 -0.2095  0.1112 -0.0116
25702W        W41319  15.162   6.514   5.002 -0.1827  0.0128  0.1285
25703W        W41320  13.547   9.750   4.643  0.1547  0.0005  0.1206
25704W        W41321   6.195   4.585  13.973 -0.1089  0.1363 -0.0805
25705W        W41322  15.852   4.686   0.991 -0.0709 -0.1202 -0.1647
25706W        W41323  15.361  11.194   0.763 -0.1426  0.1667 -0.1613
25707W        W41324  13.837  12.271   2.150  0.0255 -0.0683 -0.2429
25708W        W41325  13.141  16.686  15.531 -0.0341 -0.1265  0.0079
25709W        W41326  13.209  10.095   2.091 -0.0489  0.2811 -0.1486
25710W        W41327   5.529   1.908  13.931 -0.2710 -0.0020 -0.0127
25711W        W41328  10.965   3.310   0.809 -0.0113 -0.0904  0.2590
25712W        W41329   7.811   4.313  14.592  0.0491 -0.0409 -0.0575
25713W        W41330  10.679   2.447   3.718  0.0821 -0.1796 -0.1183
25714W        W41331   6.846  14.488   1.601 -0.2803  0.0163 -0.1407
25715W        W41332  12.278   1.654  14.247 -0.0883  0.0240 -0.0880
25716W        W41333   1.428  11.982  11.986  0.0341  0.0168 -0.1609
25717W        W41334  17.299  11.138  14.281  0.2425  0.2651  0.1564
25718W        W41335  15.948  16.934  16.181 -0.1048  0.2869 -0.1600
25719W        W41336   5.411   6.553  14.139  0.0615  0.1585 -0.1742
25720W        W41337   7.839  13.783  12.918 -0.1241  0.0417 -0.0829
25721W        W41338   9.729   9.260  12.136 -0.1010  0.0619  0.1360
25722W        W41339   5.032  17.478  12.967  0.0421 -0.0285 -0.4448
25723W        W41340  15.858  12.881  11.452 -0.1198  0.0340  0.0557
25724W        W41341  14.678  17.023  15.255 -0.2579 -0.1341 -0.0289
25725W        W41342   2.343  10.148  13.883  0.2904  0.1369 -0.1669
25726W        W41343  17.201   4.466   1.609 -0.1744  0.0370 -0.1498
25727W        W41344   2.946  12.061  13.693 -0.0808  0.1644  0.1065
25728W        W41345  18.028  17.915   3.125  0.0308  0.3390 -0.0391
25729W        W41346  16.781   2.267   6.633 -0.0738 -0.1385 -0.2256
25730W        W41347   0.474  12.437   2.198 -0.0740  0.3512 -0.2001
25731W        W41348  11.785   5.502  13.967  0.1427  0.2550 -0.1019
25732W        W41349   6.154  12.142   1.075  0.2627  0.0396  0.0389
25733W        W41350  11.479   9.476  11.971 -0.2278 -0.0263 -0.0670
25734W        W41351  17.844  13.780  15.321 -0.1306 -0.0410  0.1841
25735W        W41352   9.377   3.722   4.017  0.3188 -0.0911 -0.1778
25736W        W41353   3.995   3.694  13.563  0.2793  0.1688  0.2157
25737W        W41354   0.831   7.266   1.340  0.2514  0.1569  0.0487
25738W        W41355   9.631  13.378  13.848 -0.1551  0.1010 -0.2048
25739W        W41356  16.259  12.972   0.656 -0.1578 -0.3605 -0.2367
25740W        W41357   8.879   5.343   0.016 -0.0021  0.1850 -0.2316
25741W        W41358  17.954   0.603  14.037  0.1207  0.1291 -0.0692
25742W        W41359  17.470   0.724  12.231 -0.0509 -0.1880  0.1229
25743W        W41360   9.196  17.384   0.455  0.0074 -0.0293  0.1910
25744W        W41361   8.407   7.042   1.000 -0.1156  0.0077 -0.1224
25745W        W41362   5.397  14.127  15.965 -0.0837  0.1380 -0.1227
25746W        W41363  11.385  13.668  16.099  0.1175  0.1020  0.0706
25747W        W41364  10.287  15.791   2.084  0.2233  0.0380 -0.1805
25748W        W41365   0.173   9.390   2.876 -0.1613  0.0745 -0.5651
25749W        W41366   0.017  16.525  16.743 -0.5501  0.0634 -0.1666
25750W        W41367  11.667   0.203  15.960 -0.0934 -0.0090  0.1691
25751W        W41368   2.051   7.992  14.548  0.1008 -0.0141  0.2816
25752W        W41369   9.871   9.392  13.066  0.2084 -0.1524 -0.0702
25753W        W41370   1.522   9.464   1.275  0.1128 -0.0050  0.1643
25754W        W41371  13.622   9.665  15.694 -0.2901  0.0073  0.3262
25755W        W41372  14.780  13.210  11.739  0.0476  0.1843 -0.1207
25756W        W41373   4.527   2.532  14.425  0.0818 -0.2041 -0.1805
25757W        W41374   0.718   2.723  16.005  0.1229 -0.1369  0.0112
25758W        W41375   8.672  11.097   0.102 -0.1844  0.1287 -0.0212
25759W        W41376   1.348   1.429  14.975  0.0116  0.2261 -0.0621
25760W        W41377  11.221   7.675  12.789 -0.0797  0.3863 -0.1056
25761W        W41378   9.734   8.910   1.461  0.0184  0.1359  0.2035
25762W        W41379   6.982  13.327  14.444  0.0206 -0.0633 -0.3931
25763W        W41380  17.782  14.064   3.383  0.3284  0.0412 -0.1984
25764W        W41381   7.995  17.005   5.468  0.0544  0.2203  0.4522
25765W        W41382   4.143   7.185   2.983 -0.0103 -0.2847 -0.3660
25766W        W41383   3.239   8.631  16.170  0.2028  0.2144  0.0211
25767W        W41384   7.865  14.321   3.578 -0.1437 -0.2097  0.3111
25768W        W41385  10.564   4.431  16.180  0.4537  0.3107 -0.0264
25769W        W41386   9.523   6.182  12.597 -0.0269 -0.3183 -0.0682
25770W        W41387  10.635  12.073   1.016  0.0781 -0.3061 -0.0644
25771W        W41388  10.602  11.067  11.579 -0.1474 -0.3149  0.0563
25772W        W41389  12.549   5.930   1.358  0.1337  0.1702  0.2203
25773W        W41390  10.262  14.849   4.584 -0.2322  0.2018  0.0466
25774W        W41391   3.044  15.024  13.234 -0.0426  0.2039 -0.2107
25775W        W41392   7.146  10.571  14.437  0.1206  0.1146  0.1794
25776W        W41393  13.199   0.928  15.072 -0.1737  0.3264 -0.0069
25777W        W41394  12.764  15.317  11.261 -0.0847  0.1850 -0.0431
25778W        W41395   8.621   1.026   5.383 -0.0005 -0.0850 -0.2067
25779W        W41396  13.297   9.085   3.625 -0.1067 -0.0520  0.1731
25780W        W41397  17.394   5.499  13.479  0.2370  0.0681 -0.2777
25781W        W41398   7.330  11.176   3.972  0.1068  0.4376  0.1020
25782W        W41399  14.323  10.194   4.785  0.1271 -0.2229 -0.2177
25783W        W41400  17.518  13.869  13.622  0.0562 -0.0893  0.1380
25784W        W41401   1.260   8.357  15.323 -0.0070 -0.1845 -0.1583
25785W        W41402  11.297   7.602   0.347  0.3849  0.2846 -0.1235
25786W        W41403  15.150  14.058   2.431 -0.1842  0.2645 -0.0804
25787W        W41404   2.676  11.602   0.160  0.0011  0.0985 -0.0344
25788W        W41405   8.390   8.638  14.451  0.3550 -0.0654  0.0123
25789W        W41406   9.552   0.732   1.986 -0.2458  0.2594  0.1965
25790W        W41407   9.864  11.395   4.050  0.1789 -0.1777 -0.0481
25791W        W41408   2.431   1.485  13.554 -0.0313 -0.1716  0.1998
25792W        W41409   9.572   6.705  16.150  0.2415  0.0188 -0.0015
25793W        W41410  17.828   9.728   1.116  0.0290  0.2382 -0.1115
25794W        W41411   6.328   9.049   0.755  0.5044  0.0112 -0.1456
25795W        W41412   1.743  17.332   1.749 -0.1789  0.0827  0.0955
25796W        W41413   8.783  16.038   0.424 -0.0694 -0.2668 -0.0376
25797W        W41414  15.599  13.517   4.645 -0.0620 -0.2125  0.1417
25798W        W41415   2.170   7.005  16.366  0.0637  0.2928 -0.1486
25799W        W41416   4.715   2.950   5.425  0.0333  0.1418 -0.0234
25800W        W41417   3.258  16.629   5.786  0.3072  0.1620 -0.0625
25801W        W41418   0.257   7.336  15.257 -0.0392 -0.2024  0.2290
25802W        W41419  10.629  14.136  14.751 -0.0916 -0.0392 -0.0618
25803W        W41420   8.728   9.452   5.220  0.0532 -0.0798  0.2713
25804W        W41421   0.573  10.257  13.583 -0.2214 -0.2469  0.0891
25805W        W41422   6.305   6.936   2.363 -0.0525  0.0127 -0.1494
25806W        W41423   5.687  13.023   5.444  0.0418 -0.0536  0.2754
25807W        W41424  11.921   5.415   0.893  0.0979 -0.0522 -0.2133
25808W        W41425   9.504  12.006  12.821  0.1135  0.4632  0.1962
25809W        W41426   0.658  11.226   3.460 -0.1175 -0.1394  0.1455
25810W        W41427  14.293   7.830   3.486  0.1734  0.1790 -0.0569
25811W        W41428  17.594  11.827  13.613  0.3763 -0.2300 -0.0446
25812W        W41429   8.749  16.902   2.296  0.1607 -0.2893 -0.1877
25813W        W41430   6.238  16.751  13.977 -0.0687 -0.0138 -0.0361
25814W        W41431   4.438  12.940  14.394 -0.1427 -0.2505  0.0640
25815W        W41432  13.093   7.655   2.086  0.0310  0.1000 -0.1685
25816W        W41433   1.029  10.421   3.060  0.0074  0.2052  0.6036
25817W        W41434  15.863   2.870   1.265  0.1583 -0.2582  0.1968
25818W        W41435   9.885   7.081  13.277 -0.0137  0.2672  0.0380
25819W        W41436  17.953  12.622   4.984  0.2486  0.4167 -0.0315
25820W        W41437   2.851   0.087  11.472 -0.3932 -0.0633  0.0456
25821W        W41438   9.485   2.770   3.563  0.0747  0.3048 -0.1071
25822W        W41439   0.244  18.014  15.568 -0.3248  0.0211  0.0081
25823W        W41440   7.049  15.851   2.585  0.0936  0.5357  0.1761
25824W        W41441   3.372  13.843   4.336 -0.2680  0.0161  0.1087
25825W        W41442   4.218   5.615   5.092  0.0519 -0.1864 -0.0664
25826W        W41443  11.439  17.401  12.421  0.1297  0.0803  0.0854
25827W        W41444   7.789  17.690  15.908 -0.1525  0.0105  0.1404
25828W        W41445  14.707   7.865   1.660 -0.1129  0.1405 -0.1464
25829W        W41446  14.806   5.182  14.460 -0.1450 -0.0682 -0.1382
25830W        W41447   1.192  15.031  12.717 -0.1312  0.2765 -0.0804
25831W        W41448   7.636   8.131   3.220  0.2448 -0.0000 -0.0944
25832W        W41449  17.444   3.048   4.879  0.2488 -0.0761  0.0844
25833W        W41450   0.524  12.668  11.552  0.1799  0.0045 -0.0233
25834W        W41451   0.714  13.955   4.956 -0.0069  0.1011 -0.0631
25835W        W41452   4.391  12.871  13.410 -0.2757  0.1029 -0.0121
25836W        W41453   9.762  12.161   1.997  0.0075 -0.2019 -0.1834
25837W        W41454  15.134  16.275   1.656 -0.2188 -0.3330  0.0264
25838W        W41455  17.161  14.089   3.290  0.1481  0.1501  0.3045
25839W        W41456   6.229   4.860   3.880  0.1789  0.2151  0.0568
25840W        W41457   0.363  16.880  16.786 -0.1801 -0.3323 -0.1123
25841W        W41458  12.482  13.966   6.019 -0.5462 -0.0345 -0.1060
25842W        W41459   8.895  12.361  12.517 -0.3087 -0.0720 -0.3354
25843W        W41460  10.364  16.806  11.712 -0.3566  0.2419 -0.1243
25844W        W41461   5.211  16.428   0.493  0.1824 -0.0853  0.2748
25845W        W41462   7.754  16.054  12.292  0.2033 -0.0935 -0.0934
25846W        W41463   3.342   0.881  12.639  0.1116  0.1313 -0.0032
25847W        W41464   7.648  14.806   3.732  0.1941  0.0876  0.0667
25848W        W41465   8.542   3.228  13.201 -0.3291  0.0387 -0.2876
25849W        W41466   7.006   0.151  15.997 -0.0081  0.0996  0.0440
25850W        W41467   3.510  10.605   4.735  0.2497  0.2164 -0.0362
25851W        W41468   6.261  17.707   1.581  0.1629 -0.1574 -0.2309
25852W        W41469  11.942  17.661   3.595  0.0745  0.2437 -0.0825
25853W        W41470   7.347  14.666   1.488 -0.0305 -0.1084 -0.1435
25854W        W41471   4.828  15.007  12.745  0.2600 -0.0601  0.1481
25855W        W41472   3.065  16.603  12.779 -0.0187 -0.1989  0.3744
25856W        W41473   3.932   3.804   0.251  0.2063 -0.1197 -0.1144
25857W        W41474   6.775   8.735  12.341 -0.3780  0.0967 -0.1494
25858W        W41475  14.534  10.948  16.249 -0.3179  0.2090 -0.2892
25859W        W41476  12.454   1.699  13.612 -0.2844  0.0396  0.1335
25860W        W41477   1.904  15.620   3.313 -0.1654 -0.0932 -0.2152
25861W        W41478   6.286  12.519   2.820  0.0342  0.1369 -0.3059
25862W        W41479  16.533  14.369   1.941  0.0541  0.0951 -0.2492
25863W        W41480   5.592   0.601  13.577  0.1520  0.2436 -0.1806
25864W        W41481   2.931  10.495   1.924 -0.1396  0.0690  0.0390
25865W        W41482   9.272   4.751  13.176  0.3035  0.0928 -0.2084
25866W        W41483   2.015   2.484   2.534  0.1601 -0.2269 -0.0210
25867W        W41484  15.874  11.290  13.971 -0.2837  0.2068  0.1598
25868W        W41485   6.700  17.176  15.517 -0.1814 -0.2254  0.0875
25869W        W41486  17.418  12.679   0.425 -0.0137  0.0807  0.3806
25870W        W41487   9.356  11.851  11.427  0.0704  0.0905 -0.2938
25871W        W41488  12.616   4.178  16.624 -0.0146  0.2666  0.1742
25872W        W41489   2.678   0.188   5.887  0.1222  0.1489  0.2866
25873W        W41490  15.719  16.031   3.508  0.1071  0.2538  0.0034
25874W        W41491   4.163  14.487  16.126  0.3438  0.0670 -0.0707
25875W        W41492   2.502   9.915   0.145 -0.0076  0.5631  0.0656
25876W        W41493   0.808   5.883  12.079 -0.0072  0.2791 -0.0627
25877W        W41494   5.738   0.820   4.418 -0.1861  0.2395  0.3886
25878W        W41495   0.600   1.599   5.263  0.0094  0.0575 -0.2108
25879W        W41496  16.219  15.839   6.991 -0.0333  0.0109  0.0182
25880W        W41497   9.527  11.053  13.978  0.0859  0.2374 -0.3622
25881W        W41498  15.435   1.271  13.419  0.3523 -0.1928 -0.1044
25882W        W41499   5.786  15.010   4.526  0.0880  0.0146 -0.6597
25883W        W41500   7.747   5.586  14.585  0.2162 -0.0162 -0.1248
25884W        W41501   8.631  12.632   1.356  0.0381 -0.1488 -0.1746
25885W        W41502   9.038  13.991  16.702  0.0546  0.1341  0.1164
25886W        W41503  12.849   1.907   2.167  0.0057 -0.1506 -0.0890
25887W        W41504  10.813   0.309   2.746 -0.1966 -0.2925 -0.2386
25888W        W41505   4.274  17.549  13.801  0.3392  0.0095 -0.1314
25889W        W41506   8.857   9.653  12.615 -0.3740  0.0418  0.0369
25890W        W41507   1.322   1.161  11.591  0.4030  0.1272  0.1181
25891W        W41508  12.581   4.871  14.869 -0.0776  0.1113  0.1867
25892W        W41509   5.533  15.864  16.168  0.1476  0.0176 -0.3258
25893W        W41510   5.166   7.009   5.756  0.1714 -0.1223  0.2546
25894W        W41511  14.690  16.598  13.720 -0.0132 -0.5568  0.0533
25895W        W41512   4.480   7.132  12.502 -0.0609  0.0782 -0.1641
25896W        W41513  16.506   0.274  15.927  0.1134  0.1428  0.0814
25897W        W41514   8.290   5.787   0.531  0.1347  0.0519 -0.0471
25898W        W41515  16.598   2.780  16.779 -0.0851 -0.1665 -0.1016
25899W        W41516  11.942   6.635  11.523  0.1943 -0.0110  0.2901
25900W        W41517  11.476  16.946  14.810  0.2267 -0.0459 -0.0158
25901W        W41518  16.957   1.070  12.518  0.0753 -0.0353 -0.1992
25902W        W41519  14.271   5.957  11.337 -0.2428  0.2032 -0.1318
25903W        W41520  16.159   8.917   1.537 -0.1955  0.0414  0.1485
25904W        W41521   2.264  10.800  13.751  0.1880  0.0614 -0.0174
25905W        W41522   3.364  14.908   5.801 -0.1861  0.1549  0.0820
25906W        W41523   9.360   0.926   4.299  0.5833  0.0955  0.1422
25907W        W41524  11.794  12.394   3.890 -0.1606  0.0867 -0.0778
25908W        W41525  14.837   9.012   1.364 -0.1581  0.0526 -0.2488
25909W        W41526   1.575  13.190   2.034 -0.1213  0.0167 -0.0366
25910W        W41527   8.395  13.628  14.262  0.0440 -0.0602  0.0212
25911W        W41528   3.801   7.422  16.535  0.0360 -0.0142  0.1642
25912W        W41529   3.638   7.854  15.542  0.2180  0.0749 -0.0413
25913W        W41530  14.066   6.699   3.203 -0.0205  0.0498 -0.2375
25914W        W41531   5.760   8.938   4.221 -0.3230 -0.0040  0.0391
25915W        W41532  17.483   3.187   2.537 -0.0471 -0.2366 -0.4244
25916W        W41533   2.365   2.137   5.379  0.2021 -0.0934 -0.0357
25917W        W41534   0.157   4.484   5.480 -0.0152 -0.2649 -0.2588
25918W        W41535   3.935   7.542   4.877  0.2675  0.2606 -0.1950
25919W        W41536   1.870  15.222  12.765  0.1601 -0.1379 -0.0171
25920W        W41537  15.156   8.693   5.052  0.4848  0.0043 -0.2179
25921W        W41538  10.027  11.752   9.894 -0.1618 -0.5555 -0.0042
25922W        W41539   8.287   0.679  12.009  0.1477  0.1991  0.0035
25923W        W41540  16.505  14.522   5.769  0.2264  0.2095 -0.1448
25924W        W41541  12.013  11.197   1.625 -0.1897  0.3983 -0.1297
25925W        W41542  10.029   6.774  11.387 -0.1792  0.2782  0.1160
25926W        W41543  17.437   2.905   3.004  0.0201  0.2882  0.1259
25927W        W41544   8.281  17.655  15.575 -0.0149  0.0436 -0.0645
25928W        W41545  16.663   6.968   2.276  0.1009 -0.1155 -0.1249
25929W        W41546   1.215  10.496   1.829 -0.1195 -0.0154 -0.0106
25930W        W41547   6.155   8.310  14.481 -0.3018  0.4680  0.0394
25931W        W41548  17.163  12.406   0.799  0.0717 -0.0190  0.0387
25932W        W41549   2.781   9.647   3.170  0.1577 -0.1826 -0.0288
25933W        W41550  11.759  11.509   4.885 -0.2415 -0.1020 -0.0084
25934W        W41551  12.630   2.275   0.984 -0.3786  0.0309  0.0514
25935W        W41552   1.255  10.039  16.141  0.0614 -0.0399  0.0037
25936W        W41553   1.540   6.745   4.781  0.1568 -0.1310 -0.0525
25937W        W41554   5.208   7.878   0.512 -0.1075 -0.0342  0.0362
25938W        W41555   0.356   1.474  15.423  0.1499 -0.0933 -0.0180
25939W        W41556  13.313   6.548   2.600 -0.0098 -0.0395 -0.1123
25940W        W41557   3.413   5.478   3.150  0.2582  0.1723 -0.2276
25941W        W41558   2.215  13.133   3.378 -0.0387  0.1308  0.0437
25942W        W41559   9.748  12.883  14.886 -0.0239  0.0233  0.0461
25943W        W41560   6.196  10.935   0.615  0.2607  0.2829  0.0786
25944W        W41561  12.664   1.405  12.968  0.1054 -0.0095 -0.0335
25945W        W41562  17.485   4.351   0.728 -0.3390 -0.0089  0.0761
25946W        W41563   4.830   6.069  11.847 -0.1431 -0.1471 -0.0144
25947W        W41564  14.706  12.482  15.899 -0.0862 -0.2090 -0.0388
25948W        W41565  15.848  13.705  13.047  0.0681 -0.0377 -0.1260
25949W        W41566   4.321   7.412   0.349  0.0430  0.0479 -0.1073
25950W        W41567   2.448   5.367  13.075  0.3986 -0.1354  0.0142
25951W        W41568   8.653   3.168   2.519 -0.1257  0.4839  0.1601
25952W        W41569  15.916  15.501  13.244 -0.3444 -0.1042  0.0652
25953W        W41570   1.620  17.625  15.937 -0.0590  0.1095  0.0580
25954W        W41571  12.828  13.052  13.498 -0.1836 -0.0756  0.0268
25955W        W41572   4.138  11.838   0.883 -0.2448 -0.0472  0.1929
25956W        W41573   4.303   5.688   1.588  0.3917 -0.2877 -0.2025
25957W        W41574   1.327  10.067   3.251 -0.4556  0.1141  0.2156
25958W        W41575  14.430  11.669   3.780  0.0490 -0.0414 -0.3373
25959W        W41576  10.416  11.950   2.897  0.0835  0.2180 -0.1424
25960W        W41577  12.292   5.882  12.595 -0.0810  0.2377 -0.2736
25961W        W41578  17.268   8.146  14.482 -0.3664  0.0755  0.0426
25962W        W41579   3.596   2.186   0.493  0.2029  0.1043  0.3144
25963W        W41580   1.968  14.649   0.274 -0.0679  0.0758 -0.0317
25964W        W41581   3.560   5.125   3.569  0.0048  0.0774 -0.0938
25965W        W41582  11.659   2.082   5.257  0.0392 -0.3845  0.0488
25966W        W41583  17.564   9.284  12.988  0.0880  0.0753 -0.0937
25967W        W41584  12.292  11.200   0.657 -0.2881  0.0580 -0.2484
25968W        W41585  10.866   5.082  13.619  0.1546  0.4298  0.0983
25969W        W41586   8.983   6.871   1.681 -0.1997 -0.1159 -0.1658
25970W        W41587   1.370  10.701  13.927 -0.1959 -0.0002 -0.0843
25971W        W41588   6.679   1.670  14.819  0.1317 -0.1932  0.0556
25972W        W41589   0.318   6.114   1.051  0.0172 -0.1256 -0.1647
25973W        W41590   8.863   6.878  12.707  0.0777  0.0402  0.2227
25974W        W41591   3.504   1.348   4.636  0.0996  0.0216  0.1908
25975W        W41592  12.088   9.482  13.176  0.1664  0.1432 -0.0830
25976W        W41593  17.989   3.705   5.368  0.0822  0.3338  0.0317
25977W        W41594   2.459  10.064   3.203  0.0004  0.0907  0.1654
25978W        W41595  12.664   4.926  15.726 -0.2366  0.0276  0.0265
25979W        W41596  12.315  10.607   4.949 -0.0369  0.0352  0.0257
25980W        W41597  12.427  16.122  12.659  0.2407 -0.0202 -0.1501
25981W        W41598   8.956   7.700  16.484 -0.0560 -0.1220 -0.0828
25982W        W41599   9.357  13.186   5.174  0.0152  0.2132  0.1049
25983W        W41600   2.034   1.222  14.175 -0.2247 -0.1786 -0.0203
25984W        W41601   0.671  11.292   2.622 -0.0029 -0.3417  0.0177
25985W        W41602  12.571  14.726   1.923  0.0946 -0.1547 -0.1791
25986W        W41603   1.634   8.544  13.497  0.3769 -0.4068 -0.0792
25987W        W41604  11.486   4.512   0.481  0.1141  0.0122 -0.0164
25988W        W41605  13.685   8.940  13.608 -0.1425  0.2356  0.0472
25989W        W41606  11.305   6.619   3.613  0.1064 -0.1018 -0.0901
25990W        W41607   5.223   1.508   0.164  0.0382 -0.2301 -0.0456
25991W        W41608  14.341   2.448   2.225 -0.0771  0.0793 -0.0253
25992W        W41609   6.300   6.437   5.995 -0.0193  0.2597 -0.0572
25993W        W41610   7.847   5.802   3.559  0.2077  0.2014  0.1059
25994W        W41611  15.109   9.416   2.003 -0.2383 -0.2085 -0.3793
25995W        W41612  13.409   7.366   4.649 -0.4087  0.1223  0.1755
25996W        W41613   8.439   5.293   4.142 -0.0003  0.0790  0.0471
25997W        W41614   7.759  13.988   0.384 -0.0246  0.0724 -0.1375
25998W        W41615   2.702  16.996  15.268  0.0230  0.1086  0.1748
25999W        W41616  16.907  12.456   5.318  0.1495  0.1568 -0.2138
26000W        W41617   2.007  12.702   3.722 -0.0181 -0.1848  0.1814
26001W        W41618   0.677   8.483   5.186 -0.0830  0.0964  0.0686
26002W        W41619   6.589  11.825  12.756 -0.0398 -0.0845  0.0626
26003W        W41620   2.632  11.135  15.081  0.0394 -0.0693  0.0664
26004W        W41621  10.722   1.495  16.524  0.1771 -0.1120 -0.0033
26005W        W41622   8.724   2.972   4.268  0.0008 -0.2303  0.0046
26006W        W41623   2.014   9.577   2.337 -0.0859  0.2051  0.1698
26007W        W41624  11.966   3.083  16.763 -0.0817  0.1259  0.2564
26008W        W41625   2.948   5.566  13.197  0.4561  0.2426 -0.4038
26009W        W41626   8.052   9.479  11.950  0.1125 -0.2112  0.0954
26010W        W41627   0.719  18.039  15.652  0.0496 -0.1356  0.2614
26011W        W41628   3.335  17.663  16.758 -0.2546  0.2347 -0.2935
26012W        W41629  15.508   0.165  15.903 -0.1142  0.0751 -0.0667
26013W        W41630   6.974   7.826   0.213 -0.1004 -0.1739  0.2648
26014W        W41631  13.715   8.402  13.514  0.2255 -0.0794  0.3142
26015W        W41632  17.226  12.506   3.745  0.0241 -0.0509  0.0971
26016W        W41633   6.428  12.219  12.469 -0.1421 -0.0539  0.2434
26017W        W41634  10.883  14.357   2.448 -0.0562 -0.2684  0.1283
26018W        W41635  16.462  16.546  12.524 -0.0953 -0.1561  0.1640
26019W        W41636   5.937  18.025  14.964 -0.4511 -0.2951 -0.4151
26020W        W41637   6.465  14.772   0.218 -0.1183  0.1826 -0.0097
26021W        W41638  11.551   8.523  12.697 -0.1780  0.0439 -0.1371
26022W        W41639  15.135   4.841   1.479  0.3307  0.0464 -0.1766
26023W        W41640   0.757  11.664  13.203 -0.0860  0.1072  0.0867
26024W        W41641  14.921  17.327   5.687 -0.0354  0.0506 -0.1631
26025W        W41642   0.241   3.266   2.951  0.0310  0.1876 -0.0421
26026W        W41643   8.501  16.560   0.363  0.0002  0.1534  0.3224
26027W        W41644   7.731  10.439  16.151  0.1577  0.2293  0.1164
26028W        W41645   4.413   7.463  13.131  0.1489  0.3008 -0.2480
26029W        W41646  11.950   1.784   5.656  0.0439 -0.1323  0.0931
26030W        W41647   9.219   6.234  11.577 -0.1031  0.0357  0.1264
26031W        W41648   8.985  15.411  11.931  0.1352  0.2579  0.2470
26032W        W41649   3.301   3.910  11.854  0.0473  0.2466 -0.0964
26033W        W41650  11.422   4.371  13.432  0.2461 -0.5773 -0.1580
26034W        W41651   2.239   0.327  12.092  0.2238 -0.3538  0.1649
26035W        W41652   9.147   3.295   3.344  0.0578 -0.1038 -0.4072
26036W        W41653   4.168   6.693  12.433 -0.0307  0.3106  0.0814
26037W        W41654   3.457   8.339   4.514  0.2046 -0.1978  0.2953
26038W        W41655   1.071  11.469   0.728  0.0057  0.0416 -0.0639
26039W        W41656   9.940   0.391  11.944 -0.1696 -0.2196 -0.0495
26040W        W41657  13.346  14.379  16.398 -0.1874 -0.3148 -0.2890
26041W        W41658  16.341   9.051   3.049 -0.0877 -0.0128  0.3190
26042W        W41659   1.537   0.051   4.844  0.1997  0.1454  0.0022
26043W        W41660  13.020   4.206   1.465 -0.0452  0.3228 -0.1002
26044W        W41661   9.132  11.658   3.696 -0.0141 -0.1145 -0.3220
26045W        W41662   0.878  14.481  14.727  0.0633 -0.0346 -0.0839
26046W        W41663  15.352   3.140   3.667  0.3741 -0.1669  0.1185
26047W        W41664   2.145  14.936  15.529  0.1390 -0.1006 -0.1521
26048W        W41665  10.072  17.951   4.732 -0.1497 -0.1732 -0.2212
26049W        W41666   9.545   6.734  13.954  0.2975 -0.1895 -0.0022
26050W        W41667  11.112   1.142   3.740 -0.2914 -0.1305  0.0852
26051W        W41668   0.043   3.252  16.793 -0.2155 -0.1094 -0.0297
26052W        W41669   4.501  17.703  10.566 -0.4245 -0.2890 -0.0098
26053W        W41670   4.167   4.253   4.145  0.1362 -0.1585 -0.0881
26054W        W41671  13.714   1.550   0.151 -0.0452 -0.0856  0.1020
26055W        W41672   2.330  10.465  11.659 -0.0045 -0.1605  0.0106
26056W        W41673   0.863   8.647   0.192  0.0473  0.3791 -0.1216
26057W        W41674   5.482  15.779  12.657  0.0368  0.0326  0.1628
26058W        W41675  14.555  10.118  14.984 -0.1860 -0.0584  0.2702
26059W        W41676  16.834   6.051   2.153  0.0096 -0.0316 -0.0672
26060W        W41677   0.258   0.340   2.925  0.2817 -0.2128  0.2150
26061W        W41678  11.269  15.658   2.914 -0.2308  0.2859 -0.1974
26062W        W41679   8.858  10.356   5.174  0.2685 -0.2129  0.2652
26063W        W41680   5.905  14.236   1.350  0.2262  0.0802 -0.0220
26064W        W41681  11.661   0.388  13.357 -0.0234  0.0837  0.2947
26065W        W41682   2.708  17.250  12.227 -0.0058  0.2276 -0.0999
26066W        W41683   3.283   3.416   2.451  0.2840  0.1257  0.0086
26067W        W41684   1.525   2.258  14.410  0.3111  0.1381 -0.2167
26068W        W41685   6.550  12.144   0.007  0.4071 -0.2598  0.2022
26069W        W41686   4.860   8.070   3.084 -0.1992  0.3703 -0.1370
26070W        W41687   1.313  11.633  13.360  0.0936  0.2623 -0.0684
26071W        W41688  14.415   6.126   4.564 -0.0312  0.0918  0.3450
26072W        W41689  11.259  15.131   0.215 -0.2333  0.2763 -0.2607
26073W        W41690   4.974  10.572  15.691 -0.0823 -0.1087  0.0924
26074W        W41691   4.802  16.655   5.360 -0.2033 -0.3741  0.0422
26075W        W41692  15.366   8.623  11.947 -0.1301  0.2630  0.2039
26076W        W41693   2.018   2.572  16.559 -0.2372  0.0624 -0.1318
26077W        W41694   4.531  14.487   0.325  0.2556  0.3986 -0.0208
26078W        W41695   8.501   2.570   0.772 -0.0545 -0.0627  0.3410
26079W        W41696   9.600  13.264   7.111 -0.0348  0.1146 -0.0787
26080W        W41697   1.180   0.356   0.677 -0.2439  0.0944  0.2000
26081W        W41698   5.946   9.512  11.395  0.0335  0.1207  0.2818
26082W        W41699  10.957  14.379  10.857 -0.2769 -0.1543  0.0071
26083W        W41700   3.432   3.816   0.311 -0.0203  0.1028  0.0246
26084W        W41701  10.792  17.920   4.810 -0.2656 -0.0369  0.0018
26085W        W41702  14.156   7.480   3.928  0.0983  0.2260 -0.0513
26086W        W41703   6.304  11.524   3.912  0.1429  0.0165  0.1123
26087W        W41704  16.146   1.991   2.469 -0.0792  0.1829  0.1383
26088W        W41705  14.847  13.502  12.711 -0.1072 -0.0855 -0.1177
26089W        W41706  12.087  15.003   2.020 -0.2960  0.1345 -0.0179
26090W        W41707   9.783   2.891   1.222  0.0920  0.0147 -0.0368
26091W        W41708   8.378   1.927  13.395  0.1336 -0.0845 -0.1186
26092W        W41709   5.632   0.859   5.877 -0.1292 -0.1102 -0.2267
26093W        W41710   7.269   4.782   6.168  0.2674 -0.1125 -0.3455
26094W        W41711  11.996  16.870   0.622  0.1767  0.0559  0.0885
26095W        W41712  15.289  13.687  13.271  0.2810  0.0119  0.1944
26096W        W41713  17.128  11.280   2.772  0.0658  0.2036  0.0621
26097W        W41714  10.384   5.237  13.648  0.0359 -0.0791  0.3001
26098W        W41715  17.705   9.839  16.166  0.0065 -0.0106 -0.3868
26099W        W41716  14.462  13.185  14.221  0.0373 -0.4913  0.0314
26100W        W41717   8.214  15.731   0.892 -0.0869  0.0638  0.2253
26101W        W41718  10.047   5.037  16.764 -0.4252 -0.0387 -0.0872
26102W        W41719  17.525   3.990   1.054  0.0984  0.3523  0.2054
26103W        W41720   3.858  17.696  15.467 -0.0834 -0.1541  0.0340
26104W        W41721   4.566  12.704   5.112 -0.1565 -0.0028  0.1865
26105W        W41722   1.475   5.344   0.219  0.0917 -0.2665 -0.0688
26106W        W41723  11.740   4.875  13.991 -0.0963  0.2464 -0.1156
26107W        W41724  15.968   3.958  16.399  0.0256 -0.2456 -0.1971
26108W        W41725   9.120   9.926  13.378 -0.0728 -0.1934  0.1454
26109W        W41726  14.602  10.076   3.069 -0.2757  0.0958  0.0191
26110W        W41727  10.887  16.554  15.449 -0.0725 -0.1362 -0.1009
26111W        W41728  13.808  16.114  15.013  0.0433 -0.0101  0.1620
26112W        W41729   6.636   5.349   0.023  0.1270  0.0164 -0.2047
26113W        W41730  15.676  13.172  12.886  0.1366 -0.1414  0.2846
26114W        W41731  15.036   5.531   5.130 -0.3803  0.3331 -0.2439
26115W        W41732   5.227   5.611   0.438  0.1227 -0.4896  0.4829
26116W        W41733   7.663   5.068  12.308  0.0502  0.1623 -0.0115
26117W        W41734  10.215   0.007  11.641 -0.2530  0.0788  0.1326
26118W        W41735   0.271   4.999   0.358 -0.0561  0.4190  0.3639
26119W        W41736   7.366   6.611  16.748 -0.0653  0.5046  0.2403
26120W        W41737  10.412   7.245   5.719 -0.1233  0.2291  0.0104
26121W        W41738  11.629   0.879   4.084 -0.4131 -0.0528  0.1464
26122W        W41739   4.106   8.332   0.683  0.0135  0.2986 -0.2035
26123W        W41740  16.556  10.042   2.096  0.0982  0.1208 -0.0781
26124W        W41741  11.435  14.457   6.257  0.0320 -0.0307 -0.1977
26125W        W41742  13.975   6.901  15.905  0.1906  0.0860  0.3528
26126W        W41743  14.737  16.011   1.555  0.3618 -0.0847  0.0498
26127W        W41744   4.267  17.044   1.557  0.0621  0.0852  0.2408
26128W        W41745   4.421  17.270  14.758  0.0649 -0.0038 -0.0312
26129W        W41746   3.874   9.030  13.556  0.1549 -0.0453 -0.0835
26130W        W41747  10.510  12.566  13.892  0.5565 -0.2414  0.1577
26131W        W41748   9.804  18.009   0.327  0.1982  0.3290 -0.1258
26132W        W41749   2.909  16.119   4.908  0.1551  0.3097  0.0277
26133W        W41750   2.052   2.204  13.128  0.1641  0.2210  0.2817
26134W        W41751   1.345  17.762   3.170  0.1742  0.2435 -0.0230
26135W        W41752  14.071  10.867   6.050 -0.1018 -0.4736  0.1260
26136W        W41753  17.056   8.200   4.108  0.3828  0.1674  0.1444
26137W        W41754   2.009   8.882  13.359  0.2141 -0.0818  0.0951
26138W        W41755   0.765   8.899  11.961 -0.0696  0.1150 -0.1123
26139W        W41756   0.169   7.535   2.663  0.2795  0.4466 -0.1952
26140W        W41757   6.916  15.678   3.986  0.2138 -0.1876 -0.2833
26141W        W41758   6.008  16.048  15.989 -0.1211  0.1344 -0.2506
26142W        W41759  16.426  14.172  14.406 -0.2108 -0.0014 -0.1704
26143W        W41760   6.779  12.209   1.082  0.1645  0.0962 -0.3913
26144W        W41761   2.045  12.871   5.677  0.4356 -0.0765  0.1489
26145W        W41762  14.084  17.619   0.078 -0.0710  0.1858  0.2086
26146W        W41763   4.525  14.809   3.161 -0.1192  0.1160  0.0916
26147W        W41764   8.762  15.857  16.765  0.4123  0.1276  0.0983
26148W        W41765  12.225   5.958   3.643  0.1465  0.0286  0.0271
26149W        W41766  11.788   1.187  13.056 -0.3125  0.2944 -0.1825
26150W        W41767   0.475  10.142   1.128 -0.0234 -0.0499  0.1361
26151W        W41768   1.149  15.777   0.044  0.0444  0.0568 -0.2529
26152W        W41769   0.789   8.767   3.555 -0.3928  0.1150 -0.0431
26153W        W41770   3.463  17.326   1.737 -0.3100 -0.1814  0.0824
26154W        W41771   4.172  17.359  13.258  0.0596  0.0240 -0.2439
26155W        W41772   4.843   1.557  15.982 -0.0669  0.0693  0.0969
26156W        W41773   5.101   0.175  13.724 -0.4612  0.1447 -0.0155
26157W        W41774  13.702   6.494   0.875 -0.1609  0.0521 -0.1255
26158W        W41775   2.883   8.999   5.773 -0.2598  0.3561  0.2110
26159W        W41776   8.073   1.537   3.416  0.1715  0.0084  0.0312
26160W        W41777  15.470   7.108  16.096  0.0033  0.0150  0.0661
26161W        W41778   1.296  15.216   5.426  0.1462  0.1983 -0.3311
26162W        W41779  16.855  17.386  15.889  0.3824  0.0886 -0.0058
26163W        W41780   9.553  16.430  16.418 -0.1569  0.2160  0.0561
26164W        W41781  17.792   1.067   2.756  0.2106  0.2270 -0.0763
26165W        W41782   2.529  15.383  14.068 -0.0724 -0.0265  0.0894
26166W        W41783   1.129  14.328  14.290  0.2470  0.0981 -0.0839
26167W        W41784  10.044   9.492   5.030  0.0639 -0.0025 -0.2134
26168W        W41785  15.085   0.160  16.433 -0.2943  0.3345  0.2586
26169W        W41786  10.211  16.073   2.507 -0.0604 -0.1415  0.0213
26170W        W41787   2.281   4.793   3.001 -0.1781 -0.0440 -0.1216
26171W        W41788  15.600  14.206  14.575  0.0528 -0.3908  0.2173
26172W        W41789   4.636   0.737   4.574 -0.2581  0.2491  0.0736
26173W        W41790   7.929  17.915  10.720 -0.0216  0.0182  0.0060
26174W        W41791   5.671   1.548  13.550 -0.0405  0.1507  0.0963
26175W        W41792  16.566   1.244  16.211  0.0782  0.0123 -0.1209
26176W        W41793  16.013  16.728   0.378 -0.0932 -0.1427  0.1780
26177W        W41794   0.630   7.129   2.773  0.0864  0.3773 -0.2873
26178W        W41795   7.090  16.158   4.019  0.0110 -0.0799  0.3229
26179W        W41796   4.086   7.900  11.662  0.1686 -0.0488  0.2462
26180W        W41797  14.901   3.070   3.460  0.0299 -0.0293  0.3693
26181W        W41798   6.386   5.847  14.498  0.0228  0.0075 -0.0126
26182W        W41799   9.759  10.364  15.121  0.0403  0.0044 -0.1606
26183W        W41800   0.485   7.561  14.078 -0.1531  0.1208  0.1012
26184W        W41801  11.063  12.426  12.344 -0.0901  0.2285 -0.0811
26185W        W41802  11.319   7.506   2.427 -0.1114  0.0851 -0.1914
26186W        W41803   5.851   0.321   4.606 -0.1539  0.1570 -0.0628
26187W        W41804   9.280  16.282  16.016 -0.0690  0.0649 -0.2456
26188W        W41805   7.487   7.382  12.568 -0.1999  0.0014  0.0338
26189W        W41806   3.276   9.645  16.460 -0.0222 -0.0420 -0.2264
26190W        W41807   6.804  11.061  15.665 -0.1134  0.2218 -0.0482
26191W        W41808  11.972   5.798   5.290 -0.1894  0.1620 -0.1758
26192W        W41809  17.194   6.900   2.456 -0.5688  0.3939 -0.0699
26193W        W41810  17.877  16.494  14.336 -0.0351 -0.1765 -0.0618
26194W        W41811  13.605  11.551  15.778  0.0696 -0.0960 -0.0913
26195W        W41812  17.921   3.144   4.834  0.2331  0.0089  0.2371
26196W        W41813  16.443   2.504  16.323  0.1310  0.1151 -0.1314
26197W        W41814   9.027   8.730  13.639  0.1635  0.3447 -0.4334
26198W        W41815  11.802  11.982  16.342  0.0350  0.2671  0.2489
26199W        W41816  16.981  10.178   4.305  0.0357  0.3877 -0.2197
26200W        W41817  15.412   8.667  14.163  0.1361 -0.2727  0.0815
26201W        W41818  11.278  17.584   5.012  0.1275 -0.1159  0.1428
26202W        W41819   5.900  12.209  12.208  0.2053  0.0892 -0.1344
26203W        W41820   8.375  14.782   3.188 -0.0759 -0.0868 -0.1820
26204W        W41821  12.971  13.922   0.827 -0.2289 -0.2060  0.0753
26205W        W41822   9.560   6.825   0.305 -0.1516  0.2502 -0.0000
26206W        W41823  12.050   3.447  16.368  0.1419 -0.0232 -0.1559
26207W        W41824  10.869  10.564  11.702 -0.4431 -0.1180  0.2256
26208W        W41825   8.064   9.477   0.153  0.1214 -0.1091 -0.0697
26209W        W41826   2.459  17.770   3.939  0.2483  0.2241 -0.0461
26210W        W41827   1.790   5.626  13.691  0.1530 -0.4064  0.1302
26211W        W41828  15.644  16.413   2.457  0.2074 -0.1169  0.1157
26212W        W41829   9.689   2.502  13.227  0.0106  0.3216  0.0170
26213W        W41830  10.938   1.947   1.240  0.0920 -0.3371 -0.0543
26214W        W41831  10.522   0.365   3.735  0.0832  0.4055 -0.0971
26215W        W41832   5.529  11.566   0.316 -0.0314 -0.0032  0.1306
26216W        W41833  10.886   1.457   2.672 -0.2397  0.0590  0.1469
26217W        W41834  10.557   6.522  11.096  0.0617 -0.0103 -0.0386
26218W        W41835   9.224  10.626  13.405 -0.1772  0.1021  0.2316
26219W        W41836  16.200  10.708  13.062 -0.2225  0.1805  0.0920
26220W        W41837   4.538   9.335   3.437 -0.0907  0.1655 -0.1727
26221W        W41838   3.019   1.268  13.566  0.2914  0.1167  0.0567
26222W        W41839  17.892   3.483   2.674  0.2161 -0.0697 -0.1164
26223W        W41840   5.301   2.741  16.679  0.1428 -0.1480 -0.1367
26224W        W41841   4.461   6.342  11.500 -0.0202 -0.0718 -0.0262
26225W        W41842  10.027   6.542   0.089  0.3244  0.0430 -0.0351
26226W        W41843   0.138  12.682   2.514 -0.2309  0.0908  0.0614
26227W        W41844  16.626   5.168  13.565  0.0207  0.0827 -0.0597
26228W        W41845   5.343  16.910   3.553 -0.0861  0.2164 -0.2012
26229W        W41846   5.187   7.079  14.975  0.3093 -0.1292 -0.0991
26230W        W41847  16.602   9.849   4.322 -0.1801 -0.1713  0.2827
26231W        W41848   9.664   1.425   3.408  0.0742 -0.0264  0.0971
26232W        W41849  11.031  15.087  13.890 -0.0122 -0.0779 -0.2269
26233W        W41850   2.075   3.941  14.240 -0.0088 -0.1245  0.3278
26234W        W41851  14.509  14.978   6.291  0.1023  0.0839 -0.1570
26235W        W41852  16.402   6.515   1.426  0.1565  0.1242 -0.3106
26236W        W41853  10.334   7.622  11.661  0.2354 -0.0758 -0.0021
26237W        W41854  12.622   2.566  15.049  0.0461 -0.0678  0.0394
26238W        W41855  15.541  14.181   4.157 -0.1151 -0.1950 -0.0709
26239W        W41856   1.848  13.495  13.258 -0.0567 -0.1351  0.0793
26240W        W41857   4.722  17.708  11.995  0.2721 -0.1365  0.0802
26241W        W41858  16.254  13.908  16.291  0.1511  0.0005  0.1665
26242W        W41859  11.834   0.160  15.068  0.1518  0.1348  0.3272
26243W        W41860   7.099   3.839  15.383 -0.1969 -0.2388 -0.0444
26244W        W41861   3.692  14.173  14.965  0.0305 -0.0520  0.0949
26245W        W41862   9.641   0.294   1.143  0.4330 -0.2354 -0.0411
26246W        W41863   1.713   3.474  15.340 -0.3065 -0.0753  0.0918
26247W        W41864   4.204  13.685   3.946 -0.1034 -0.0417  0.2181
26248W        W41865   6.064   1.988   0.144  0.0546 -0.3207  0.1121
26249W        W41866  15.293   9.348   4.788 -0.0791 -0.0404  0.0105
26250W        W41867  16.758   5.175  16.209  0.0248  0.0379  0.2502
26251W        W41868  10.537  16.730  13.220  0.0915 -0.3625  0.0087
26252W        W41869   0.490  11.272  12.857  0.0816  0.2827  0.0170
26253W        W41870   8.608  14.765   2.322 -0.3876  0.1672  0.1442
26254W        W41871  16.198  14.159   1.640 -0.0479  0.3346  0.1134
26255W        W41872  17.465  12.011   3.430  0.0936 -0.4027 -0.0214
26256W        W41873   2.206   6.706   4.194 -0.0529  0.0759  0.0030
26257W        W41874  14.447  15.060  13.936  0.1349  0.1845  0.0492
26258W        W41875   6.591   1.033   1.687  0.1699 -0.0985 -0.1002
26259W        W41876  13.947  12.031   3.107 -0.0175  0.0821 -0.0351
26260W        W41877  14.403  15.255   1.077 -0.1361 -0.3247 -0.0653
26261W        W41878   3.961  16.349   5.179  0.0854 -0.1969 -0.0493
26262W        W41879  12.820  16.857  14.512 -0.0490  0.1034 -0.0972
26263W        W41880   2.019  17.203   0.450  0.1932  0.0178  0.0275
26264W        W41881  10.100  11.610  11.022 -0.0711  0.0530 -0.2188
26265W        W41882   6.175  17.681   2.210 -0.3728 -0.2044  0.0783
26266W        W41883  14.017  15.354   2.649  0.1720  0.1641 -0.1746
26267W        W41884   1.405   7.367   0.431 -0.0087  0.0400  0.2077
26268W        W41885   5.244   7.787  12.870  0.0698  0.0199 -0.0811
26269W        W41886   7.149   4.077   0.444 -0.1637 -0.4217 -0.2946
26270W        W41887   4.631   5.331  15.711  0.0108 -0.2348  0.1738
26271W        W41888   0.743  10.236   5.902 -0.1726  0.0458 -0.2035
26272W        W41889  15.009   7.731   4.243 -0.1910 -0.4864  0.2080
26273W        W41890   1.724   1.139   2.306  0.1927 -0.1657  0.0079
26274W        W41891   0.553   2.772   5.248 -0.1270 -0.0318  0.0701
26275W        W41892  15.132   8.634  16.662 -0.0208  0.1759  0.1959
26276W        W41893  14.268   8.948  12.097  0.3587 -0.1003  0.0593
26277W        W41894   5.611  13.706   2.132 -0.2075  0.4744  0.0563
26278W        W41895  14.878   1.144   3.695  0.1639 -0.1158  0.0563
26279W        W41896  13.568  10.181  12.967 -0.1956 -0.0769  0.1524
26280W        W41897   9.020   3.272   0.722  0.1943 -0.0903  0.2581
26281W        W41898  11.527   9.703   4.589 -0.0189  0.3139 -0.0361
26282W        W41899  11.034  15.021  12.520  0.0554 -0.0128  0.1627
26283W        W41900   9.428   5.105   4.825 -0.0797 -0.2052  0.2723
26284W        W41901   5.588   8.387  16.547  0.0025  0.2223  0.1106
26285W        W41902   8.691   0.714  15.643 -0.0992 -0.1656 -0.1174
26286W        W41903  17.209  11.342  16.246 -0.1286 -0.1897  0.2942
26287W        W41904  17.189   9.504   5.050  0.2117 -0.0854  0.1069
26288W        W41905   0.324   1.370  16.144  0.2731 -0.2460 -0.1439
26289W        W41906   1.086  16.010   1.983  0.0754  0.2832  0.2913
26290W        W41907   3.104  15.402   2.540 -0.0605  0.1156  0.1429
26291W        W41908  16.690   6.692   4.076 -0.2444  0.4654  0.1889
26292W        W41909  14.267  15.028   2.285 -0.0981 -0.0893 -0.1297
26293W        W41910   6.998  14.341  13.327  0.2178 -0.2294 -0.0969
26294W        W41911  15.738  10.284  16.564  0.0113  0.2076 -0.0057
26295W        W41912   1.830  16.000  12.606  0.0380 -0.0145 -0.0144
26296W        W41913  14.576  11.336   2.903 -0.0443  0.2639  0.0795
26297W        W41914   8.385   4.146  13.807  0.0100  0.1725 -0.1318
26298W        W41915  12.809  12.128  13.293 -0.2086  0.0096 -0.1953
26299W        W41916  14.636   3.289  11.011 -0.1807 -0.3647  0.3408
26300W        W41917  13.509  11.706   5.605  0.1224  0.0591 -0.0750
26301W        W41918  17.723  10.346   1.818  0.0038  0.1510 -0.1893
26302W        W41919   2.224  17.696  12.088  0.0504  0.0769 -0.1315
26303W        W41920   6.152  14.362   3.848 -0.1892  0.1664  0.1749
26304W        W41921  16.154   6.012   1.602  0.0750 -0.1061 -0.2254
26305W        W41922   2.839   7.024   1.341 -0.1830  0.4858  0.0791
26306W        W41923  16.981   3.991   1.697 -0.1458  0.0064  0.0617
26307W        W41924  11.473  17.672   5.501  0.2796 -0.2111 -0.2290
26308W        W41925  14.757   4.776   2.617 -0.1034 -0.3015  0.2391
26309W        W41926   3.183   4.477  16.678  0.0115  0.1475 -0.2939
26310W        W41927  10.744   5.333   3.053  0.1356  0.2837  0.1311
26311W        W41928  15.325   9.405   5.970 -0.3999 -0.1717  0.1080
26312W        W41929  15.212  13.202  13.108 -0.2867  0.0255  0.6169
26313W        W41930   9.555  10.342  12.007 -0.1067  0.0738 -0.1065
26314W        W41931   5.043   8.956  14.728 -0.0503 -0.3813  0.0371
26315W        W41932   7.614  11.531  14.719  0.1555  0.1492  0.0070
26316W        W41933  10.515  15.102  16.492  0.0459  0.2189  0.0855
26317W        W41934  17.425  10.900   3.717 -0.2562 -0.1182  0.0001
26318W        W41935   9.962   2.119  14.970 -0.0055  0.1700 -0.0837
26319W        W41936  16.497  13.021  13.544  0.0745 -0.1967 -0.1335
26320W        W41937   4.779   4.229  15.151 -0.0991 -0.1281 -0.0100
26321W        W41938   3.786  13.570   2.408  0.2076 -0.1511 -0.0398
26322W        W41939   0.479   5.740   5.578 -0.1545  0.1328  0.3985
26323W        W41940  15.990  12.779  14.214 -0.2472  0.1815 -0.0417
26324W        W41941  12.986  10.192   5.373  0.0030  0.0181 -0.1667
26325W        W41942  14.340   3.926  15.704  0.2503  0.0855  0.1138
26326W        W41943  12.164  12.402  11.821 -0.2854  0.0228 -0.2908
26327W        W41944   5.347  14.288  13.688  0.3173 -0.0192 -0.0644
26328W        W41945  15.652  17.235   3.914  0.0615  0.0493  0.2895
26329W        W41946   5.593   9.455   1.798 -0.0592  0.2030 -0.0154
26330W        W41947   8.932   6.078   3.218  0.0461  0.1620  0.4902
26331W        W41948   0.150  15.097   3.716  0.1622  0.0272 -0.1512
26332W        W41949   5.602  11.947   2.541 -0.3641  0.0408 -0.1900
26333W        W41950   3.034  16.393   2.562  0.0845 -0.2799  0.0766
26334W        W41951   4.266   8.871   2.676  0.3615  0.0957 -0.0150
26335W        W41952   5.210   9.447  13.511  0.2585  0.3448 -0.1288
26336W        W41953   9.611  14.692  11.430  0.1991  0.1823  0.1249
26337W        W41954  16.866  12.786  13.841  0.1312  0.1667 -0.0374
26338W        W41955  10.803   6.759   3.015  0.2677 -0.3658  0.0179
26339W        W41956   8.494  16.954  12.228 -0.2413 -0.1617 -0.0950
26340W        W41957   9.982   5.375   1.360  0.0676 -0.0017 -0.1274
26341W        W41958  15.180  15.200  15.342  0.0694  0.0607 -0.0680
26342W        W41959   3.462   0.989   4.166 -0.0123  0.0009 -0.0628
26343W        W41960   4.538  15.075  12.305  0.0250  0.1770  0.0855
26344W        W41961   5.955  14.155  16.570  0.2834 -0.1857 -0.0013
26345W        W41962  16.544   2.999   0.920  0.1416  0.0006  0.1101
26346W        W41963  14.087   4.396  15.495  0.1650  0.1954  0.1261
26347W        W41964  11.670   7.433   6.209 -0.2592 -0.1470 -0.0779
26348W        W41965   8.952  13.654  15.585  0.2329  0.2482  0.0608
26349W        W41966   5.257  17.891  12.626  0.1547 -0.0547 -0.1370
26350W        W41967  13.756   4.618   1.189 -0.2289  0.0736  0.0402
26351W        W41968  11.743   3.476   4.873 -0.0572 -0.4066  0.0648
26352W        W41969  17.316   3.201   0.349 -0.1631 -0.0605 -0.2636
26353W        W41970  14.139   2.147   1.857 -0.0547 -0.4758  0.0313
26354W        W41971   3.463   8.986   4.241  0.1128  0.0138  0.1539
26355W        W41972  12.178   6.320   1.051  0.3273  0.2726  0.0157
26356W        W41973  10.877   7.114   2.521 -0.0775 -0.0944  0.4227
26357W        W41974   5.871   7.698   1.499 -0.0848 -0.1215  0.2709
26358W        W41975  17.807   0.653   4.020  0.0856  0.1350  0.2074
26359W        W41976   2.621   1.126  13.228  0.1084  0.0069  0.1815
26360W        W41977   6.876  13.939   5.173 -0.1134 -0.1902  0.0187
26361W        W41978  13.528  11.901   0.221  0.2714  0.0331  0.0457
26362W        W41979   7.473   3.492   4.448  0.4221 -0.0214 -0.5461
26363W        W41980  17.526  10.253  12.771  0.0321 -0.0958 -0.1290
26364W        W41981   6.661   5.850  11.952  0.1693 -0.2744  0.2690
26365W        W41982  12.542   6.440   4.565 -0.1303  0.1861  0.3767
26366W        W41983   6.625  12.210  13.646 -0.0209  0.1325 -0.0565
26367W        W41984   9.298  15.667  12.470  0.0341  0.0212 -0.1845
26368W        W41985  17.287  15.676  15.323 -0.2031 -0.0184  0.1385
26369W        W41986  15.279  13.172  12.111  0.3081 -0.1050  0.2104
26370W        W41987  15.785   4.107  12.481  0.1498  0.0720 -0.0590
26371W        W41988  14.058  11.338  14.873 -0.0404 -0.0274 -0.0586
26372W        W41989  10.375   6.388   5.548  0.1705 -0.1723 -0.2777
26373W        W41990   6.584   2.752   1.956 -0.0563  0.2486  0.1644
26374W        W41991   0.167   4.130   5.102 -0.0138  0.0122 -0.1640
26375W        W41992  11.737   5.801  14.435  0.1488 -0.0955  0.0115
26376W        W41993   5.115  10.145  12.858  0.0957 -0.4858  0.0198
26377W        W41994  10.328   7.063   1.572 -0.2887  0.2349 -0.0406
26378W        W41995   8.867  13.171   0.701 -0.0120  0.0766  0.0923
26379W        W41996  14.581   1.376   4.176  0.1749 -0.0413 -0.1105
26380W        W41997   3.045  14.133   4.674 -0.2772 -0.0987  0.1545
26381W        W41998  16.095   6.549   0.667 -0.1596  0.0323  0.3899
26382W        W41999   4.916  13.479  15.043  0.0423 -0.1380  0.0889
26383W        W42000  14.911  17.606   2.652  0.3239  0.2200 -0.0029
26384W        W42001   9.731   9.879   1.022  0.2339 -0.2002  0.1750
26385W        W42002  12.026   8.456   0.832 -0.3291  0.1288 -0.0310
26386W        W42003   9.106  10.745   0.878  0.1813  0.2181  0.0568
26387W        W42004  16.512   6.535   4.643  0.0115  0.0784  0.1405
26388W        W42005   7.124  13.281   3.614  0.0733 -0.1071 -0.1775
26389W        W42006   0.311  15.448  15.951  0.0467 -0.1923 -0.1458
26390W        W42007  16.853   4.893   5.058 -0.2301 -0.1575 -0.1671
26391W        W42008   8.828  14.970  14.378 -0.0698 -0.3043  0.0720
26392W        W42009  12.615  17.859   4.201  0.3026  0.0412  0.0957
26393W        W42010   5.120   5.095   0.282  0.4071  0.0550 -0.0137
26394W        W42011  11.392   6.363   1.897 -0.0267 -0.0063 -0.1196
26395W        W42012  17.487   6.841  16.277  0.0028  0.2329  0.0208
26396W        W42013   7.680  13.979   4.025 -0.0181 -0.0988 -0.4183
26397W        W42014   6.061   8.251  16.786  0.1089 -0.2091  0.0065
26398W        W42015  16.478   4.098   2.875 -0.2118  0.2556 -0.3628
26399W        W42016  16.935   0.462  16.533 -0.1920  0.0362 -0.0959
26400W        W42017  12.887   8.591   2.235  0.0623  0.1576 -0.3174
26401W        W42018   7.263  17.440   2.899 -0.0256 -0.1671  0.0896
26402W        W42019  11.562   5.928   4.911 -0.0681 -0.1962  0.1950
26403W        W42020   6.657   8.744  10.691  0.3136  0.0860  0.0892
26404W        W42021  15.839  16.703   2.098 -0.0838  0.0844  0.0123
26405W        W42022  16.503  15.102   2.979  0.0662  0.2832  0.1348
26406W        W42023   9.463  15.053   6.085  0.1240 -0.1001  0.1891
26407W        W42024   4.343   9.970   3.332 -0.2760  0.3000 -0.5761
26408W        W42025   5.000  10.192   0.395  0.0617 -0.0692  0.4270
26409W        W42026  11.126   0.554  15.362  0.0872 -0.1764  0.1503
26410W        W42027   2.815  12.059   0.018  0.1157  0.1144  0.2390
26411W        W42028   0.730  13.435   1.456 -0.0602  0.0583 -0.1656
26412W        W42029  14.572   2.760   2.758 -0.1424  0.0243 -0.1436
26413W        W42030  16.698   5.954  12.207  0.2605  0.1844  0.0098
26414W        W42031  12.653  16.609  15.833  0.0081  0.3570 -0.1054
26415W        W42032   0.302   2.585   3.477 -0.1442 -0.1440  0.3841
26416W        W42033  10.671   2.502  12.371  0.1000 -0.1577 -0.1661
26417W        W42034  16.254  10.736  15.908 -0.1266  0.2760 -0.0453
26418W        W42035  12.948  14.308  12.733  0.2312  0.2961  0.1935
26419W        W42036  13.403   0.052  16.151 -0.3480 -0.1814 -0.0711
26420W        W42037   4.135   9.158  15.900  0.0116  0.2049 -0.1262
26421W        W42038  10.289  15.252  11.333  0.1570  0.2217  0.2513
26422W        W42039   8.593  16.590   3.856  0.0840  0.3768 -0.2882
26423W        W42040   0.051  17.729   1.681 -0.1942  0.0441  0.1149
26424W        W42041  10.579  17.892   3.655 -0.1450 -0.1295 -0.1180
26425W        W42042  12.950   8.152   2.899 -0.3625 -0.4032 -0.1008
26426W        W42043  14.276   2.012  12.404 -0.1276 -0.0463 -0.3541
26427W        W42044   0.672  13.837  15.789 -0.0757 -0.0629 -0.1542
26428W        W42045   3.320  16.947  14.342  0.0283  0.0105  0.2806
26429W        W42046   4.860   6.547  11.707  0.0347  0.0042 -0.0078
26430W        W42047   2.917   7.725  16.694 -0.0007  0.0670 -0.1754
26431W        W42048   5.354   2.718  12.809  0.0646 -0.1332  0.0520
26432W        W42049  17.339  16.599   3.754 -0.1388 -0.0949 -0.0498
26433W        W42050   2.149   3.363   4.208  0.2130 -0.2006  0.0321
26434W        W42051  11.151  14.441   2.959 -0.2200  0.2309 -0.0195
26435W        W42052   0.352   5.503  15.510  0.0179  0.1872 -0.0167
26436W        W42053   3.290   8.752  12.852 -0.0470  0.0376  0.1262
26437W        W42054   8.844  16.348   4.333 -0.3708 -0.4558  0.1024
26438W        W42055   5.051  17.126   3.048  0.0749  0.2771  0.0358
26439W        W42056   8.618   4.629   1.888  0.3129 -0.0663 -0.0350
26440W        W42057  16.434  11.448  14.664  0.1267  0.1864 -0.3655
26441W        W42058   6.387   1.096   2.627  0.1635  0.1073  0.0126
26442W        W42059   6.632   0.365   2.318  0.0806 -0.1366 -0.0833
26443W        W42060   5.921   2.217  16.471  0.0071  0.0151 -0.3421
26444W        W42061  12.863   5.121   0.730 -0.0067  0.0553 -0.1095
26445W        W42062   0.186   2.751   4.963  0.0136 -0.1223  0.0282
26446W        W42063   4.334   9.153  14.845 -0.1626  0.2337  0.0174
26447W        W42064  15.287  10.015  10.417 -0.1592  0.4186 -0.2093
26448W        W42065   7.855   7.538  15.887  0.1456 -0.0200 -0.1745
26449W        W42066  16.317   8.869  13.669 -0.0794 -0.0939  0.3862
26450W        W42067   1.717   3.880   3.786 -0.1309  0.0347  0.2807
26451W        W42068   3.240  16.554   3.104 -0.0389  0.0587  0.1426
26452W        W42069   0.062  11.090  12.719  0.0512 -0.2271 -0.2501
26453W        W42070  12.433   8.548   0.408 -0.3533  0.0813 -0.3023
26454W        W42071  11.279  11.002   0.360 -0.3430 -0.1560 -0.1490
26455W        W42072  12.904   4.888   2.736  0.1399  0.2354  0.0072
26456W        W42073   1.327  16.858  12.956 -0.1246 -0.2202 -0.2565
26457W        W42074  12.219  16.592   0.248 -0.1065 -0.1143  0.2668
26458W        W42075  16.005  14.403  11.872 -0.1619  0.2340 -0.0027
26459W        W42076  12.991   6.775   3.003  0.0666 -0.5624  0.2187
26460W        W42077   2.259   1.428   3.227 -0.1798  0.1703 -0.1270
26461W        W42078   3.374   0.613   1.617 -0.2500  0.2734  0.1561
26462W        W42079  13.339   7.283   2.459  0.0464 -0.1059  0.0188
26463W        W42080   8.120  10.664  11.095  0.2597 -0.0899  0.2678
26464W        W42081  10.259   5.135   0.989  0.3179  0.4849 -0.1893
26465W        W42082   7.285   3.778   3.046  0.1782  0.3538  0.0636
26466W        W42083   8.846   5.085   3.453 -0.0493 -0.0963  0.0134
26467W        W42084   0.648   6.037  15.006  0.0164 -0.1865 -0.3219
26468W        W42085   2.927   3.759   4.643  0.0173 -0.2335 -0.2219
26469W        W42086   5.431   2.548   6.023  0.1071 -0.0432 -0.0026
26470W        W42087  16.248   4.580   6.568  0.0931 -0.2626  0.0750
26471W        W42088   5.773   4.563   4.075 -0.3188 -0.2816  0.1788
26472W        W42089  15.542   9.617  11.730 -0.1737  0.0528  0.1751
26473W        W42090  11.033   8.442  12.631 -0.3273  0.3627 -0.0234
26474W        W42091   6.037  10.714  15.629  0.1393  0.2698  0.2269
26475W        W42092   1.942   5.120  16.017 -0.0677  0.1873  0.0629
26476W        W42093  14.983   5.947   4.383 -0.2467 -0.2473  0.0047
26477W        W42094   3.882   0.482   3.398 -0.1980 -0.1691 -0.0965
26478W        W42095   9.241   3.394   6.135 -0.1481  0.1046  0.3922
26479W        W42096   1.678  11.028   4.552  0.2816 -0.2295 -0.3813
26480W        W42097   6.180  16.566  15.360 -0.0083  0.1403  0.0912
26481W        W42098  15.597   5.057  13.496 -0.0184  0.0844 -0.0283
26482W        W42099   5.028  17.365  12.137  0.0158 -0.1866  0.0617
26483W        W42100   9.987   0.082   0.784 -0.2276 -0.0178  0.1418
26484W        W42101   0.172  11.640   0.421 -0.0682  0.0959  0.1439
26485W        W42102  11.101  14.757  11.714  0.4284  0.1870  0.3871
26486W        W42103   9.741  10.930   1.463 -0.0274  0.1308 -0.0548
26487W        W42104  13.370  14.107   3.877 -0.2166 -0.0475 -0.0186
26488W        W42105   9.876  12.584   0.636  0.3887 -0.1283 -0.1341
26489W        W42106   4.271   5.356   0.458  0.0799  0.2363 -0.0789
26490W        W42107  13.312  17.347   4.700 -0.1542  0.2771  0.1241
26491W        W42108   4.609  15.468  12.062 -0.3802  0.1137 -0.0340
26492W        W42109  10.788  17.788  16.016  0.4988  0.4762  0.0167
26493W        W42110  14.753   3.198   2.998  0.0135  0.1668  0.0261
26494W        W42111  13.784   5.564  15.206  0.0330  0.1376  0.0305
26495W        W42112   5.942   9.737  12.109 -0.2308 -0.1123  0.1133
26496W        W42113  12.140  17.966   2.135  0.0168  0.2458  0.2511
26497W        W42114  16.901  15.256   0.799 -0.0742  0.3716  0.0745
26498W        W42115   2.890  16.315   5.892  0.1178  0.2135  0.2664
26499W        W42116  11.578  15.856   0.021  0.1156  0.1163 -0.5120
26500W        W42117   3.559  14.436   5.530  0.7618  0.4529  0.0541
26501W        W42118   0.298   1.525  13.022  0.0071 -0.2825  0.0261
26502W        W42119   7.689  14.599  16.513  0.1177  0.5268  0.0409
26503W        W42120  15.273   5.521   0.909 -0.0651 -0.0525 -0.1838
26504W        W42121   5.714   3.795   1.521  0.1200 -0.1523  0.1959
26505W        W42122  16.172  10.294  16.279 -0.1014 -0.3425  0.1410
26506W        W42123   8.607  11.173  11.620  0.0807 -0.0496  0.0118
26507W        W42124   8.502   0.090   1.131 -0.1415 -0.2548  0.1265
26508W        W42125   7.602  12.006  11.123 -0.0091 -0.3443 -0.1206
26509W        W42126  17.492   7.616  11.720  0.1759  0.1025 -0.3939
26510W        W42127   0.117   6.278  14.830  0.0439  0.0660  0.1172
26511W        W42128   6.151  10.323   2.944  0.2571  0.0647  0.0027
26512W        W42129   5.081  10.917   3.804 -0.5576  0.1616 -0.0640
26513W        W42130  14.324  17.406  14.085 -0.1801 -0.1024 -0.0621
26514W        W42131   7.389   8.665  12.573  0.1752 -0.1784 -0.0032
26515W        W42132   9.218  16.523  14.249  0.3176  0.2554  0.1867
26516W        W42133   0.568   5.066  12.409 -0.0435 -0.1238 -0.1082
26517W        W42134   0.726   6.824   2.443 -0.0617  0.3413 -0.3009
26518W        W42135   7.407  11.668  11.711 -0.2667  0.1433 -0.0696
26519W        W42136   1.036  11.527  11.982 -0.1233 -0.0220  0.0638
26520W        W42137  13.068   5.277   3.591 -0.2004  0.1438  0.0092
26521W        W42138  14.226   5.277  13.836  0.0120  0.1403 -0.1850
26522W        W42139   0.846  10.266  15.896  0.0954  0.0792  0.0164
26523W        W42140  10.675   2.511  13.736 -0.2498  0.2175 -0.0748
26524W        W42141  13.734  13.802  15.916  0.0663  0.0639  0.1899
26525W        W42142   2.880   7.468  15.739 -0.0779 -0.0136 -0.2011
26526W        W42143   2.830   7.627   5.473 -0.1832  0.0396  0.1362
26527W        W42144  14.633   5.921   3.309  0.0307  0.2340  0.0119
26528W        W42145   4.597  15.892   4.623  0.0603 -0.0459 -0.1847
26529W        W42146   0.704   0.797  16.655 -0.2103  0.0910 -0.2330
26530W        W42147   5.588  15.495  12.249  0.0233  0.2443 -0.1338
26531W        W42148   3.275   3.332  15.230  0.0397  0.0015  0.0782
26532W        W42149  13.370  14.328   4.428 -0.2302  0.1348 -0.0170
26533W        W42150  10.040   9.357  14.463  0.0747  0.0312 -0.1152
26534W        W42151   6.668   8.061  16.044  0.4113 -0.0843  0.0335
26535W        W42152  12.892  16.504  11.384  0.1003  0.3330 -0.1202
26536W        W42153  11.200  16.398   4.958  0.0127  0.2175  0.1595
26537W        W42154  15.303   1.321   1.241 -0.0559 -0.0486  0.0465
26538W        W42155   8.827  11.569   4.690  0.2633  0.0031 -0.1535
26539W        W42156  16.947   9.987   3.880 -0.0199 -0.3788  0.0118
26540W        W42157   5.516  12.581  13.945  0.0415  0.0848 -0.1940
26541W        W42158   8.528   9.542  14.060  0.1646  0.1895 -0.1897
26542W        W42159   8.504  14.329   2.857 -0.1680 -0.0480  0.2368
26543W        W42160  16.131  17.463  12.361 -0.2828 -0.2100 -0.0798
26544W        W42161  14.141  16.861   4.561  0.2509  0.0079  0.4353
26545W        W42162  16.675  13.025   0.331  0.0375 -0.0277  0.1284
26546W        W42163   8.117  15.612  15.454  0.0907 -0.3358 -0.0545
26547W        W42164   4.595  10.911   3.623 -0.0571  0.1221  0.0357
26548W        W42165   9.313   3.809   3.098  0.4117  0.2357 -0.2517
26549W        W42166  13.396  17.832   4.783  0.1498  0.1386  0.1059
26550W        W42167  10.274   8.901  14.559 -0.1629 -0.2233  0.2524
26551W        W42168  12.439   9.123   5.278 -0.2952 -0.0446  0.0662
26552W        W42169  11.626  16.630  13.794  0.0726 -0.1739 -0.1244
26553W        W42170   5.231   3.876   2.482  0.2121  0.1107 -0.0714
26554W        W42171   6.712   6.932   1.443  0.3698 -0.2576  0.0312
26555W        W42172   7.218   7.388   4.815 -0.0124 -0.0306  0.0142
26556W        W42173   3.575  11.464  14.100 -0.2151 -0.3338  0.1709
26557W        W42174   9.259   8.555   0.204 -0.1496 -0.2307 -0.0417
26558W        W42175   9.963  13.823  13.836 -0.1666  0.2617  0.0769
26559W        W42176  14.735   5.046   4.401 -0.3148 -0.0879 -0.0534
26560W        W42177  10.658   8.206  13.427  0.5007 -0.0522  0.0221
26561W        W42178   7.110   7.129   0.899 -0.3608 -0.4173 -0.3202
26562W        W42179  17.095   1.858   4.299 -0.1538 -0.1803 -0.2060
26563W        W42180   8.724   6.471   5.197  0.1953 -0.1902  0.1212
26564W        W42181   8.628   5.852  14.041  0.2820 -0.1057  0.0977
26565W        W42182  16.972  12.012   3.555  0.0359 -0.4706 -0.1232
26566W        W42183   4.722   8.066   2.559  0.0151 -0.1212 -0.2853
26567W        W42184  10.698   4.962   4.928  0.0573 -0.0022  0.0340
26568W        W42185   3.537   5.527   1.897 -0.1886 -0.2140 -0.5085
26569W        W42186  16.409   8.599  15.266  0.0790  0.1334 -0.0002
26570W        W42187   5.278   1.900  11.823  0.3061  0.2236  0.0630
26571W        W42188   5.423  16.546  15.156  0.0020 -0.2591 -0.0484
26572W        W42189   2.279   9.823  12.166 -0.1073 -0.0736 -0.1842
26573W        W42190  10.839   5.392  16.096 -0.2338 -0.0204 -0.2041
26574W        W42191   3.504  14.988  15.328  0.1828 -0.0180 -0.3429
26575W        W42192   6.809   4.089   5.612 -0.1415  0.0913 -0.0696
26576W        W42193   9.515   7.852  15.401 -0.0904  0.0274 -0.0883
26577W        W42194   1.099   3.911   2.281 -0.0482  0.0073  0.0101
26578W        W42195  14.746  16.429   4.472 -0.1200  0.0915  0.1121
26579W        W42196   3.677   8.350  11.632 -0.2427 -0.1094 -0.1370
26580W        W42197   4.694  16.669  16.434  0.0583 -0.0040 -0.2222
26581W        W42198   4.832  11.249   2.081 -0.1543  0.3074  0.0970
26582W        W42199   4.536   8.155  15.604 -0.0082 -0.0674 -0.2234
26583W        W42200  10.972   6.917  15.327  0.2368 -0.0458 -0.0523
26584W        W42201   8.524  10.170   3.823  0.0997  0.1883 -0.0390
26585W        W42202   1.730   7.866   4.815  0.1315 -0.2129 -0.0723
26586W        W42203  13.686   4.654  14.631 -0.1557 -0.2553  0.0637
26587W        W42204   4.264  11.009   4.958 -0.3513  0.2227 -0.0843
26588W        W42205  13.167  15.945   2.365  0.1540 -0.1237 -0.0834
26589W        W42206   0.904   3.818   5.121  0.1884 -0.1978 -0.1934
26590W        W42207  17.287  11.732   2.538 -0.1780 -0.2723  0.0767
26591W        W42208   8.457   8.777  13.466 -0.2272 -0.0253 -0.2080
26592W        W42209   0.405  17.749   5.554  0.2872 -0.1739  0.3670
26593W        W42210   7.387   0.573  11.913 -0.1511 -0.1262 -0.0383
26594W        W42211  11.485  11.851   1.406  0.2444  0.2564 -0.0635
26595W        W42212  12.662   0.359  13.898 -0.1352 -0.2026  0.2478
26596W        W42213  14.519  16.014   0.676  0.0414  0.0955  0.1035
26597W        W42214   1.387  16.360  11.853  0.4239  0.0933 -0.2147
26598W        W42215  17.214  11.071  15.783 -0.1788  0.1065  0.0289
26599W        W42216   9.084  14.523   0.651 -0.2937  0.0872  0.2017
26600W        W42217  15.972  17.206   2.087 -0.1834  0.0218  0.1093
26601W        W42218   1.392  13.360   5.639 -0.0811 -0.1025 -0.3285
26602W        W42219  13.640   9.170   3.983  0.0828 -0.2163 -0.1485
26603W        W42220   4.272   8.734   4.664 -0.3265 -0.1000  0.1124
26604W        W42221   8.815   6.312  15.374 -0.0816  0.0779 -0.0491
26605W        W42222   7.171   8.203  14.630 -0.0435 -0.0872 -0.2146
26606W        W42223   8.563   1.899   1.229  0.0227  0.1371 -0.2014
26607W        W42224  10.370  16.814  14.068 -0.1700  0.3000 -0.3712
26608W        W42225   6.204   0.617   4.327  0.0207  0.0589 -0.2242
26609W        W42226   0.933   9.061  12.581  0.1653 -0.1166 -0.1410
26610W        W42227   9.216  17.057  16.435  0.1212 -0.0154  0.0764
26611W        W42228   8.227  13.582   4.376  0.0946  0.1272 -0.0912
26612W        W42229  14.789  11.091  14.610  0.0146  0.1135  0.0035
26613W        W42230  11.345   9.987  11.360 -0.1052  0.0152 -0.2105
26614W        W42231  16.839   5.889   5.473  0.2466 -0.1136 -0.1028
26615W        W42232   8.929   6.094  14.377 -0.0265 -0.3825  0.0256
26616W        W42233  17.822   9.424   2.045 -0.2010 -0.0334  0.0821
26617W        W42234   4.291  11.161   1.588 -0.1269 -0.0995  0.1471
26618W        W42235   4.319   8.161  16.456  0.1168 -0.2387 -0.0774
26619W        W42236  13.133   6.625   1.941 -0.2158  0.1745 -0.1111
26620W        W42237   3.475  14.738  14.880  0.1693  0.2991 -0.1308
26621W        W42238   7.749  16.165  13.888  0.1837 -0.0257  0.1928
26622W        W42239   6.415   4.582   0.598 -0.1578 -0.0258 -0.0772
26623W        W42240  12.264   6.757   1.320  0.1673  0.2021 -0.1294
26624W        W42241   0.209   4.682   0.808 -0.2915  0.3442 -0.1184
26625W        W42242   3.545  11.775   2.645  0.0598 -0.2897 -0.3335
26626W        W42243   7.501  10.177  14.601  0.0885  0.0671 -0.0613
26627W        W42244   3.573  17.570  13.000  0.1456 -0.0366  0.1348
26628W        W42245   1.569   8.928   3.934 -0.0066  0.0124 -0.1964
26629W        W42246  15.936   4.275   1.426 -0.1008  0.1235  0.2373
26630W        W42247   2.697   1.004   3.323  0.0560  0.0339  0.1812
26631W        W42248  12.378  11.412  11.330  0.2694 -0.4024  0.1586
26632W        W42249   8.771   3.342   5.447  0.0177 -0.1244  0.1425
26633W        W42250   4.184   3.380  11.235 -0.0552  0.0548  0.3095
26634W        W42251  15.695   8.708  12.486  0.0164  0.4693  0.0236
26635W        W42252  13.806   9.859  13.692 -0.2581  0.1340  0.1223
26636W        W42253   2.760  10.652  13.841  0.4521  0.2975 -0.0312
26637W        W42254  10.224  10.371   3.301  0.1233  0.1246 -0.1235
26638W        W42255  17.888  16.330  14.794  0.1759  0.2164  0.2184
26639W        W42256   7.654  17.467   3.630 -0.0836  0.1246 -0.2012
26640W        W42257  10.106  16.170   3.026 -0.1324  0.1646  0.0088
26641W        W42258  14.937   4.769  12.687 -0.1288 -0.0861  0.3281
26642W        W42259   0.633  12.008   5.302 -0.1234  0.1022  0.1381
26643W        W42260   2.241   5.249  12.656 -0.3571  0.3198 -0.1687
26644W        W42261  17.417   4.510  11.780  0.0805 -0.1558 -0.0420
26645W        W42262   0.820  11.059   6.395  0.1186 -0.3647 -0.0993
26646W        W42263  13.721  17.242   3.905  0.1759 -0.1251 -0.1498
26647W        W42264  17.604   3.840   5.042 -0.0324 -0.1205 -0.3156
26648W        W42265  12.380  14.861  15.170 -0.0384 -0.4036 -0.0127
26649W        W42266  12.187   0.714  15.943 -0.1843  0.1359  0.1444
26650W        W42267   1.361   2.459  12.579 -0.2111  0.0732 -0.1725
26651W        W42268   2.951   4.157  13.061 -0.0999 -0.0200  0.0074
26652W        W42269   8.200   6.863  16.357  0.0780  0.0018 -0.0102
26653W        W42270  11.212  11.708   6.311 -0.0928 -0.0467 -0.0772
26654W        W42271  15.072   6.444  15.862 -0.0517 -0.1140 -0.1161
26655W        W42272  10.539   1.754  13.129  0.0561 -0.2834  0.2535
26656W        W42273  13.562  11.406  12.413 -0.0410  0.0898 -0.0101
26657W        W42274  13.104  12.717  12.509 -0.1127 -0.2825  0.3191
26658W        W42275   6.395   2.022   4.965  0.1408 -0.3408 -0.0578
26659W        W42276  10.340  15.172   4.041  0.0865  0.1091  0.0913
26660W        W42277   0.605   0.510  15.789 -0.0132 -0.0431 -0.1541
26661W        W42278   8.710   3.256  13.768  0.0934 -0.1984 -0.2345
26662W        W42279   3.483   9.965  14.559  0.0748  0.0069  0.0335
26663W        W42280  12.407  16.754  12.784  0.0726  0.0519 -0.2268
26664W        W42281   9.173   9.710   4.506 -0.0238  0.0463  0.1082
26665W        W42282  17.559  16.412  15.146 -0.0148 -0.0211  0.0730
26666W        W42283  10.724   0.817   3.665  0.0390 -0.2761 -0.1174
26667W        W42284   4.835   0.849  11.465  0.1715 -0.1889 -0.1206
26668W        W42285   3.676   6.861  14.596 -0.0745  0.0408 -0.1646
26669W        W42286   2.849  10.749   2.635 -0.0448  0.3487 -0.2266
26670W        W42287   9.809   9.512   1.727 -0.1894 -0.2885  0.0860
26671W        W42288   1.001  12.250  13.959  0.2095 -0.0931 -0.1031
26672W        W42289   2.880   2.199  16.615  0.1102 -0.1038  0.0376
26673W        W42290  16.780  17.625   0.562  0.0467  0.3650 -0.5605
26674W        W42291   5.128  13.514  13.787  0.0143  0.0120  0.0818
26675W        W42292   5.265  15.067  13.591  0.3611  0.0179  0.1679
26676W        W42293  16.917  16.230  12.582 -0.0440 -0.0579  0.3600
26677W        W42294   1.775   2.946   1.154  0.0950  0.0281  0.0040
26678W        W42295  17.403   4.554   2.839 -0.1008 -0.2875 -0.0153
26679W        W42296   6.068   1.447  15.607 -0.1051  0.2889 -0.0766
26680W        W42297   5.055   7.918   2.156  0.2040  0.2760 -0.0356
26681W        W42298  14.408   8.820  15.692 -0.1004 -0.1442  0.1187
26682W        W42299   5.986   3.699  15.220 -0.2653 -0.1716 -0.2973
26683W        W42300  16.024   3.368   5.559 -0.0224 -0.2331 -0.0852
26684W        W42301   0.379  12.255  12.684  0.1203 -0.1490  0.3928
26685W        W42302   8.442  11.772  14.806 -0.1031 -0.0156 -0.0387
26686W        W42303   3.260  11.700   3.926  0.0516 -0.0104 -0.1163
26687W        W42304   5.231  16.203  14.226 -0.1421  0.2235 -0.0606
26688W        W42305  10.661   4.481  12.944  0.1139 -0.0817 -0.1235
26689W        W42306   8.531   7.994   3.056  0.1397  0.1843  0.2144
26690W        W42307   3.670  17.214  12.513 -0.0777  0.1847  0.4409
26691W        W42308  17.344  15.295   5.746 -0.1463  0.0400 -0.1799
26692W        W42309   2.074   5.736  14.090 -0.0451 -0.1451 -0.0909
26693W        W42310   2.090  15.200   2.357  0.1090 -0.0834  0.1215
26694W        W42311   8.600  16.012   1.118 -0.2090 -0.2448 -0.1485
26695W        W42312  14.160   8.734  14.750 -0.0633 -0.0159  0.0054
26696W        W42313   1.968   6.139   6.446  0.1320 -0.0043 -0.1580
26697W        W42314  13.490  12.039   1.779 -0.1566  0.2406 -0.1152
26698W        W42315  14.425   4.588  12.932  0.1792  0.2347 -0.0893
26699W        W42316   7.541  11.495  10.973 -0.0801 -0.0957 -0.4398
26700W        W42317  10.948  15.736   5.551  0.0746  0.0019  0.1156
26701W        W42318  16.958  16.236  14.671 -0.2063  0.3068  0.0374
26702W        W42319   2.865  16.686  14.745  0.1751 -0.2356 -0.2034
26703W        W42320   4.880   7.589  12.364  0.1948 -0.2361 -0.1324
26704W        W42321  16.580   3.294  12.828 -0.0390  0.0075  0.2592
26705W        W42322   3.793  16.291  16.568 -0.2907 -0.1575  0.0563
26706W        W42323  13.662   7.603   0.145 -0.2053 -0.1256  0.2113
26707W        W42324   3.369  15.151   3.663 -0.0896  0.0400 -0.1810
26708W        W42325   0.794   6.313   0.878  0.1524  0.2800  0.0323
26709W        W42326  16.135  12.479  13.448 -0.2058  0.1606  0.2280
26710W        W42327   0.765  15.444   5.676 -0.0381 -0.0872 -0.0535
26711W        W42328  12.673   3.242  15.117  0.0502  0.1224 -0.4477
26712W        W42329  15.353   7.202  15.523 -0.0574  0.2602  0.3174
26713W        W42330   4.386  10.587  16.522 -0.1168 -0.0329 -0.1487
26714W        W42331  11.749  10.830   1.480 -0.1752  0.2478 -0.1740
26715W        W42332  13.971  15.521  15.780 -0.2884  0.2344  0.0781
26716W        W42333   7.067  13.339  11.797  0.1901  0.2627 -0.0099
26717W        W42334   9.866  12.168   0.973  0.0520 -0.1627 -0.0044
26718W        W42335   4.155   3.228   2.679 -0.1612  0.3143 -0.0263
26719W        W42336  16.886   8.627  14.468 -0.0397 -0.0235 -0.0384
26720W        W42337  13.897   4.020   2.710 -0.0265 -0.1446  0.0197
26721W        W42338  10.235  13.871   0.651  0.3542  0.1549 -0.1089
26722W        W42339   6.908  11.452   2.445  0.2389  0.0728 -0.1900
26723W        W42340  11.989  11.301  12.798 -0.0505  0.0102 -0.4458
26724W        W42341   7.311   2.904  14.723  0.2748  0.3158 -0.2265
26725W        W42342   1.893   9.931  12.469 -0.0600 -0.0526 -0.1144
26726W        W42343   5.439  12.194   1.997  0.1163  0.0991 -0.0666
26727W        W42344  12.269  15.884  14.875 -0.1149 -0.0376  0.2984
26728W        W42345  15.065   1.968  15.986 -0.1200 -0.0940  0.0721
26729W        W42346  11.000  15.207  14.433 -0.2944 -0.4637  0.1098
26730W        W42347   2.786   4.556  16.224 -0.1496  0.3925 -0.1138
26731W        W42348   7.458   0.421  14.176  0.0176  0.1237  0.1740
26732W        W42349   0.083  10.291   0.092  0.3208 -0.0447  0.4963
26733W        W42350   9.221   0.926  13.785  0.4326 -0.0219 -0.0826
26734W        W42351  17.086  13.744  13.304 -0.2363 -0.2849  0.0171
26735W        W42352   5.550  17.904   0.991  0.0529 -0.2137  0.2238
26736W        W42353   1.937   4.944  12.928  0.0409 -0.1120 -0.1054
26737W        W42354  14.978   6.965  15.878 -0.0712  0.1759  0.2705
26738W        W42355  10.661  13.907   5.080 -0.0727  0.4477 -0.1768
26739W        W42356  12.492   1.516   3.741  0.2438  0.0810  0.1055
26740W        W42357   0.514  14.366   5.827 -0.0600  0.1486  0.0202
26741W        W42358   4.902  15.930  11.860 -0.0784  0.0228  0.2777
26742W        W42359  13.667   0.298  15.753 -0.1685 -0.0255  0.0008
26743W        W42360   6.048   1.933   4.303 -0.0616  0.0814 -0.0324
26744W        W42361   3.219   6.269   2.212  0.1057  0.1606 -0.0921
26745W        W42362  17.620   3.050  15.208 -0.5224 -0.3300 -0.0524
26746W        W42363   5.467   0.647  16.377  0.0720 -0.0359 -0.2288
26747W        W42364   5.669  11.464   2.804  0.1474 -0.0600 -0.2092
26748W        W42365   3.725  12.184  13.034 -0.1724  0.3282 -0.2163
26749W        W42366   5.925   2.398   4.471  0.3744  0.0909 -0.2053
26750W        W42367  18.030  10.608   4.754  0.1844 -0.0808 -0.1822
26751W        W42368   9.014  12.604  15.772 -0.1734  0.1045 -0.1474
26752W        W42369   6.111  12.246  12.794  0.1094 -0.1709  0.0000
26753W        W42370   1.628   1.533  12.439  0.1257  0.1206  0.1031
26754W        W42371  11.479   2.348  13.852  0.1267 -0.0508  0.0498
26755W        W42372  10.833   3.211   1.365  0.1129  0.0911  0.2793
26756W        W42373   1.498  12.332  16.586  0.2021  0.4466  0.1026
26757W        W42374   1.233   4.319  14.836 -0.0253 -0.0820  0.1789
26758W        W42375  14.128  17.282  13.240  0.0060  0.0073 -0.1293
26759W        W42376   4.076  17.155   0.943  0.3421 -0.0738 -0.3933
26760W        W42377   9.948   1.709   2.644 -0.0565 -0.1635  0.2473
26761W        W42378  17.255   5.460   2.946  0.1312  0.3196 -0.0254
26762W        W42379   9.521  12.708   1.027  0.0915  0.1062  0.0398
26763W        W42380  15.615  11.221   2.793 -0.0079 -0.1346  0.3374
26764W        W42381  12.351  17.946   3.627  0.3299 -0.0562  0.1680
26765W        W42382   3.807  14.925  12.109  0.0186  0.0487 -0.2821
26766W        W42383   1.595   4.691  14.114 -0.2000  0.1084  0.0590
26767W        W42384   3.949   8.242  13.812  0.1688  0.0390  0.1734
26768W        W42385  12.964   7.099   2.006 -0.0579  0.0481  0.2619
26769W        W42386  14.673  15.017   0.758 -0.0864  0.0108 -0.2194
26770W        W42387   6.975  16.785   5.301  0.3947 -0.0355  0.0237
26771W        W42388   2.336   0.960   5.261 -0.2623 -0.1619 -0.0206
26772W        W42389   2.315  11.491   1.141 -0.0263  0.0517 -0.2584
26773W        W42390  14.411  11.443  16.734 -0.1559  0.1488 -0.2971
26774W        W42391   2.816   7.680  11.086 -0.0234  0.0404 -0.1254
26775W        W42392  17.585   9.684  13.352 -0.0330  0.1958  0.0035
26776W        W42393   5.634   8.042   2.406  0.0269  0.0591  0.1207
26777W        W42394   4.441  17.467  16.297 -0.1141  0.0097 -0.0525
26778W        W42395  17.811   9.919   0.436 -0.0242 -0.4151 -0.0780
26779W        W42396  13.032  14.923  11.209 -0.2165  0.0776  0.0460
26780W        W42397   0.957  14.644  11.973 -0.1940 -0.1062  0.0502
26781W        W42398   4.446   1.569   1.695 -0.0953 -0.0241 -0.0175
26782W        W42399   5.421  14.400  14.204  0.1391  0.3238  0.3163
26783W        W42400   0.898   3.034   4.609 -0.0095  0.2738 -0.0785
26784W        W42401   2.497   4.183   3.278 -0.2558  0.1878  0.2327
26785W        W42402   5.313  11.893  15.828 -0.1006  0.0014 -0.0691
26786W        W42403   3.870   2.111  11.876 -0.0416  0.0359  0.2257
26787W        W42404  14.031  12.812  14.318  0.0266 -0.1030  0.2482
26788W        W42405  10.825  12.656   3.484 -0.0102 -0.0244  0.0821
26789W        W42406  15.508   2.751  12.069 -0.0759 -0.0698 -0.0211
26790W        W42407   1.596   4.649  16.219  0.1142  0.0050 -0.4455
26791W        W42408   1.853  11.093   0.316  0.0445  0.1275  0.2714
26792W        W42409  12.980   9.224  15.943  0.2790 -0.3615 -0.1454
26793W        W42410  13.667   5.191   3.173  0.3736 -0.0378  0.1186
26794W        W42411   8.399  14.128   1.031 -0.0624  0.2563  0.0530
26795W        W42412  10.552   6.798   3.911 -0.0935  0.1859 -0.1241
26796W        W42413  17.900  11.356  13.582 -0.3442  0.0257  0.1483
26797W        W42414  12.548   8.391   2.658  0.1747 -0.2299  0.1196
26798W        W42415  11.482   5.677   5.430  0.0651  0.4056  0.0522
26799W        W42416  13.703   4.347   5.704 -0.2273 -0.0069  0.2338
26800W        W42417   8.017  14.191   0.021 -0.0883 -0.0736  0.2235
26801W        W42418   4.818  12.611  16.207 -0.0154  0.5880 -0.0240
26802W        W42419  15.001   9.617   0.184 -0.3164 -0.0589  0.0093
26803W        W42420  16.153  16.283  12.092 -0.0335  0.2138 -0.5032
26804W        W42421  12.499   0.378   3.584  0.1938  0.3343  0.1799
26805W        W42422  17.667   0.290   3.036 -0.2588 -0.0033  0.1661
26806W        W42423   4.054  12.643   0.496 -0.1343 -0.6598 -0.0224
26807W        W42424   6.555   2.285   5.636  0.1546 -0.2123 -0.0181
26808W        W42425   1.205   5.385  15.342 -0.1579  0.3903  0.2572
26809W        W42426  12.878   6.723   4.121  0.0174 -0.0232 -0.1265
26810W        W42427   0.799  16.888  13.834 -0.0488 -0.0194 -0.0034
26811W        W42428  11.571   0.205  11.962 -0.0679  0.0184 -0.0163
26812W        W42429  14.938  14.861  14.026 -0.0558  0.0340  0.3004
26813W        W42430   4.269   6.670   2.886 -0.0560  0.0573 -0.1141
26814W        W42431   7.808  15.384  14.734 -0.0905 -0.0287 -0.1337
26815W        W42432  14.529  13.294   1.980 -0.0246  0.3076 -0.2262
26816W        W42433   7.967   9.172   3.085  0.2470  0.0620 -0.3579
26817W        W42434  10.761   8.789  13.379  0.2725  0.3495  0.2239
26818W        W42435   1.196   2.201   4.768 -0.1873 -0.0323 -0.0289
26819W        W42436   1.316   3.590   5.859  0.2214 -0.0129 -0.4470
26820W        W42437  16.316   9.505   5.538 -0.0923  0.0625  0.3158
26821W        W42438  11.538   4.226   5.826 -0.2450  0.0264 -0.1951
26822W        W42439   9.213   0.417   4.311  0.0028 -0.0207 -0.1656
26823W        W42440   2.605  10.455   2.303 -0.0275  0.0507 -0.1911
26824W        W42441   7.867   5.175  15.274  0.0755  0.0545 -0.1413
26825W        W42442   6.952  14.963  15.311 -0.1873 -0.1315  0.1897
26826W        W42443   1.665  11.197   1.300 -0.0393 -0.0317 -0.0022
26827W        W42444   8.236   8.811   3.351 -0.1107 -0.0339  0.3158
26828W        W42445  10.740  10.417   5.208 -0.4477  0.0811 -0.0352
26829W        W42446   1.050   6.149   1.330 -0.1742  0.0265 -0.1448
26830W        W42447   0.449  10.400   4.568 -0.0003 -0.1109 -0.0110
26831W        W42448  16.059   2.712  13.952  0.1883 -0.2328  0.0620
26832W        W42449   0.982   1.346   4.936  0.0729  0.0150  0.0318
26833W        W42450   5.052   2.164   5.348 -0.0293  0.1169  0.0538
26834W        W42451  16.984   4.712   5.977  0.1128 -0.0758 -0.1383
26835W        W42452  17.877   6.880  13.091  0.1673 -0.2359  0.3477
26836W        W42453   8.468   4.875  12.570  0.2244  0.2379  0.1202
26837W        W42454   2.043   7.823  15.416  0.0814 -0.2893 -0.2044
26838W        W42455  13.362  10.704  14.763  0.0862 -0.0793 -0.1082
26839W        W42456  13.616  15.873   1.023  0.0218 -0.0066  0.0467
26840W        W42457  10.957   0.460   5.872  0.2724  0.0898  0.1297
26841W        W42458   9.341  14.326   0.281  0.1008  0.1045 -0.0608
26842W        W42459  12.009  14.029  15.492 -0.1032 -0.3207 -0.3260
26843W        W42460   3.338   0.149  14.253 -0.0182  0.3025  0.0614
26844W        W42461  14.024  11.729  15.605  0.0227  0.1339  0.1103
26845W        W42462   1.104  16.823   3.448 -0.0030  0.2465 -0.3173
26846W        W42463  11.449   5.318  12.062  0.1395  0.4707  0.1752
26847W        W42464  16.404  15.598  13.250 -0.1970  0.0746 -0.1249
26848W        W42465   4.131   6.497   2.017  0.0735 -0.1001 -0.0894
26849W        W42466   3.571  11.091  16.711 -0.1494 -0.1112  0.0483
26850W        W42467   1.630   4.501   6.610 -0.2434  0.1207 -0.1256
26851W        W42468   6.008  13.583  11.256 -0.1269 -0.0148 -0.0133
26852W        W42469   7.278  11.229  11.383 -0.1862 -0.2136  0.3385
26853W        W42470   8.770   6.117  13.236 -0.0141  0.0053  0.0738
26854W        W42471   0.554   6.753   5.650  0.3500 -0.0446 -0.0798
26855W        W42472  15.033   3.272   4.234  0.0591 -0.1373  0.2876
26856W        W42473   8.829  16.752   3.180  0.0701  0.0823  0.3648
26857W        W42474  14.388  15.655  11.770  0.0059  0.4682 -0.0667
26858W        W42475   7.469   2.556  12.599 -0.2581 -0.1831 -0.2504
26859W        W42476  11.511   0.473   5.549 -0.0287 -0.2360 -0.2090
26860W        W42477  10.686  13.526  15.394  0.2129  0.0083 -0.1523
26861W        W42478   2.164   0.700   0.633  0.0967 -0.1942 -0.0997
26862W        W42479  11.618  17.124  12.748  0.0223  0.0956 -0.2991
26863W        W42480   5.115  14.713   0.140 -0.1632  0.2480 -0.1698
26864W        W42481   8.218   4.047  13.028 -0.0135 -0.0345 -0.0805
26865W        W42482   0.775  14.970   5.395 -0.2553  0.2379 -0.0083
26866W        W42483  17.797   1.325  12.791 -0.2243 -0.0576  0.3395
26867W        W42484   4.396   9.923  14.967  0.2586  0.2129  0.0851
26868W        W42485   2.762   8.385   1.285  0.2069  0.0844  0.0012
26869W        W42486   3.599  10.421  14.349  0.2509  0.2724  0.0977
26870W        W42487   6.711  17.006   1.125 -0.1236 -0.0259  0.2095
26871W        W42488  10.068   1.716  13.270 -0.1271 -0.1475  0.1320
26872W        W42489   2.638   3.344  15.132  0.0849 -0.0105  0.1503
26873W        W42490   0.595   3.117   0.057 -0.0760  0.2026 -0.0301
26874W        W42491  12.696  12.307   5.598  0.0816 -0.1294  0.0737
26875W        W42492  14.244  16.293   2.785  0.0627  0.0421 -0.1219
26876W        W42493   8.835   3.744   4.067 -0.0037 -0.1137 -0.3370
26877W        W42494   4.816   8.742   4.064  0.1715 -0.3756 -0.2784
26878W        W42495  12.338   6.742  12.875 -0.0181 -0.1606 -0.1359
26879W        W42496   8.168  11.631   2.131  0.1068  0.0412 -0.0817
26880W        W42497   9.070  11.784  13.754  0.1755  0.4091 -0.1105
26881W        W42498   1.815  12.592   3.130  0.0988 -0.3032  0.3300
26882W        W42499  14.853  16.755   5.759 -0.3182  0.0028  0.0677
26883W        W42500   8.936  16.456  10.990 -0.0177  0.2461  0.0541
26884W        W42501   3.966   5.795  12.208 -0.0873  0.2596  0.2977
26885W        W42502  16.309   9.806  13.954  0.0644  0.2975 -0.0578
26886W        W42503   9.340  11.433  11.048  0.1019 -0.3598 -0.1261
26887W        W42504  11.001  15.547  16.185  0.2362  0.1694 -0.1339
26888W        W42505   1.568  13.004  15.920  0.2918 -0.0138 -0.2471
26889W        W42506  12.910   3.327  16.642  0.1207  0.0189 -0.0969
26890W        W42507  17.983   4.544  11.889  0.3254  0.0016  0.0978
26891W        W42508  13.377  14.071   2.939 -0.1877 -0.0521  0.3933
26892W        W42509  10.954  11.152  13.843 -0.1870  0.0572 -0.2374
26893W        W42510   6.521   6.945   2.832 -0.2158 -0.0801 -0.1665
26894W        W42511   3.381   1.354  14.410 -0.1159 -0.1243  0.0481
26895W        W42512   4.120   0.074   1.416 -0.2270 -0.0752 -0.0216
26896W        W42513   8.297   3.380   5.702 -0.0745  0.1349  0.0128
26897W        W42514   7.791  15.230  13.162 -0.2744  0.1320  0.0803
26898W        W42515   7.246  15.342   2.514  0.3787 -0.4061  0.1086
26899W        W42516  12.674   0.597   2.535 -0.3887 -0.0693 -0.2657
26900W        W42517  18.006  15.506   0.956 -0.3310  0.1503  0.1754
26901W        W42518   7.745   1.551  16.396 -0.0996  0.2700  0.0107
26902W        W42519  14.198  15.896   3.027  0.0916  0.0265 -0.1477
26903W        W42520  14.206  17.953   4.796  0.2163  0.2559 -0.0645
26904W        W42521  12.497  16.878   1.392 -0.0940 -0.1334 -0.0339
26905W        W42522  12.543   3.287   1.683  0.1192  0.1563 -0.0358
26906W        W42523   9.594  15.468   5.208 -0.2537 -0.0600  0.0379
26907W        W42524   1.009  13.867   1.833  0.1368  0.1863 -0.0679
26908W        W42525   6.420   9.651  11.249  0.0509 -0.1610  0.2880
26909W        W42526  15.844  17.876  13.468 -0.1848 -0.2314  0.0308
26910W        W42527  14.992  12.779  15.116 -0.5552 -0.0022  0.2353
26911W        W42528   6.985  17.218  12.084  0.2450 -0.1946  0.0669
26912W        W42529   6.619   9.302   4.992 -0.2917  0.5013  0.4056
26913W        W42530   5.122   5.514   2.148 -0.0877  0.3344  0.0324
26914W        W42531   9.478  11.143   4.731 -0.3663 -0.0248 -0.4091
26915W        W42532  13.714  14.431  12.692  0.0319 -0.1194 -0.0161
26916W        W42533   3.721   2.906   1.355  0.0141  0.0746  0.0937
26917W        W42534   1.333   3.608   1.254 -0.3372  0.0745 -0.0176
26918W        W42535  12.471  13.189   5.247 -0.4423 -0.0714  0.1393
26919W        W42536  14.809   4.202  14.286 -0.2931  0.0243  0.3382
26920W        W42537  12.668   6.401   6.499  0.0425  0.1385 -0.0009
26921W        W42538   1.843  10.876   2.972  0.1904 -0.1158 -0.2604
26922W        W42539   9.488  11.100   0.883 -0.0523  0.1027  0.2680
26923W        W42540   7.883  10.053  13.007 -0.1873  0.0822 -0.1014
26924W        W42541  15.531   2.114   2.063  0.2819  0.1551 -0.2176
26925W        W42542   9.491  16.956  14.275  0.0719 -0.2142  0.1024
26926W        W42543  14.262  10.587   3.681 -0.1083  0.0223  0.1664
26927W        W42544   0.816   7.513   1.788 -0.3171  0.1682  0.1912
26928W        W42545  11.493  14.727   4.661  0.4106  0.1683  0.0802
26929W        W42546   4.848  10.551  12.962 -0.2724 -0.3007 -0.0376
26930W        W42547  11.369   3.515  15.099 -0.0354  0.3831 -0.0450
26931W        W42548   7.183  15.010  13.934 -0.0195 -0.1926  0.0356
26932W        W42549  16.807  17.110   0.440  0.1818  0.0286 -0.1046
26933W        W42550   1.746   3.811  15.824 -0.2256  0.1079  0.1088
26934W        W42551   4.278   3.466  14.319  0.2805  0.2565 -0.2084
26935W        W42552   4.092  13.696  16.537  0.3683 -0.0528  0.2264
26936W        W42553   4.882  16.054   0.730 -0.1762  0.0193 -0.0932
26937W        W42554   5.182   4.370  11.502 -0.0646  0.0074 -0.0699
26938W        W42555   9.534   6.939   5.417 -0.1467 -0.1380  0.0470
26939W        W42556   5.150   7.479   1.473  0.2124  0.0800  0.0377
26940W        W42557   5.968  14.113  14.310 -0.0660  0.1082 -0.6065
26941W        W42558   0.873  10.582   4.822 -0.1060 -0.0223  0.0971
26942W        W42559   5.336  13.454   1.818  0.2437 -0.2645 -0.2194
26943W        W42560   3.424   0.907   5.945 -0.2181 -0.3313  0.0315
26944W        W42561  12.739   4.221  12.856  0.0671 -0.0293  0.0144
26945W        W42562  11.519   2.479   1.537  0.1578  0.1666  0.0062
26946W        W42563   9.399   8.019  13.142  0.0045 -0.2158  0.2165
26947W        W42564  13.316  13.278  14.261  0.1215  0.1061  0.2168
26948W        W42565  15.476   1.334   0.252  0.0442  0.2345 -0.2226
26949W        W42566  16.154  16.056   3.748 -0.2528  0.3191 -0.1391
26950W        W42567   3.245   0.716  14.941  0.1425 -0.1172  0.1646
26951W        W42568  16.667  15.934  13.761  0.2675 -0.2742 -0.0934
26952W        W42569  13.408   9.118   2.079 -0.2722  0.0124 -0.3669
26953W        W42570  14.715  12.390  11.216 -0.2906  0.2130  0.1203
26954W        W42571   0.992  11.974   0.932  0.0371 -0.1667 -0.0276
26955W        W42572  14.743   7.890  14.080  0.1467 -0.3056 -0.0786
26956W        W42573   6.802   1.384   4.733  0.0233  0.1948 -0.0246
26957W        W42574   7.379  15.270  10.945  0.3019 -0.1616  0.0343
26958W        W42575   3.579  13.473   0.688 -0.0031  0.2563  0.0250
26959W        W42576   7.258  14.679   0.611  0.3684 -0.0293 -0.0813
26960W        W42577  17.237  14.960  16.148 -0.1114 -0.2443 -0.1533
26961W        W42578   8.195   9.665   5.215 -0.0835  0.1929 -0.0947
26962W        W42579   2.868   3.266   2.945  0.1769 -0.3707 -0.2740
26963W        W42580   5.388   4.035  13.078 -0.1839  0.0927 -0.4138
26964W        W42581  13.198  15.579   2.758 -0.0837 -0.1672  0.0937
26965W        W42582  13.170  17.157   5.629  0.0677 -0.0565  0.0047
26966W        W42583   3.354  14.262  14.641 -0.0755 -0.1798  0.1429
26967W        W42584   7.450  15.715  15.525 -0.0629  0.1617 -0.2303
26968W        W42585   4.483   6.447  12.070 -0.0224 -0.0247  0.1301
26969W        W42586   8.119  10.165   1.906 -0.1050 -0.1140 -0.2014
26970W        W42587   3.466   6.178   1.004 -0.2483  0.3000 -0.0869
26971W        W42588   8.126   8.570  16.660 -0.0200 -0.4295 -0.2087
26972W        W42589   2.977  12.745  15.604 -0.1451 -0.0010  0.0665
26973W        W42590   0.376   6.623  16.419 -0.1394 -0.1278 -0.0944
26974W        W42591   8.106   0.921  13.900  0.0499 -0.0014 -0.0660
26975W        W42592   8.724   5.912   4.222  0.0584  0.1739 -0.1559
26976W        W42593   3.236   1.587  13.302  0.1169  0.0117  0.2365
26977W        W42594   1.369  11.200  15.368  0.0275  0.1474 -0.1472
26978W        W42595   0.661  16.574   4.963  0.1005 -0.0711 -0.3305
26979W        W42596  10.554  17.790   0.101  0.0270 -0.2126  0.2621
26980W        W42597   5.174  16.249   1.029  0.0278  0.3412  0.0892
26981W        W42598   8.180  13.014  13.494  0.1732 -0.0255  0.1062
26982W        W42599  16.221   0.371  14.020 -0.2441 -0.0924  0.4164
26983W        W42600   2.625   8.322   3.085 -0.0267  0.0176 -0.2785
26984W        W42601   6.439   9.812   1.181 -0.3234 -0.0577  0.1708
26985W        W42602   6.920   3.174  16.331 -0.0121 -0.0967  0.4116
26986W        W42603   4.849   6.341  16.252  0.5561 -0.1329  0.0572
26987W        W42604   6.753   0.042  13.598 -0.1129 -0.0321  0.2362
26988W        W42605  16.262  11.658  13.947 -0.2142 -0.0260 -0.0896
26989W        W42606   1.878   6.914  11.316  0.1773 -0.0103 -0.1929
26990W        W42607  15.994   3.628   0.967  0.0352 -0.2550 -0.0302
26991W        W42608   7.615  16.548  13.110 -0.0248 -0.0364  0.0725
26992W        W42609  10.467  11.366   1.763 -0.1001  0.1719 -0.0030
26993W        W42610   1.747  17.276   5.924 -0.0025 -0.4638 -0.0859
26994W        W42611  17.946   9.157  11.602 -0.1198  0.0014 -0.1190
26995W        W42612   4.710  14.252  12.359 -0.1442  0.1264  0.0574
26996W        W42613   6.409  10.482  14.489 -0.0083 -0.0807  0.1152
26997W        W42614   4.308   7.375  11.583 -0.1563  0.0169  0.1337
26998W        W42615   0.003  17.410   3.059  0.0357 -0.0422 -0.2315
26999W        W42616   6.326  13.551  16.542 -0.0481 -0.0874  0.0729
27000W        W42617   5.265   5.348  13.770 -0.0303  0.1153 -0.2967
27001W        W42618   3.391   5.053  13.348 -0.1530 -0.1455 -0.1567
27002W        W42619  12.733  17.136   3.690 -0.1040 -0.1335 -0.0780
27003W        W42620   6.164  10.026  16.359 -0.0047 -0.0176  0.1232
27004W        W42621   1.082   2.104  12.363  0.0575  0.1090 -0.1571
27005W        W42622  14.232  18.006  12.364 -0.3464 -0.1672  0.3435
27006W        W42623   8.929   8.014   3.284  0.2215  0.3786 -0.1067
27007W        W42624   3.755  12.204  11.506 -0.2373 -0.0076  0.0615
27008W        W42625   0.231  12.355   1.211  0.0945 -0.0763  0.0137
27009W        W42626  16.910   3.032  15.976 -0.0358  0.0163  0.2911
27010W        W42627  16.242  14.853   4.907 -0.0421  0.0213  0.0320
27011W        W42628   8.519  17.429  13.146 -0.0675  0.2001  0.0308
27012W        W42629  10.993  10.065   1.299  0.3005  0.1235  0.1309
27013W        W42630   0.780   0.554  12.829 -0.0439  0.0434  0.3005
27014W        W42631   5.640  10.426   1.266  0.2966 -0.2839  0.0333
27015W        W42632  11.568  16.903  12.248 -0.2017  0.0414  0.3160
27016W        W42633  12.519  16.138  13.812 -0.1348 -0.0151  0.0576
27017W        W42634   9.101  13.342  15.161 -0.0223 -0.0171  0.1265
27018W        W42635   8.510  15.299  15.469 -0.2365 -0.1742  0.2875
27019W        W42636   5.214   6.759  13.657  0.0863  0.1550  0.2967
27020W        W42637  15.098   7.414  16.611  0.0950 -0.1107  0.0510
27021W        W42638  10.226   6.018  15.889  0.1390 -0.1394  0.2327
27022W        W42639   2.851  16.969   3.633  0.4063  0.2277 -0.2262
27023W        W42640   0.104  13.375  12.845 -0.0252 -0.1995 -0.0919
27024W        W42641  16.077  12.423   1.918 -0.0098  0.2730  0.2153
27025W        W42642   2.521  15.152   0.994 -0.1992 -0.3734 -0.0871
27026W        W42643  13.205  16.694   5.329  0.0508 -0.0223 -0.1911
27027W        W42644   8.668  12.741   3.669 -0.2428 -0.0080 -0.0521
27028W        W42645  12.143   7.110  13.228 -0.2424  0.0139 -0.0919
27029W        W42646   2.390   6.182   2.311 -0.0647  0.0383  0.0424
27030W        W42647   9.457   0.222  15.804  0.2110  0.1823 -0.1032
27031W        W42648  14.618   1.949  15.047  0.2399 -0.0446 -0.0219
27032W        W42649  11.692   0.639  14.215 -0.0442  0.1567  0.0747
27033W        W42650   0.139   7.622  15.661 -0.0294  0.0608  0.3380
27034W        W42651  16.466  13.786   3.174  0.2374  0.1634  0.0995
27035W        W42652   4.236   0.779   2.697 -0.3807 -0.2922 -0.0104
27036W        W42653   8.072  12.529  10.128  0.1281 -0.0535  0.3028
27037W        W42654   0.606   5.432   0.611  0.1620 -0.1913 -0.2277
27038W        W42655  16.400  17.189   2.328  0.1772 -0.0209  0.2879
27039W        W42656   2.531  16.704  11.389 -0.2215  0.1645  0.1595
27040W        W42657  10.344  15.289  14.541  0.1310 -0.1439  0.1428
27041W        W42658   9.544  10.415  11.128  0.1570  0.1708  0.2003
27042W        W42659  17.018  16.313   5.850  0.1877 -0.1679  0.0889
27043W        W42660   3.161  16.263  15.012 -0.2592 -0.2311 -0.1617
27044W        W42661  13.679  16.039   3.007  0.0659  0.0718 -0.0419
27045W        W42662  16.866  10.426   1.225 -0.0662 -0.0836 -0.3092
27046W        W42663   8.223  11.800   4.080 -0.1457  0.0035 -0.2371
27047W        W42664  12.694  14.349  16.540 -0.1675  0.0426 -0.3530
27048W        W42665   1.578   1.789  14.705 -0.2409 -0.2535  0.1405
27049W        W42666  12.122   4.006   1.203  0.2972 -0.2296 -0.0131
27050W        W42667  10.703   1.563   2.207 -0.1745  0.0117  0.2608
27051W        W42668   7.480   7.276  10.013 -0.2217  0.3221  0.1219
27052W        W42669   1.567   1.951   3.361 -0.0244  0.0080  0.4620
27053W        W42670   8.168  11.819   3.514  0.2302 -0.1056  0.4903
27054W        W42671   3.307   5.658   2.341  0.1435  0.1173  0.1148
27055W        W42672   6.348   5.024   3.411 -0.1557  0.0752 -0.2879
27056W        W42673   4.805  12.146  13.847  0.1186  0.3677 -0.5076
27057W        W42674  10.068   7.068   0.248  0.3268 -0.4729 -0.1252
27058W        W42675  14.760  12.847   2.281 -0.2650 -0.1743 -0.1597
27059W        W42676   8.839   7.016  15.596 -0.1437 -0.2937  0.2129
27060W        W42677  16.692   6.891  16.039  0.0801  0.1948 -0.0182
27061W        W42678  13.914   9.528  11.444  0.2337  0.0622  0.2253
27062W        W42679   9.195  14.973   3.675  0.1143  0.0186  0.1456
27063W        W42680  15.897   7.297   0.486 -0.4219  0.1329  0.2744
27064W        W42681   8.263   2.858   1.735 -0.3479  0.1280 -0.0253
27065W        W42682   3.088   8.700  16.690 -0.0388  0.3483  0.1102
27066W        W42683   3.352  13.439   5.959  0.0628 -0.1070  0.4505
27067W        W42684   1.501   4.493   5.668 -0.1044  0.3939  0.1382
27068W        W42685  17.311  12.434  13.985 -0.2780 -0.0473 -0.1764
27069W        W42686   3.445   5.530   5.275  0.0615 -0.3846  0.0081
27070W        W42687  10.131   1.609   2.190  0.2136 -0.3827  0.1654
27071W        W42688   0.909   1.045   1.708  0.4308 -0.1166  0.2921
27072W        W42689  15.411  14.289   4.911 -0.0429  0.0200  0.2748
27073W        W42690   9.174   2.142   0.973 -0.4501 -0.3860  0.0468
27074W        W42691   1.243  12.288   4.815  0.1608  0.0682  0.0712
27075W        W42692  16.652   4.924   3.189 -0.1697 -0.2234 -0.1587
27076W        W42693   9.254   4.456  13.583 -0.3900  0.1403 -0.1397
27077W        W42694   4.573   5.843   5.403 -0.2174  0.2564  0.1386
27078W        W42695  14.584   0.315   0.499 -0.1422  0.0357 -0.0234
27079W        W42696   2.631   8.035   5.731  0.3470 -0.1621  0.1532
27080W        W42697  16.843  14.719   0.613 -0.1189 -0.1768  0.0251
27081W        W42698   3.955   5.726   0.645  0.1284 -0.2935 -0.1418
27082W        W42699  13.973  12.878  16.195 -0.1257  0.0291 -0.1862
27083W        W42700   0.867  12.338   1.729 -0.1363  0.1656 -0.1009
27084W        W42701   2.313   3.176   4.708 -0.0821 -0.0625  0.4085
27085W        W42702  14.324  11.520   2.053 -0.3547  0.2888 -0.3125
27086W        W42703  14.786  13.708   2.096 -0.0084 -0.2911 -0.0166
27087W        W42704  12.136  12.373  13.641 -0.4820 -0.0777 -0.2920
27088W        W42705   0.133   2.980  15.086 -0.0865 -0.2693 -0.0394
27089W        W42706   9.442   1.876   2.507 -0.2560  0.4754  0.1270
27090W        W42707  16.090   8.998   5.455  0.0183  0.3830  0.2622
27091W        W42708  11.155   6.703   2.585 -0.0988  0.1509 -0.6210
27092W        W42709   9.173   8.206   4.971 -0.0649 -0.0767 -0.1539
27093W        W42710  15.503  12.714  12.812  0.0946 -0.0594 -0.2348
27094W        W42711   4.087   6.890  14.258  0.2219 -0.1496  0.0973
27095W        W42712   8.596   2.838  12.888 -0.0466  0.1163 -0.0333
27096W        W42713  13.723  14.149  14.008 -0.0617  0.2168 -0.0120
27097W        W42714  13.365   4.824  14.929  0.0437 -0.1881  0.3789
27098W        W42715   7.552   2.090  14.316 -0.2163  0.0595  0.1090
27099W        W42716  13.566  10.345  16.443 -0.1801 -0.0164 -0.1155
27100W        W42717  16.927  14.140   1.702  0.1681 -0.2809  0.4700
27101W        W42718  15.866   6.450   3.388  0.1166 -0.0005  0.0864
27102W        W42719  13.705  11.964  11.449 -0.1997 -0.0029  0.1702
27103W        W42720  12.871  17.340  16.424  0.1656 -0.1416  0.0256
27104W        W42721   4.831  11.510   2.512  0.0048  0.4125  0.1913
27105W        W42722   3.893   5.041   0.609 -0.1309 -0.0999 -0.0800
27106W        W42723  16.374  15.536  15.669  0.0950 -0.3364 -0.0469
27107W        W42724   5.500   5.354   4.281  0.1076  0.0038  0.0395
27108W        W42725   7.139   3.373  12.723 -0.1500 -0.1903  0.1572
27109W        W42726  14.532   8.122  15.907  0.0058 -0.3737  0.0590
27110W        W42727  13.533   4.950  12.057  0.1457 -0.1211  0.3794
27111W        W42728   7.548   9.101  12.168 -0.0736  0.1140  0.4043
27112W        W42729   1.318   2.660   3.849  0.0803  0.3437 -0.1801
27113W        W42730   1.286  11.927   3.526  0.0597  0.1436 -0.1665
27114W        W42731  10.125   6.004  16.415  0.0978 -0.0463  0.1336
27115W        W42732   0.961   5.207  13.705 -0.0309 -0.1358  0.2822
27116W        W42733  14.997   9.862   3.270  0.0759  0.3883  0.0789
27117W        W42734  16.587   0.996   0.867  0.1091  0.3367 -0.1130
27118W        W42735  14.810  13.543  14.536  0.1186 -0.0386 -0.1118
27119W        W42736   9.701  11.980  12.066 -0.2764 -0.3465 -0.1955
27120W        W42737  10.948  12.334  13.578 -0.0274  0.0169 -0.0801
27121W        W42738  12.656   2.145   6.272 -0.0582  0.1320 -0.1027
27122W        W42739   7.459  17.830   4.016  0.2340 -0.1127  0.2311
27123W        W42740   3.634   3.696   1.515  0.0202 -0.2027  0.3065
27124W        W42741  11.577   6.349   3.230  0.0136 -0.3697  0.1727
27125W        W42742   8.049  12.662   4.595  0.0515 -0.0474  0.0844
27126W        W42743   2.598  10.067   1.824  0.0793  0.3715 -0.0493
27127W        W42744   4.700   9.258  14.486  0.2234 -0.0276 -0.0531
27128W        W42745   7.199   7.596  12.914  0.1102 -0.1263 -0.2559
27129W        W42746   2.076   1.143   4.356  0.0961 -0.1191  0.2491
27130W        W42747  14.422  16.296  15.941 -0.0605 -0.0824  0.2427
27131W        W42748  13.877  12.066   2.623  0.2029  0.0015 -0.0372
27132W        W42749   6.138   6.508  11.523  0.2025  0.1416  0.1606
27133W        W42750   3.485   8.100   1.860  0.0912 -0.0800  0.0158
27134W        W42751   8.582   4.477  15.216  0.1398 -0.2216 -0.0223
27135W        W42752   9.830   0.433  16.150  0.3610 -0.0243 -0.0975
27136W        W42753  17.463   1.676   0.720 -0.1117 -0.0509  0.2013
27137W        W42754  12.669   1.232   4.099 -0.2706  0.0777  0.2965
27138W        W42755   8.733   8.204  16.476 -0.0903 -0.1656  0.3055
27139W        W42756  16.105   9.508   4.288 -0.2044 -0.1444 -0.0989
27140W        W42757   5.564  17.080   2.803 -0.0979 -0.0944 -0.2175
27141W        W42758   4.824  11.543   0.934  0.0716  0.4794 -0.0860
27142W        W42759  15.436  17.697   4.662 -0.0383  0.3615  0.4660
27143W        W42760   3.174   6.492  11.509  0.0500  0.0964  0.1271
27144W        W42761   0.837  13.001  16.449 -0.4239 -0.0359 -0.1958
27145W        W42762   1.138   7.108   2.592  0.2383  0.1189  0.1503
27146W        W42763  11.780  14.674  16.563 -0.2252  0.3102 -0.0943
27147W        W42764  16.856   0.076   4.735 -0.0168  0.0136  0.2290
27148W        W42765   2.352   4.517  15.394  0.0032  0.2190 -0.1705
27149W        W42766   0.939   4.329  15.585  0.1359  0.0893  0.0963
27150W        W42767  17.546   9.486   3.979  0.2698  0.0303  0.1404
27151W        W42768  12.219  12.187   0.114  0.1182  0.1437 -0.0306
27152W        W42769  13.837   7.989  13.192  0.1183 -0.0398  0.0269
27153W        W42770   6.275   5.077   2.661  0.4255  0.0703  0.1379
27154W        W42771  17.114   5.937   1.339 -0.0930 -0.1836  0.2695
27155W        W42772   8.134  13.491  13.832  0.1030 -0.0560  0.0490
27156W        W42773   2.537  17.686   5.161  0.0419  0.2394 -0.4303
27157W        W42774   7.408   1.571   4.345  0.2160 -0.2135  0.2438
27158W        W42775  13.803  10.987  14.575 -0.1443 -0.1878  0.1250
27159W        W42776   2.070  10.163  14.355 -0.2803 -0.2591  0.0438
27160W        W42777   5.169   8.102   0.011  0.1885  0.1945  0.1632
27161W        W42778  10.689  11.915  13.035 -0.1719 -0.1618 -0.3041
27162W        W42779  17.137  16.153  11.641 -0.0725  0.0848  0.0389
27163W        W42780   2.910   5.471   4.651  0.0184  0.0867 -0.4460
27164W        W42781   2.530   7.950   1.352  0.0468 -0.1580 -0.0551
27165W        W42782  15.427   0.751   4.630  0.3590  0.1270 -0.2562
27166W        W42783  17.318   7.182   6.215 -0.1210 -0.1909  0.0918
27167W        W42784  10.758  14.453  15.497 -0.2412 -0.1926 -0.1193
27168W        W42785  12.934   6.291   5.562 -0.1988  0.3360 -0.1645
27169W        W42786  10.614   3.744   4.296  0.1666 -0.0537  0.2761
27170W        W42787   2.588   5.544   3.520 -0.0951 -0.0787  0.0444
27171W        W42788   9.006   7.696   1.472 -0.2111  0.1186 -0.0969
27172W        W42789  14.754   4.703   0.654 -0.0709  0.0872  0.1858
27173W        W42790   8.259  16.189   3.614  0.0386  0.2516  0.0539
27174W        W42791   6.721   1.808   0.064  0.2672 -0.0762 -0.0217
27175W        W42792  14.800  16.629   2.282 -0.2747 -0.0208  0.2315
27176W        W42793   0.229  16.571  15.089  0.1294  0.0996  0.3799
27177W        W42794  15.987   8.591  14.201 -0.0990  0.1053 -0.0389
27178W        W42795   8.005  17.210   1.184 -0.2458 -0.5087 -0.0921
27179W        W42796   7.357  13.507   5.414 -0.4075 -0.1770 -0.2145
27180W        W42797  12.369   9.952   2.892 -0.1312  0.1238  0.0222
27181W        W42798  17.835   0.154   4.878  0.0251  0.0102 -0.3272
27182W        W42799   1.812  13.232  10.705 -0.0302  0.0564  0.1064
27183W        W42800  13.070   9.098  16.387  0.0724 -0.2530 -0.1545
27184W        W42801  15.399  15.252   6.465  0.0465 -0.0870 -0.1760
27185W        W42802   4.315   2.289   4.968 -0.1446 -0.1618  0.0207
27186W        W42803  10.749   1.773  15.463 -0.0710  0.1961  0.0402
27187W        W42804   1.852  11.476  12.300 -0.2795 -0.0747 -0.1306
27188W        W42805  10.397  10.266  12.896 -0.2522  0.2898  0.1832
27189W        W42806   3.190   0.105   3.500 -0.0101  0.1819  0.1282
27190W        W42807   3.690   9.754   1.711  0.1235 -0.0511  0.1217
27191W        W42808   2.973   1.732  15.728 -0.3373 -0.2214 -0.1675
27192W        W42809  17.351   5.023   0.964 -0.2637 -0.0090  0.1362
27193W        W42810  16.684   4.160  12.481 -0.1823  0.0406 -0.0897
27194W        W42811  12.422  12.039   2.838  0.1180 -0.1782  0.1254
27195W        W42812   1.540   8.060  16.110 -0.1501 -0.2586 -0.3434
27196W        W42813   2.527  14.538   3.529  0.3398 -0.0880  0.2140
27197W        W42814  16.100   7.927  15.070 -0.1266 -0.1066  0.1378
27198W        W42815   0.958  16.993   4.654 -0.0656 -0.1911 -0.0749
27199W        W42816  18.006  13.722  13.796  0.0148  0.1147  0.2255
27200W        W42817  15.417   3.751   5.078 -0.2325 -0.0190  0.0155
27201W        W42818  14.326   7.782  13.116  0.0086  0.0338 -0.1989
27202W        W42819   4.876  11.931  15.462  0.1289 -0.2701 -0.1424
27203W        W42820   9.546   5.840   3.857 -0.2471 -0.0951  0.0862
27204W        W42821  15.062  13.281   2.183 -0.2768 -0.3301 -0.3496
27205W        W42822  13.341   2.319   2.074 -0.1672 -0.0576  0.1499
27206W        W42823   4.994   3.791  12.751 -0.1444 -0.4063  0.0179
27207W        W42824   3.961  10.435  15.657  0.0415  0.1353  0.0716
27208W        W42825   0.853  17.856   5.279 -0.0580  0.2244 -0.4131
27209W        W42826   8.871   0.107  15.051 -0.2752  0.1356 -0.0812
27210W        W42827   0.317   0.686   1.009 -0.1494 -0.1263  0.3184
27211W        W42828   1.325  14.096  12.844  0.2005  0.1310 -0.0544
27212W        W42829  13.783   8.784   4.290  0.1286 -0.1086  0.2405
27213W        W42830   2.407   3.096   6.373 -0.1913  0.2115 -0.5461
27214W        W42831   1.212   0.661   1.754 -0.1490  0.0371 -0.0097
27215W        W42832   7.201   5.700  11.880  0.0444  0.1163  0.2688
27216W        W42833  10.047   9.761  14.845  0.1903 -0.2849 -0.0254
27217W        W42834   7.390   9.004  13.108 -0.3038 -0.1795  0.6260
27218W        W42835  15.354  10.217   3.828  0.0118  0.1127 -0.2132
27219W        W42836  11.580  15.886   4.293 -0.4927 -0.0341  0.0628
27220W        W42837   2.163  11.373   6.124 -0.0786 -0.3457 -0.0067
27221W        W42838  13.889   4.165  14.682 -0.2752  0.0246  0.0760
27222W        W42839   5.645   3.442   5.050 -0.1975 -0.0342  0.2873
27223W        W42840  10.201   6.327  11.414 -0.0490 -0.2128  0.3392
27224W        W42841  11.629   0.605  15.226  0.0163  0.3090 -0.3180
27225W        W42842  12.745   6.068   0.800  0.0266 -0.4361 -0.1493
27226W        W42843   9.231  11.114  13.577  0.1391 -0.1987 -0.1237
27227W        W42844  16.064  15.798   3.263 -0.0907 -0.2720  0.3739
27228W        W42845   5.129  15.223   4.039  0.0374  0.1417 -0.0703
27229W        W42846  16.716  11.902  12.790  0.0772  0.0262  0.3247
27230W        W42847   2.468  14.302  14.823 -0.0413  0.1093 -0.0798
27231W        W42848  14.490   1.163  12.914  0.0285  0.3671 -0.0777
27232W        W42849  10.002   6.711   0.644 -0.3472 -0.0751  0.1310
27233W        W42850  14.587  17.804  16.619 -0.0074  0.0043 -0.0110
27234W        W42851  15.587   8.091   1.211 -0.2394  0.2829 -0.1783
27235W        W42852   2.292   4.680   0.517 -0.0005 -0.3002  0.0291
27236W        W42853   1.702  11.954  12.378 -0.1346  0.0756 -0.4086
27237W        W42854   2.855   2.353  12.110  0.3022  0.3241  0.3146
27238W        W42855   9.108   8.729   0.813  0.1190  0.2576  0.0798
27239W        W42856  11.106  13.236  14.704 -0.1631 -0.1333 -0.1239
27240W        W42857   7.635   6.971   0.548 -0.1270 -0.0507  0.0480
27241W        W42858   9.045  14.972  10.658  0.2368 -0.0097 -0.0962
27242W        W42859   6.271  14.209  11.112 -0.0795 -0.1277  0.2043
27243W        W42860  15.174   9.605   2.836 -0.0624  0.0392 -0.0102
27244W        W42861   6.981  10.128  12.973 -0.0881 -0.1208 -0.4409
27245W        W42862   7.020   8.353   5.150  0.0261  0.3116 -0.0504
27246W        W42863   1.708   9.784   3.776  0.1372  0.0963  0.2340
27247W        W42864   1.678   1.405  15.403 -0.1745  0.3617  0.2412
27248W        W42865  14.691   5.776  15.673 -0.1252 -0.1068  0.0013
27249W        W42866   8.186   2.154  12.038 -0.1972 -0.3170  0.0641
27250W        W42867   5.433   6.269   1.693  0.2635 -0.1831  0.0568
27251W        W42868   0.326  14.912  15.891 -0.0245 -0.1909  0.0954
27252W        W42869  16.921   8.374   2.408  0.0368  0.1619  0.0061
27253W        W42870   9.734  13.816   3.720 -0.0067 -0.2117  0.1090
27254W        W42871   3.805  14.930   0.875  0.0808 -0.0171  0.0921
27255W        W42872  12.486  17.672   2.459  0.3617  0.2875 -0.2393
27256W        W42873   7.621   4.822   0.011 -0.2256  0.0024 -0.0069
27257W        W42874   4.878   6.555   4.761 -0.3076  0.2678 -0.1613
27258W        W42875   1.611   5.139   4.951  0.1393 -0.0940 -0.1223
27259W        W42876   6.454   5.767   3.926 -0.3548  0.4151 -0.2560
27260W        W42877   9.325  17.686   1.089  0.0419  0.1394 -0.1060
27261W        W42878   7.084  13.599  13.664  0.4036 -0.1570  0.3702
27262W        W42879   3.955   8.452  16.226 -0.2415 -0.1696  0.0717
27263W        W42880  12.367  12.734   4.414  0.1412  0.0886  0.1950
27264W        W42881  12.187  11.406   5.327 -0.1119 -0.3057 -0.1358
27265W        W42882   9.560   3.155   2.882  0.3350 -0.0127 -0.0537
27266W        W42883   7.562  10.595  13.218  0.1658  0.1633 -0.0101
27267W        W42884  14.467  12.400  11.756  0.1989 -0.1882  0.0703
27268W        W42885   7.769   5.575  15.060  0.0983  0.0555 -0.1708
27269W        W42886   2.863  11.200   2.440  0.1466 -0.1481  0.0195
27270W        W42887   3.492   8.408   0.671  0.1681 -0.1104  0.4612
27271W        W42888  17.645   6.441  13.235 -0.2255 -0.0398 -0.2124
27272W        W42889   0.264  15.024   3.188  0.3783 -0.0949  0.0941
27273W        W42890  12.766   3.800   5.170  0.1516 -0.0091 -0.0998
27274W        W42891   7.445   3.074  16.424  0.1673  0.0272  0.0788
27275W        W42892  17.434   5.392  13.973 -0.0176 -0.0750 -0.4610
27276W        W42893   7.563   5.161  14.901  0.1089 -0.1222  0.1960
27277W        W42894   9.550   9.605   4.849 -0.1600 -0.2158  0.0977
27278W        W42895   2.493  12.821  15.927  0.2884 -0.1275  0.1820
27279W        W42896  15.063  12.139   4.712  0.0244 -0.1408  0.2171
27280W        W42897   2.106  12.136   3.365 -0.0833 -0.1692  0.3845
27281W        W42898   8.881   3.744  11.299  0.3238 -0.0382  0.1530
27282W        W42899   7.161   9.594  13.049 -0.1919  0.0047 -0.1930
27283W        W42900  11.851   1.724   6.134  0.3223  0.1065  0.2856
27284W        W42901  11.410  11.781  16.566  0.0540  0.1253  0.3455
27285W        W42902   6.034   7.577  14.890  0.0012 -0.0466  0.2821
27286W        W42903   0.647  14.096   1.563  0.1607 -0.1382  0.0307
27287W        W42904  11.182  12.559   2.644  0.1436 -0.2581  0.1092
27288W        W42905   8.430   7.018   3.263 -0.2091  0.0927 -0.0050
27289W        W42906   6.911  10.496  13.393  0.0098 -0.4986 -0.2227
27290W        W42907  16.186   8.488  13.314  0.0146  0.1207 -0.1783
27291W        W42908  11.473  15.193   2.660 -0.2317  0.0735  0.2100
27292W        W42909  10.933  11.397  15.522 -0.0080  0.1964 -0.0010
27293W        W42910   5.150   2.311  12.220 -0.1950  0.0545 -0.1728
27294W        W42911   0.951   8.729  15.278  0.1300  0.0288  0.2203
27295W        W42912   0.870   8.071  12.889 -0.2123 -0.1743 -0.3600
27296W        W42913  12.271  11.210   2.534 -0.0809 -0.0825  0.2614
27297W        W42914  13.195  16.846  16.551  0.2151 -0.1077  0.1019
27298W        W42915  17.312   9.106  15.284 -0.0765  0.0262 -0.1593
27299W        W42916  12.523   4.341   4.264 -0.1832 -0.0513 -0.0353
27300W        W42917   1.247   9.537  12.898  0.0220  0.0745 -0.0553
27301W        W42918  12.086   4.511  15.532  0.0039  0.2224 -0.1546
27302W        W42919   0.232   1.337  12.491 -0.0763  0.0485 -0.1288
27303W        W42920   5.985   4.302  13.058  0.2576 -0.0758 -0.3839
27304W        W42921   6.279   7.838   3.422 -0.0653  0.1024 -0.0257
27305W        W42922   5.711   2.725  16.242  0.0514  0.2152  0.0551
27306W        W42923   8.606  15.800   1.567 -0.2232 -0.3283  0.1372
27307W        W42924   1.358  15.033   0.687  0.2269 -0.7176  0.0495
27308W        W42925  16.591   0.654  14.983  0.0478 -0.2380 -0.0861
27309W        W42926   5.873  11.054  13.414  0.0642  0.1307 -0.3478
27310W        W42927  17.341   9.599   1.887  0.1043 -0.0377  0.1520
27311W        W42928   3.275  11.159   3.934 -0.2421 -0.3910  0.0160
27312W        W42929   5.686   0.663   0.771  0.0319  0.1023 -0.0641
27313W        W42930   8.318  16.262  15.847  0.1344  0.1773 -0.1097
27314W        W42931  16.959   5.073   0.239  0.2827 -0.0837 -0.0392
27315W        W42932   4.445  14.499   5.097  0.0199 -0.2984 -0.4173
27316W        W42933   4.166   7.041   4.942 -0.0239  0.0832 -0.0038
27317W        W42934  14.699   9.693  12.967  0.0464  0.1213  0.1739
27318W        W42935   6.407  13.420   2.680  0.0471 -0.1017 -0.1182
27319W        W42936   5.564   4.547  13.193  0.0833  0.0887 -0.1374
27320W        W42937  11.124  16.571  13.899 -0.0160 -0.1225  0.0758
27321W        W42938   8.372  12.913  12.687  0.2219 -0.2176  0.1170
27322W        W42939   9.678   1.433   2.922  0.3248  0.2692 -0.0640
27323W        W42940   6.938  14.211   3.815 -0.1454 -0.2991 -0.0117
27324W        W42941   5.163  11.960   5.354 -0.1386 -0.2430  0.1545
27325W        W42942   6.718   0.059  16.464 -0.0931 -0.1758  0.0135
27326W        W42943   0.890   1.704  12.125  0.1529  0.0850  0.1647
27327W        W42944  13.035  11.191   0.547  0.2002  0.2210  0.5102
27328W        W42945  11.396  13.447  15.190  0.1911 -0.0231 -0.2053
27329W        W42946   4.695   2.444   0.785  0.2267 -0.2171 -0.1184
27330W        W42947  12.068   8.358  12.688  0.1440 -0.1876 -0.0578
27331W        W42948   4.476  12.303   2.185 -0.1184 -0.0008 -0.0089
27332W        W42949  10.328   5.673  13.422 -0.1890 -0.2137 -0.2909
27333W        W42950   3.294   6.825   4.470 -0.3599  0.2186  0.0814
27334W        W42951   7.843   5.735   5.382 -0.1399 -0.2859  0.4284
27335W        W42952   2.145   9.490  15.136  0.0178 -0.0325 -0.3789
27336W        W42953  11.237   6.785  13.055  0.4104  0.2697  0.4164
27337W        W42954   0.778   2.214  14.846 -0.2039  0.0098  0.0191
27338W        W42955  12.917   1.755  13.448 -0.0570 -0.3269  0.1480
27339W        W42956   9.538   5.664   1.193  0.2092 -0.1741  0.1014
27340W        W42957  15.840   2.270  14.665  0.0813  0.3775  0.0976
27341W        W42958   8.969   3.098   1.185 -0.0186 -0.0404  0.3091
27342W        W42959   3.839  10.208  13.776 -0.4210  0.1156  0.0861
27343W        W42960   4.036  13.584  14.393  0.2374  0.0004  0.0104
27344W        W42961   3.835  10.852   0.310  0.0226 -0.2292  0.0439
27345W        W42962  15.027   7.175  12.576  0.1371 -0.0647  0.4228
27346W        W42963  10.319   2.701  16.737 -0.0279 -0.1276  0.2076
27347W        W42964   2.684  16.792  10.932  0.1960  0.3809 -0.1903
27348W        W42965   4.133  14.964   0.394  0.4199 -0.2010 -0.2890
27349W        W42966   8.578   0.676   2.139  0.1795 -0.0002 -0.1456
27350W        W42967   8.153   8.891  13.078 -0.0003  0.1261 -0.1893
27351W        W42968   4.026   6.559  11.837 -0.1462  0.0494 -0.0580
27352W        W42969   9.612   7.994   4.931  0.1543 -0.1148 -0.1411
27353W        W42970  17.992  14.409   5.022  0.0352 -0.1450  0.3140
27354W        W42971   8.024  15.772  14.037  0.2405 -0.1332  0.3198
27355W        W42972   1.793   8.007   6.131  0.0971 -0.0401 -0.0105
27356W        W42973   8.982   9.636  15.066 -0.2572 -0.1665 -0.0536
27357W        W42974  13.374   9.677   6.129  0.3625 -0.1998 -0.2021
27358W        W42975  14.890  10.044  13.473 -0.1853  0.0207 -0.1427
27359W        W42976   4.743  12.138  11.771 -0.3435  0.0154 -0.2870
27360W        W42977   4.059   5.186   3.264  0.1331 -0.0947  0.0075
27361W        W42978  17.124   4.990   3.024  0.1185  0.0303 -0.4286
27362W        W42979  16.065   3.806  15.856 -0.0300  0.1129  0.0862
27363W        W42980  11.678   4.269   1.481 -0.1155 -0.0650 -0.3605
27364W        W42981   4.021   1.485   1.411 -0.2170 -0.1296  0.4198
27365W        W42982  15.773  11.815  14.049  0.1128 -0.0263 -0.1527
27366W        W42983  15.128  14.664  12.168  0.1899  0.1221 -0.2912
27367W        W42984  16.991  13.933  12.014 -0.3508 -0.2003  0.2453
27368W        W42985  17.008   4.330   0.647 -0.1195  0.0894 -0.2747
27369W        W42986  13.237  17.768   3.439 -0.4717  0.1974 -0.1802
27370W        W42987   7.872  17.650   4.473  0.1458 -0.4311 -0.0289
27371W        W42988  17.743   1.694   5.870  0.2976 -0.0198  0.0218
27372W        W42989   2.772  15.168  14.657 -0.3568  0.3307  0.0013
27373W        W42990  17.774  12.348   0.665 -0.1985  0.0481  0.3644
27374W        W42991   6.450  15.003  11.820  0.1439  0.2298 -0.2077
27375W        W42992  12.244  14.291  14.398  0.3879 -0.3521  0.1905
27376W        W42993   9.735  13.685   5.057  0.2959  0.0810  0.2683
27377W        W42994   9.759   0.775  15.800 -0.3587 -0.0096 -0.1033
27378W        W42995   4.306   9.567  14.652  0.1829  0.5039 -0.3915
27379W        W42996   5.978   5.447  15.597  0.1880 -0.2305 -0.1605
27380W        W42997  14.509   5.642   0.719  0.0993  0.2410 -0.1082
27381W        W42998  14.895   6.351  13.039 -0.1445 -0.3748  0.0470
27382W        W42999  12.863   2.337  16.791 -0.1136 -0.1202 -0.1328
27383W        W43000  12.866   4.009   3.818 -0.0348 -0.1901 -0.1657
27384W        W43001   3.326   0.520   1.122  0.1105 -0.1403 -0.0120
27385W        W43002   1.448  14.545   0.475 -0.0562 -0.2478 -0.1965
27386W        W43003  15.150   7.086   1.838 -0.1390  0.2644  0.0336
27387W        W43004  15.888   8.545   5.557 -0.0866  0.0086  0.2936
27388W        W43005  10.054  15.130  12.188 -0.1201  0.1012 -0.1454
27389W        W43006   3.707   7.453   5.286  0.1105 -0.2564 -0.1438
27390W        W43007   3.277   4.843   1.066 -0.2122  0.1899  0.3053
27391W        W43008   8.629  10.084   1.881  0.2082 -0.0518 -0.1423
27392W        W43009  17.280  10.353  11.985  0.0221 -0.0679  0.0527
27393W        W43010  12.828  14.984   5.440 -0.1297  0.2528 -0.1816
27394W        W43011  13.803  13.694   1.651  0.1752 -0.2186 -0.1141
27395W        W43012   3.210  10.502  12.653  0.0749  0.4493  0.5139
27396W        W43013   8.764   9.789  10.536  0.1457 -0.1166 -0.1073
27397W        W43014  17.007   2.757  14.309  0.0730  0.1148 -0.0852
27398W        W43015   4.067   9.314   2.676 -0.3375  0.1716 -0.0814
27399W        W43016   6.025   3.750  14.230  0.0384  0.3246  0.0687
27400W        W43017   4.139  13.796   2.169 -0.2657  0.0295  0.2633
27401W        W43018  17.073  17.716  11.719 -0.0183 -0.0144  0.0366
27402W        W43019   2.850  10.175  13.893 -0.1072 -0.1020 -0.2816
27403W        W43020   9.679  14.388   3.079 -0.1335 -0.0650 -0.1250
27404W        W43021  14.333   9.710   5.630 -0.1058  0.2018  0.1132
27405W        W43022  14.395  12.694  16.399 -0.0919 -0.0239 -0.0699
27406W        W43023   6.971  14.220  12.847  0.2029  0.0345  0.3429
27407W        W43024  14.511  15.915   5.758 -0.4851 -0.3545 -0.3308
27408W        W43025   7.164   3.996  11.456  0.2242 -0.1783 -0.1945
27409W        W43026  14.283   8.682   1.866 -0.1725  0.0261 -0.1612
27410W        W43027  10.072  14.797  14.303  0.0330  0.2404  0.1392
27411W        W43028  15.120  16.609   0.169  0.0567 -0.0479 -0.4235
27412W        W43029   7.224   7.339  11.243 -0.5990 -0.0929 -0.1129
27413W        W43030  13.124   3.244  16.111  0.1975  0.2301 -0.1562
27414W        W43031  14.757   6.123  14.338  0.3720 -0.0281  0.0151
27415W        W43032  17.388   4.462   5.862  0.0154  0.1034 -0.0308
27416W        W43033   1.010   2.616   0.681  0.1040 -0.1760 -0.2349
27417W        W43034  16.269  17.945   2.730  0.1551  0.1490  0.1710
27418W        W43035   3.273   8.386   5.025  0.1291  0.0780 -0.0501
27419W        W43036   9.173   5.855  16.084  0.0514  0.2523 -0.1964
27420W        W43037  17.579   1.870   1.981  0.0177 -0.3149 -0.1490
27421W        W43038  15.990  12.554  15.604 -0.1402 -0.1412  0.1132
27422W        W43039   0.042   0.598  13.514  0.0588  0.0277  0.3341
27423W        W43040  13.789  10.452  12.584 -0.0930  0.1529 -0.0331
27424W        W43041   0.369   2.568  11.049 -0.1191  0.0315  0.2422
27425W        W43042  16.057  13.295   0.299 -0.0728 -0.0589  0.3539
27426W        W43043   0.707   5.029   5.866 -0.0169 -0.1621  0.0380
27427W        W43044   3.325   5.791   6.410  0.0827  0.2172  0.3760
27428W        W43045  11.909  15.501   2.041 -0.3306 -0.0216  0.2231
27429W        W43046   7.618   4.734   3.699 -0.0846 -0.0472 -0.2797
27430W        W43047   6.392  16.641  11.521 -0.3321 -0.0821 -0.1136
27431W        W43048   9.272   7.646   0.134  0.0579  0.2469 -0.2743
27432W        W43049   5.652   3.278   1.323  0.1395  0.0491 -0.1873
27433W        W43050   4.781  17.073  14.403  0.0892  0.0723  0.0757
27434W        W43051   9.621  11.737  15.808  0.2137  0.1066  0.3626
27435W        W43052  17.932   4.503   3.302  0.2255  0.0589  0.0566
27436W        W43053  16.170   4.113  14.032 -0.1647 -0.0932  0.0004
27437W        W43054  10.630  17.222   5.535  0.1061  0.0622 -0.0292
27438W        W43055   1.472  12.866   5.503  0.1287 -0.0992  0.0164
27439W        W43056   4.069   0.444  14.958  0.2028  0.1166  0.1319
27440W        W43057   4.586   6.661  15.199 -0.0401 -0.0275 -0.1118
27441W        W43058   3.124   3.170   3.402  0.0013 -0.0269 -0.1105
27442W        W43059  13.036   5.184  11.859 -0.1160 -0.2118  0.0034
27443W        W43060   2.479  11.509  14.255 -0.1138  0.0930 -0.3022
27444W        W43061   4.939  12.464  14.627  0.1402  0.0991  0.1309
27445W        W43062  14.657   5.698  14.113 -0.0149  0.3630 -0.2610
27446W        W43063  14.574   3.395  14.501 -0.1765  0.2949  0.3578
27447W        W43064   7.953   3.305   1.856  0.0905 -0.0028  0.0907
27448W        W43065   0.997   7.264   4.520 -0.3264  0.1658 -0.0958
27449W        W43066   9.780  10.782  15.978 -0.1818  0.1503  0.0840
27450W        W43067   0.654  13.588  15.291  0.1225 -0.0257  0.1902
27451W        W43068   9.948   3.472  14.190  0.0735  0.2726  0.2165
27452W        W43069   5.528   2.863  15.118  0.1462  0.0675  0.0896
27453W        W43070  10.554   6.946  11.318  0.3449  0.2996 -0.4040
27454W        W43071   4.849  11.282  13.688 -0.2215 -0.1673  0.1833
27455W        W43072   1.504  13.407   1.293  0.0310 -0.0745  0.2244
27456W        W43073   7.236  10.049   2.490  0.0825  0.1304  0.0451
27457W        W43074  11.403   1.077   1.691  0.0126 -0.2116 -0.0259
27458W        W43075   1.694  11.351  13.463  0.1659  0.0848 -0.1692
27459W        W43076  11.130  15.627  13.201 -0.3183 -0.2278 -0.0646
27460W        W43077  14.636  12.682  13.328  0.0591 -0.2745 -0.1610
27461W        W43078  14.252   4.965   0.009 -0.2176 -0.0227 -0.1809
27462W        W43079   0.962  10.309  14.371 -0.1706  0.1147 -0.2416
27463W        W43080  13.926  12.316  12.892  0.5160  0.1237  0.0609
27464W        W43081  17.274   3.927  11.958  0.0873  0.0958  0.3294
27465W        W43082  13.738  12.560  10.511  0.1174 -0.0360 -0.2891
27466W        W43083  17.174  12.670   3.190 -0.0014  0.2195  0.1061
27467W        W43084  17.253  15.664   5.247  0.3685 -0.1431 -0.2988
27468W        W43085   4.898   0.779  13.425 -0.2235 -0.2840  0.1722
27469W        W43086   1.367   8.551   2.971 -0.1626 -0.0920 -0.3044
27470W        W43087   8.738   9.620   1.673  0.0536 -0.0778  0.0146
27471W        W43088   7.674   0.770   5.210  0.1633 -0.2948  0.4615
27472W        W43089   5.171   3.956  11.174 -0.1933  0.2151 -0.0632
27473W        W43090   4.793   3.696   1.739 -0.1354 -0.0139  0.0229
27474W        W43091   7.783   6.822   4.133 -0.1795  0.2567 -0.0620
27475W        W43092   2.498  12.499  16.362  0.0902  0.0704 -0.0607
27476W        W43093   5.165   1.738   2.178 -0.1361 -0.1295 -0.0118
27477W        W43094   1.813  15.503  12.224 -0.5340  0.1944 -0.2773
27478W        W43095   8.646   1.934   4.186 -0.1834  0.0965  0.1693
27479W        W43096   4.800  17.620  12.511 -0.2030 -0.1508 -0.4114
27480W        W43097   2.351   5.441  10.929  0.2712  0.1325  0.1321
27481W        W43098   9.748  10.432   1.060  0.2531 -0.1226 -0.0534
27482W        W43099   9.494   8.723  10.345 -0.1618  0.0406 -0.0571
27483W        W43100   8.454   9.796  14.887 -0.0645 -0.1908 -0.0812
27484W        W43101   2.833   5.912   2.846  0.0479 -0.0976 -0.0501
27485W        W43102   1.068   3.455   0.765  0.1842  0.3062  0.1010
27486W        W43103  16.649  17.632  16.429 -0.1331 -0.1845  0.3880
27487W        W43104   0.112   3.123   5.269 -0.0346 -0.0484 -0.0633
27488W        W43105   9.783  16.510  14.395  0.0482  0.1362 -0.0327
27489W        W43106   7.985   5.589  11.329  0.0653 -0.0642  0.1900
27490W        W43107   5.189  10.429   3.946  0.1011  0.0663 -0.0474
27491W        W43108  10.566   2.602   4.907 -0.1199 -0.1607 -0.2468
27492W        W43109  12.386   0.393  13.164 -0.2233 -0.1590 -0.1150
27493W        W43110   1.292   8.815  11.777 -0.1267  0.0750 -0.1534
27494W        W43111   1.550   9.895   2.656  0.1006 -0.3127 -0.2222
27495W        W43112   8.968   2.856   3.812 -0.0717  0.0050  0.0305
27496W        W43113   5.163   4.636  15.764 -0.2990 -0.0470  0.0122
27497W        W43114  17.316   1.943  11.505  0.0408  0.0671 -0.1879
27498W        W43115  13.076  17.514   2.628 -0.1941  0.0513 -0.0794
27499W        W43116  16.254   1.842   5.545  0.1562  0.1482  0.1785
27500W        W43117   2.212   3.539   5.060  0.1280  0.1307  0.1738
27501W        W43118   0.465   8.486   4.042 -0.0523  0.1658 -0.0114
27502W        W43119   6.755   1.370   5.585 -0.2447  0.0065  0.2621
27503W        W43120   6.455   6.439   1.456  0.2080  0.0626 -0.0103
27504W        W43121  10.156  14.301  10.916  0.0910 -0.0875  0.0390
27505W        W43122   7.400  14.415  11.209  0.1300 -0.2576  0.1852
27506W        W43123   7.662  16.662   0.657 -0.2771  0.0200  0.0793
27507W        W43124   6.554  16.282   3.293  0.2740 -0.3245 -0.0406
27508W        W43125   1.446  17.656   0.496 -0.1434  0.1381 -0.3308
27509W        W43126   4.682   3.747   3.217  0.1194  0.1177 -0.1512
27510W        W43127   0.755  12.840   1.863  0.1020 -0.0363 -0.3854
27511W        W43128   0.460  14.604   2.908 -0.2789 -0.1612 -0.1127
27512W        W43129   7.688  12.971  16.193  0.3415 -0.2145 -0.1438
27513W        W43130  15.845  10.329   4.679 -0.1344 -0.2975 -0.0483
27514W        W43131   2.227   5.471   5.773 -0.1341  0.2877  0.1752
27515W        W43132   5.499  14.367  10.787  0.0493 -0.1849  0.0393
27516W        W43133   3.794   2.904   3.026 -0.0941  0.1531 -0.0826
27517W        W43134   7.980   9.481   4.743 -0.1471  0.0996 -0.1699
27518W        W43135  10.638   5.853  11.925  0.3040 -0.0020  0.0382
27519W        W43136   8.481  15.696   0.406 -0.0416  0.2604  0.2107
27520W        W43137   4.647  12.720  11.651 -0.2575  0.0912 -0.0204
27521W        W43138  15.338   4.408   4.341  0.0376  0.0747  0.0666
27522W        W43139  14.665  13.990   6.015 -0.0970 -0.1200  0.0299
27523W        W43140  15.197  12.726   1.464 -0.0576 -0.0993  0.1142
27524W        W43141   2.357  17.870  14.249 -0.0002  0.1770 -0.0538
27525W        W43142  12.928   1.566  15.649  0.0757 -0.0726 -0.1343
27526W        W43143  17.268   3.165   3.852  0.1153 -0.0653  0.2651
27527W        W43144  13.127  16.591  13.422 -0.1536 -0.2379  0.0711
27528W        W43145  12.105  14.945   3.211 -0.0007  0.0586 -0.1205
27529W        W43146   4.445  14.024  15.584 -0.0147 -0.0017 -0.1067
27530W        W43147   7.242   0.471   0.031  0.0434 -0.0381 -0.1468
27531W        W43148  15.076  10.806  13.374  0.2167 -0.1078 -0.2535
27532W        W43149   5.973   0.683   4.953 -0.2053 -0.1956 -0.0274
27533W        W43150   5.153   9.996   5.301 -0.2827  0.0983 -0.0569
27534W        W43151  13.924   8.973  15.817  0.2965 -0.1460  0.2371
27535W        W43152   6.044   5.772   3.620 -0.1927 -0.2894 -0.0929
27536W        W43153   5.898   5.243  16.543 -0.1314 -0.2641 -0.0901
27537W        W43154  16.805   4.911  14.139 -0.1691 -0.2923 -0.0338
27538W        W43155  15.901   6.882  15.967 -0.2109 -0.0704  0.1401
27539W        W43156  14.028  11.600   0.336 -0.0793 -0.0104  0.1740
27540W        W43157   4.215   9.360  12.669  0.0447  0.4379 -0.0921
27541W        W43158  14.618   7.607  16.757 -0.1584  0.0413  0.0150
27542W        W43159   8.226   6.116  15.532 -0.1115  0.2346 -0.1925
27543W        W43160   0.390   4.525  15.663  0.0624 -0.0424  0.2930
27544W        W43161  12.723  10.971  16.646  0.0535 -0.0613  0.0654
27545W        W43162   8.933  10.655   0.278  0.2457  0.2968 -0.2400
27546W        W43163  16.363   9.656  14.481  0.2910 -0.1295  0.1405
27547W        W43164  16.045  16.712   2.566  0.0101  0.3932 -0.0534
27548W        W43165   6.165   8.429  15.015  0.0670  0.2246  0.0173
27549W        W43166  16.751   6.048   0.402 -0.4099  0.1942  0.2495
27550W        W43167  15.467   9.803  15.555  0.1158 -0.0189  0.0394
27551W        W43168  17.523   4.437  12.234 -0.0282 -0.0491 -0.0399
27552W        W43169  15.552   4.491  13.797 -0.4712 -0.4305  0.0211
27553W        W43170  15.583  13.610   2.409 -0.0889  0.1567  0.3358
27554W        W43171   8.969   9.288   4.070 -0.0753  0.4362 -0.0116
27555W        W43172   4.329   9.017  11.698  0.3552 -0.3736  0.2702
27556W        W43173  15.679   7.438   2.650 -0.0208 -0.0423 -0.0129
27557W        W43174   5.739   6.510   3.053  0.2653 -0.0508 -0.1476
27558W        W43175   3.314  11.166   5.217  0.0858  0.0095 -0.0386
27559W        W43176   3.230  11.411  12.527  0.1155  0.0059 -0.1559
27560W        W43177  14.819  11.187   3.307  0.2047  0.0920  0.1846
27561W        W43178   6.417  10.481   4.267 -0.0236 -0.0361 -0.0368
27562W        W43179  17.365   5.954   4.421 -0.0702  0.0950 -0.1859
27563W        W43180   2.152   3.232   2.021  0.0437 -0.1374 -0.2324
27564W        W43181  13.289   3.706   5.138  0.2025  0.0464 -0.1712
27565W        W43182   0.471   3.517  15.238 -0.0791 -0.1008  0.0435
27566W        W43183   2.702   8.037  11.565  0.4511 -0.0056  0.3530
27567W        W43184   1.689  12.421   0.998  0.1273  0.0889 -0.2486
27568W        W43185   5.987  10.801   2.098 -0.1506 -0.1256 -0.1055
27569W        W43186  15.119   5.408  14.916  0.2550  0.0018 -0.0780
27570W        W43187  10.089   1.152   1.015  0.1385 -0.2702  0.0629
27571W        W43188   9.040  16.646   1.291 -0.1734 -0.1720 -0.0696
27572W        W43189   8.164  14.350  15.802 -0.1479 -0.0790  0.1205
27573W        W43190  10.033   2.182  15.847 -0.1892 -0.0780  0.2473
27574W        W43191   2.231   6.334   0.987 -0.1067  0.2197  0.2019
27575W        W43192  15.354   4.087  12.086 -0.0862  0.4437 -0.0290
27576W        W43193   7.747  13.018  11.524  0.0298 -0.2608 -0.2505
27577W        W43194   6.897  10.906   4.204  0.3643 -0.0969  0.0467
27578W        W43195   9.568  16.576   0.465 -0.2932  0.0875  0.1166
27579W        W43196  15.641   0.192   4.089  0.0970  0.0406 -0.2285
27580W        W43197   0.974  15.566  11.850 -0.0945  0.0837 -0.1116
27581W        W43198  18.023   6.736   0.616 -0.0988  0.0718 -0.1976
27582W        W43199   4.529  11.335   5.186 -0.0422 -0.2377  0.1765
27583W        W43200   1.259  18.044  15.601  0.1449  0.2138  0.0354
27584W        W43201  12.582  13.382   4.397 -0.0357 -0.0450 -0.0483
27585W        W43202   4.244   8.874  16.289  0.1051  0.0161 -0.2758
27586W        W43203   6.438  15.583   4.523  0.0425 -0.3543  0.3161
27587W        W43204   7.134  10.513  15.280  0.2098  0.1588 -0.0512
27588W        W43205   1.688  11.631   2.620  0.3051 -0.2931 -0.2316
27589W        W43206   9.226  15.188  13.924  0.0534  0.2790  0.1095
27590W        W43207   3.884  10.386   2.706 -0.0513  0.2268  0.2125
27591W        W43208   4.735   4.316   6.163 -0.1114 -0.0521  0.0091
27592W        W43209   4.528   3.146  15.135  0.2729  0.0881  0.1308
27593W        W43210   1.000   9.042   2.723 -0.1021 -0.0437  0.0855
27594W        W43211  11.027   0.290   4.488 -0.3116  0.2651 -0.0718
27595W        W43212  14.346   7.108  15.267 -0.3002 -0.1279  0.0749
27596W        W43213   6.332  16.791  13.413  0.2820  0.2878 -0.5252
27597W        W43214  10.927   7.513   1.162  0.0530 -0.2401 -0.2075
27598W        W43215   6.565  10.706   3.766 -0.1148 -0.0311 -0.2286
27599W        W43216  17.376  12.439   6.315 -0.1900  0.0898  0.1803
27600W        W43217   9.302   3.544  16.467  0.3208 -0.0016  0.1319
27601W        W43218   4.046  12.582  16.668  0.1032  0.1617 -0.1628
27602W        W43219  11.748   2.101  16.669  0.0576 -0.1388 -0.2689
27603W        W43220   6.507  10.548  16.376 -0.0819 -0.1200  0.1652
27604W        W43221  12.341  11.984   3.389  0.2431 -0.2610 -0.0336
27605W        W43222  14.655   0.366   3.216 -0.2349 -0.3073 -0.1877
27606W        W43223   4.636  14.710  13.121  0.1354 -0.0073 -0.0165
27607W        W43224   7.871  11.830   3.015  0.3785  0.0767  0.3707
27608W        W43225   6.455  13.744  15.876  0.2855  0.0178  0.0551
27609W        W43226   9.223   1.490  15.622  0.2482  0.0725  0.0650
27610W        W43227  17.447  10.429   1.062 -0.0597 -0.0818 -0.1368
27611W        W43228   1.326   8.829  15.026 -0.1158  0.2191 -0.0274
27612W        W43229   5.392   7.962   3.951 -0.2622  0.1542 -0.4670
27613W        W43230  15.307  17.273  13.712  0.1152 -0.0682  0.0117
27614W        W43231   8.857  15.854   4.966  0.1445  0.0608  0.0001
27615W        W43232  11.065   1.329  15.702 -0.0770  0.3318 -0.1898
27616W        W43233   7.740  13.322  11.105 -0.1483  0.2553 -0.0160
27617W        W43234   5.920   3.827  12.999  0.0692 -0.0532 -0.0856
27618W        W43235  17.672  13.097  16.373  0.0513  0.2507 -0.0608
27619W        W43236   3.508   8.247  16.479  0.0385 -0.3970  0.0029
27620W        W43237   3.033  11.265   0.529  0.0341  0.0280 -0.1749
27621W        W43238   1.257  18.010  11.843 -0.0609  0.2214  0.4571
27622W        W43239  14.226   2.053  13.734 -0.1256 -0.0746  0.3131
27623W        W43240   0.382  16.497   0.294  0.1648 -0.1494 -0.1855
27624W        W43241   5.098  16.330  16.241 -0.1418  0.3228 -0.1668
27625W        W43242  10.866   8.851   5.418 -0.1155 -0.4030 -0.1359
27626W        W43243  12.338   6.071  14.155  0.2177  0.1688  0.0752
27627W        W43244   6.712   9.616  15.524 -0.2270  0.1862  0.1106
27628W        W43245   5.561  11.176   2.068  0.0578 -0.2469  0.0022
27629W        W43246   2.201  16.787  15.123 -0.3807  0.1611 -0.0617
27630W        W43247  12.545   2.494  12.268 -0.0972  0.1092 -0.1471
27631W        W43248   6.987  12.957  12.109 -0.1901 -0.3517 -0.2519
27632W        W43249   4.722  14.442  13.955  0.1797  0.1299 -0.0626
27633W        W43250  11.293   6.805   0.756 -0.1304 -0.0887  0.0868
27634W        W43251   8.127   5.222   3.218 -0.4021 -0.0034  0.2649
27635W        W43252   1.217   7.750  12.345 -0.0417  0.1681  0.0321
27636W        W43253  13.444  15.716   4.520  0.0133 -0.1213  0.0323
27637W        W43254  11.922  15.067  11.440 -0.1434  0.0977 -0.1192
27638W        W43255   7.041   8.323   2.434 -0.1888 -0.1763  0.4003
27639W        W43256   0.508   0.162   4.467 -0.1072 -0.1106  0.0993
27640W        W43257   5.518   5.807  11.940 -0.0416 -0.2157 -0.0888
27641W        W43258  15.856  12.491  12.524 -0.0310  0.2800 -0.1778
27642W        W43259   5.997  11.821  11.885  0.0816 -0.0262  0.0013
27643W        W43260  11.010   6.822   4.849  0.1557  0.2961  0.2144
27644W        W43261  17.627  17.001  13.709  0.0921 -0.0806  0.0140
27645W        W43262  10.512  12.813  11.003  0.2772  0.1015  0.2481
27646W        W43263   2.545   2.372   1.838 -0.4659 -0.0163  0.1350
27647W        W43264   4.761   4.111  13.141  0.0003 -0.1093  0.2185
27648W        W43265   9.736   0.668  13.190 -0.0107  0.0101 -0.0033
27649W        W43266   8.039  16.593  14.061 -0.3845 -0.0101  0.2989
27650W        W43267   3.000   1.295   0.521 -0.3912 -0.1190 -0.0244
27651W        W43268  13.958   6.295   5.419  0.0889 -0.0441  0.0415
27652W        W43269  11.168  10.907  15.761 -0.1792  0.0424  0.0525
27653W        W43270   8.056   1.727  11.818 -0.0067  0.0121 -0.3953
27654W        W43271   3.538   2.155  12.883 -0.2682 -0.0567 -0.3816
27655W        W43272   0.081  16.844  12.158 -0.1094  0.0967 -0.2135
27656W        W43273  15.937   2.583  12.273 -0.3837 -0.0824 -0.3444
27657W        W43274   6.112  16.084  15.260 -0.0970  0.2852  0.0608
27658W        W43275  14.515   6.681  15.752  0.0524 -0.0252 -0.1142
27659W        W43276  11.778   6.616   0.043 -0.1571  0.1041  0.0979
27660W        W43277  13.266  15.439  11.948  0.1819  0.1212  0.0462
27661W        W43278  11.005   2.847  14.414  0.3344  0.0664  0.0858
27662W        W43279   8.331  11.159   5.214 -0.0099  0.3866  0.1086
27663W        W43280   6.549   2.868  12.148 -0.1786  0.1493  0.1288
27664W        W43281  12.179   1.886  15.838 -0.2731  0.4046  0.3320
27665W        W43282   9.949   5.101  16.262 -0.2812  0.2219  0.1146
27666W        W43283   9.608  17.954  13.520 -0.1362  0.0598  0.0677
27667W        W43284  16.688   8.194   2.960 -0.2864  0.0665  0.0702
27668W        W43285  17.525  17.911   4.632  0.1758 -0.2666  0.1589
27669W        W43286   6.508   1.725   2.401  0.1644  0.3172 -0.1060
27670W        W43287   2.384   9.541   1.923 -0.0858  0.3141  0.0742
27671W        W43288  11.634   2.784   1.156 -0.2259  0.1764  0.0091
27672W        W43289  14.849   2.116  12.147 -0.4407 -0.0790 -0.2858
27673W        W43290   9.271  12.756  12.276 -0.0896 -0.0800  0.2523
27674W        W43291   7.240  14.697   4.647 -0.0184 -0.1364  0.0332
27675W        W43292   4.526   1.767  15.108 -0.0759  0.1752  0.1180
27676W        W43293   8.970   4.715   5.870 -0.0150 -0.2689 -0.1286
27677W        W43294  13.705   9.718   4.197  0.0678  0.2196 -0.2428
27678W        W43295  10.557   5.410   5.826 -0.0025  0.2413  0.2749
27679W        W43296  16.474   8.589  15.993 -0.0630 -0.0916  0.1751
27680W        W43297   4.408   4.375   2.159 -0.1321  0.2913 -0.0022
27681W        W43298   4.133  11.376  15.216 -0.2621  0.4058 -0.0046
27682W        W43299  11.071   4.665  12.731 -0.1823  0.1032  0.2078
27683W        W43300   9.192   8.204  11.072  0.0639 -0.2330 -0.0549
27684W        W43301  12.246  15.587  11.725 -0.2300  0.0153 -0.1730
27685W        W43302   1.540   5.215   0.967  0.4401 -0.0543  0.3648
27686W        W43303   2.022  17.085  16.295 -0.2961 -0.3438  0.1966
27687W        W43304   3.276  10.096   1.052  0.0502 -0.1179  0.0664
27688W        W43305   4.147   8.364  12.981 -0.3315 -0.3569 -0.1304
27689W        W43306  16.438   3.502   4.061  0.0553 -0.5020  0.1125
27690W        W43307   4.239   3.078   5.816  0.0162  0.0347 -0.2959
27691W        W43308  17.324  15.824   5.892  0.3737  0.0601 -0.0227
27692W        W43309  16.379   5.403   3.225 -0.1484 -0.1759  0.1390
27693W        W43310   4.525   4.751  16.632  0.0341  0.2213  0.3145
27694W        W43311   2.003  10.245  12.905 -0.2429 -0.0531 -0.1103
27695W        W43312   7.988  17.974  13.948  0.0353 -0.1702 -0.1809
27696W        W43313  14.868  17.975  16.076 -0.0522 -0.3524  0.1311
27697W        W43314   3.719  13.378  15.340 -0.7063  0.0436  0.1464
27698W        W43315  11.684   9.382   3.004 -0.1890 -0.1123 -0.1741
27699W        W43316  15.708   8.183   3.012 -0.2855  0.1332  0.4785
27700W        W43317   7.542   7.639  10.961 -0.1465  0.1773 -0.0215
27701W        W43318  10.799   3.289  12.460  0.1319  0.1489 -0.0551
27702W        W43319   6.479  16.556   1.983 -0.0990 -0.1745  0.2151
27703W        W43320   3.025   4.629  12.688 -0.0214  0.1367  0.1154
27704W        W43321  11.504   7.027   2.627  0.1963  0.0288  0.0597
27705W        W43322  16.957   2.716   3.005  0.1662  0.0569  0.5191
27706W        W43323  17.948   8.427   6.129 -0.0470 -0.0518 -0.1465
27707W        W43324  12.771   5.602   0.987 -0.1354  0.0738 -0.0619
27708W        W43325   0.551  10.983   1.962 -0.5091 -0.0545  0.1777
27709W        W43326   7.631   3.910  15.570 -0.0396 -0.0091 -0.2089
27710W        W43327  15.529   8.195   2.468 -0.1859 -0.0989 -0.2737
27711W        W43328  16.421   7.006   4.377  0.2326  0.0579  0.0356
27712W        W43329   4.108   4.059   5.459  0.0901  0.2194  0.1164
27713W        W43330  16.834  15.546  11.632  0.0100  0.2521 -0.1541
27714W        W43331  10.098  12.730   1.246 -0.0081 -0.0126  0.0892
27715W        W43332  14.097  12.811  13.212 -0.2106 -0.1594 -0.1652
27716W        W43333   7.390  14.826  15.666  0.0461 -0.1678  0.1862
27717W        W43334   4.441   4.036   2.854 -0.0104  0.0330  0.4207
27718W        W43335  11.166  14.087  15.692 -0.0436 -0.1957 -0.1702
27719W        W43336  11.266   0.418   4.054  0.4124 -0.2096  0.2275
27720W        W43337   9.838  16.935   1.537 -0.3341 -0.1026 -0.1123
27721W        W43338  10.639  17.254   0.562  0.3116  0.0426 -0.0533
27722W        W43339   9.000   0.903   2.242  0.0046  0.0286  0.1790
27723W        W43340   6.061   6.704   4.926  0.2428 -0.0194  0.2411
27724W        W43341   5.493  13.466  12.860  0.1558  0.3395 -0.0846
27725W        W43342  16.178   3.207  14.137 -0.1832  0.2269 -0.0118
27726W        W43343   5.750  15.894   1.731 -0.0132 -0.1189 -0.1526
27727W        W43344   7.201  14.452  15.319 -0.0289 -0.0568 -0.0047
27728W        W43345   3.320   3.667  10.771  0.1960 -0.1143 -0.2193
27729W        W43346   7.393   2.101   1.676  0.2405 -0.2175 -0.3166
27730W        W43347   9.233  10.740   2.435  0.0743  0.2684 -0.0473
27731W        W43348  10.329  12.245   6.146 -0.1335 -0.0056  0.0241
27732W        W43349   3.366  17.631   4.538 -0.0432 -0.1977 -0.1926
27733W        W43350  17.051  18.004  16.489  0.0690 -0.2827 -0.0950
27734W        W43351  11.211   2.554   1.965 -0.0604 -0.2209  0.0259
27735W        W43352   0.771  12.610   2.558 -0.0625  0.2738 -0.0378
27736W        W43353  11.745  15.648   2.508 -0.0105  0.0708 -0.1182
27737W        W43354  17.639  16.325   5.021 -0.0824 -0.2278 -0.1539
27738W        W43355  14.894   1.275  12.219  0.3480 -0.3078 -0.1866
27739W        W43356  13.079  16.788  14.085 -0.1363  0.0441 -0.0247
27740W        W43357   7.829   7.493  10.265 -0.1354  0.0086  0.1917
27741W        W43358  11.224   6.649  16.483  0.2429  0.1856 -0.3082
27742W        W43359   4.294  15.559  11.177 -0.1434 -0.2497 -0.0047
27743W        W43360  15.807   2.955  13.009 -0.3009  0.2200 -0.0575
27744W        W43361  13.842   3.133  15.608 -0.1130 -0.3654  0.0081
27745W        W43362  12.984   4.361  15.579  0.0579 -0.0898 -0.3870
27746W        W43363  10.341  14.175   4.491  0.3673  0.2554  0.3518
27747W        W43364  18.015  12.366  13.872 -0.0555 -0.0207  0.2034
27748W        W43365  12.432   0.762  15.459  0.0310  0.1464 -0.0392
27749W        W43366   9.289   8.829  14.603  0.2642  0.1527 -0.1978
27750W        W43367   6.906   5.903   0.228 -0.0758 -0.0245  0.0652
27751W        W43368  16.735  14.277   3.092 -0.1224  0.3640  0.1823
27752W        W43369   4.435  15.442   4.387  0.1483 -0.0233  0.0325
27753W        W43370   0.653  12.081   4.111  0.1621 -0.0699 -0.1186
27754W        W43371  14.343   5.807  13.631 -0.1633  0.0097 -0.1601
27755W        W43372  17.159   3.177  15.416 -0.1480  0.2753 -0.1734
27756W        W43373   6.663   1.109  14.983  0.0992  0.1619 -0.0766
27757W        W43374   7.514   8.123   2.316  0.0746  0.0924  0.4552
27758W        W43375   3.415  13.929   2.503 -0.1615 -0.0496  0.0533
27759W        W43376  13.297  14.725  10.681  0.2694 -0.0111 -0.1592
27760W        W43377   4.390  16.885   3.794  0.1697  0.0655  0.0726
27761W        W43378   9.010   5.482  12.216 -0.2072 -0.0926 -0.0295
27762W        W43379   8.235   7.345  13.586 -0.0531 -0.2933 -0.0096
27763W        W43380  12.587   9.270  15.670  0.0930  0.2496  0.1665
27764W        W43381   5.649  12.865  14.626  0.1124  0.0284  0.2944
27765W        W43382   8.594  14.674  12.493  0.0123  0.0794  0.1577
27766W        W43383  15.965   1.698  16.728 -0.2150  0.1885 -0.0915
27767W        W43384  12.449   5.018   0.951 -0.1543  0.1982 -0.2545
27768W        W43385   4.929  16.564  15.282  0.4013  0.2562 -0.0331
27769W        W43386   2.885   2.949  15.329  0.0603  0.0204 -0.1587
27770W        W43387   5.123  10.379   1.437 -0.0149  0.1657  0.1690
27771W        W43388   9.145  10.414  16.046 -0.2434 -0.1098  0.0551
27772W        W43389   9.317  15.986  13.448  0.1613 -0.0124 -0.0385
27773W        W43390   8.029  13.833  12.450 -0.1367  0.2204  0.0202
27774W        W43391   9.870   0.874  11.212 -0.3681 -0.0503  0.2616
27775W        W43392   9.162  17.073  15.590  0.2317 -0.0028 -0.2124
27776W        W43393  14.725  10.486  13.563 -0.2256 -0.0542  0.0587
27777W        W43394  15.003   9.382   3.861 -0.1671  0.2382  0.0863
27778W        W43395   4.099  12.939   5.963 -0.0433 -0.2868 -0.1339
27779W        W43396   8.488  11.012   1.059 -0.2320 -0.2405 -0.0818
27780W        W43397   4.630   6.021   3.259  0.0633  0.2137  0.1542
27781W        W43398   2.009  14.524  16.604 -0.1140 -0.1721  0.0936
27782W        W43399  11.383   9.221   0.496 -0.0604  0.0830  0.0464
27783W        W43400   4.660   0.290  12.999 -0.0646 -0.0320 -0.1457
27784W        W43401   9.141  12.777   1.527 -0.3982 -0.2193  0.0384
27785W        W43402  12.435   1.275  15.792  0.0390 -0.5666  0.5443
27786W        W43403  10.071  10.948  14.021  0.1892 -0.2123  0.3998
27787W        W43404  10.628  15.794   2.541  0.2336 -0.0476  0.0594
27788W        W43405  18.035   4.313  14.223 -0.1994  0.0037  0.1088
27789W        W43406  13.713   6.872  12.041 -0.1548  0.2961  0.0688
27790W        W43407   3.318   1.021   2.190  0.0852  0.0303  0.1785
27791W        W43408   8.598  17.767  15.166 -0.0769 -0.0627 -0.3106
27792W        W43409   3.742  12.184   0.508 -0.0872  0.2593 -0.2349
27793W        W43410  10.266  16.973   1.251 -0.0233  0.0289 -0.0068
27794W        W43411   4.609   2.490   5.309  0.0776 -0.2288 -0.1274
27795W        W43412   3.198  13.765   3.431 -0.2372 -0.0966  0.0472
27796W        W43413  16.249   0.799   4.608  0.1946  0.3835 -0.1452
27797W        W43414   4.504  16.221  13.144  0.0984 -0.1273  0.0661
27798W        W43415  18.015  16.574  13.553  0.1621 -0.0431  0.2993
27799W        W43416   9.313   4.629   0.114 -0.0873 -0.0334 -0.0121
27800W        W43417  13.175   4.540   4.068 -0.1939 -0.0170 -0.0581
27801W        W43418   7.818  15.122   1.206  0.0170 -0.1268  0.3813
27802W        W43419   0.719  16.733   2.156  0.3736  0.0778  0.0664
27803W        W43420  12.662   2.459   5.376  0.2972 -0.0310 -0.0512
27804W        W43421  14.188   4.557   2.645  0.0096  0.1417 -0.5040
27805W        W43422   8.524   2.609   5.048 -0.0327  0.4910 -0.3821
27806W        W43423  11.008  17.651  11.206 -0.0493 -0.1302  0.0344
27807W        W43424  15.036   0.397   4.696  0.1479 -0.2894  0.1125
27808W        W43425  12.839  15.181   0.096 -0.0197  0.2318  0.3688
27809W        W43426  17.600  17.593  14.870 -0.2403  0.3949  0.2766
27810W        W43427  15.215   0.108  14.124  0.4942 -0.0741 -0.3857
27811W        W43428  17.674  11.569   4.937 -0.1334 -0.2155 -0.0972
27812W        W43429   1.213  15.076  15.941  0.2107 -0.3650 -0.0313
27813W        W43430   8.693   3.085   1.626 -0.1219  0.2187 -0.1650
27814W        W43431  14.338  12.911   5.718 -0.0650  0.0559 -0.0137
27815W        W43432  10.917   6.354   3.898 -0.1694 -0.0882  0.0398
27816W        W43433  16.073  10.745   2.247 -0.2793  0.0067  0.0328
27817W        W43434   5.415   7.765  11.449 -0.0589 -0.1595  0.0274
27818W        W43435  15.140   2.742  15.526 -0.1990  0.1101  0.3367
27819W        W43436  12.570   6.259  12.754  0.0304 -0.1438 -0.0233
27820W        W43437   4.008  16.019  14.942 -0.1075  0.2978  0.1910
27821W        W43438   2.747  13.723   4.774 -0.2237  0.3431  0.1961
27822W        W43439   9.883  12.934  13.450 -0.3819 -0.0151 -0.0642
27823W        W43440   6.744   2.193   3.325 -0.1451  0.6707  0.2006
27824W        W43441   2.823   8.322  12.058 -0.1835 -0.2739  0.1462
27825W        W43442  11.815  14.505   0.615 -0.0893 -0.2018  0.4508
27826W        W43443  12.958   4.130   4.351  0.0584  0.0720 -0.0469
27827W        W43444   2.378   7.794  15.823 -0.1364  0.0648 -0.0154
27828W        W43445  15.976   8.111  11.664 -0.1423 -0.0511  0.1184
27829W        W43446   1.753   8.036   4.245 -0.1174 -0.2084 -0.1917
27830W        W43447  16.686   6.379  16.777 -0.0626  0.1028 -0.3198
27831W        W43448  15.534   7.701   0.242  0.1496 -0.0754  0.2083
27832W        W43449  14.062  13.459  12.984  0.0674  0.1689 -0.2832
27833W        W43450  16.637   9.551  11.921 -0.0697 -0.0065 -0.0712
27834W        W43451  13.239  15.724  12.807 -0.2787  0.0524 -0.2658
27835W        W43452   0.729   7.979   5.072  0.1718 -0.3646  0.1956
27836W        W43453   1.298  17.294   1.574  0.0944  0.0637  0.0761
27837W        W43454   9.945   5.981  13.620 -0.5564  0.0119  0.5974
27838W        W43455   0.809   6.297   2.179 -0.3096 -0.2101 -0.3334
27839W        W43456   6.818  17.872  11.741  0.2592 -0.4520 -0.0459
27840W        W43457   9.135  10.790  12.759  0.2667 -0.1160  0.1706
27841W        W43458   4.043   9.426   3.420  0.0810 -0.2883 -0.0670
27842W        W43459  10.819  15.300   5.115 -0.1953 -0.0499 -0.0592
27843W        W43460   0.582   7.029   3.248 -0.0365  0.2042 -0.0117
27844W        W43461   9.798   1.753   4.803 -0.1367 -0.1831  0.0768
27845W        W43462  14.172  16.303   1.822  0.0676  0.1362  0.1653
27846W        W43463   6.079  14.452  13.002 -0.1850  0.2369 -0.2197
27847W        W43464   5.788   4.953   2.343 -0.2223  0.1031  0.1630
27848W        W43465  12.926   3.057   1.998  0.0510 -0.1725 -0.2509
27849W        W43466  11.354   9.265   2.452 -0.0310 -0.0690 -0.4808
27850W        W43467   0.461  11.074  16.322 -0.0058 -0.1409 -0.0887
27851W        W43468   7.195  17.247   5.310 -0.1097 -0.0850 -0.3355
27852W        W43469  17.914  11.498   0.058 -0.0409  0.1999 -0.1798
27853W        W43470   9.147  11.801  16.111 -0.0252 -0.0105 -0.2595
27854W        W43471   0.620  11.738   0.735  0.3947  0.0655  0.1155
27855W        W43472   2.167  17.692  15.288  0.1847  0.2787  0.0787
27856W        W43473  12.788   3.289   1.173 -0.0687 -0.3204  0.1333
27857W        W43474  10.313  17.138  14.595 -0.2613  0.0657  0.0707
27858W        W43475  16.175   3.704   5.239  0.1474  0.0145  0.0424
27859W        W43476   4.636  13.782  12.732  0.0769 -0.0009 -0.2901
27860W        W43477   5.932   3.876   4.918 -0.0750  0.0194  0.0330
27861W        W43478  16.901  10.930  16.470  0.2217  0.0016  0.0379
27862W        W43479   8.753   1.148   0.923 -0.0838  0.0176 -0.0869
27863W        W43480   0.020  12.638  12.434  0.2020  0.1461  0.2022
27864W        W43481  17.123  14.465  16.143  0.1672 -0.1756  0.3121
27865W        W43482   7.654  15.805  15.960 -0.3796 -0.1183 -0.1909
27866W        W43483  16.515  12.945  13.068 -0.0035 -0.1279  0.0410
27867W        W43484   4.887  13.647   0.824 -0.0795 -0.0150  0.0639
27868W        W43485   7.754  14.242   0.775 -0.0988 -0.0366  0.2620
27869W        W43486   3.803   4.431  12.797  0.1333 -0.0147  0.2732
27870W        W43487  15.633   7.607  15.314  0.0810  0.1914 -0.1664
27871W        W43488  13.397  17.596   1.951 -0.0665 -0.1073 -0.0456
27872W        W43489   5.712   4.683   3.563 -0.1775 -0.2671 -0.0222
27873W        W43490  10.134   5.589   0.500  0.0878 -0.0159  0.3553
27874W        W43491   5.504   5.684  12.406 -0.1162  0.4399  0.0254
27875W        W43492   3.868   3.090  14.389 -0.1377  0.1681 -0.0860
27876W        W43493  10.079   4.103  13.420 -0.1598 -0.2744 -0.1414
27877W        W43494   9.964   0.794   2.414  0.2059 -0.2143 -0.1239
27878W        W43495   0.303   3.684   2.142 -0.0726 -0.1592  0.2707
27879W        W43496  15.923  16.230   0.527 -0.1486  0.3527 -0.1551
27880W        W43497  14.817   9.554  14.544  0.0177  0.2205 -0.1213
27881W        W43498  14.810  14.245  11.309  0.0522  0.0506  0.0582
27882W        W43499   8.259   4.290  16.471  0.1009 -0.0815  0.0374
27883W        W43500  12.573   0.074  14.297 -0.0513  0.1259  0.0132
27884W        W43501   0.439   4.514   0.436  0.0160 -0.0116 -0.0605
27885W        W43502   7.648  14.063  16.381 -0.0162  0.1415  0.0468
27886W        W43503   6.010   9.932   3.920 -0.0257 -0.2894  0.1511
27887W        W43504   7.249  12.896  12.956  0.0153 -0.3822 -0.4951
27888W        W43505  14.230  14.843  13.455  0.2142  0.2373 -0.2575
27889W        W43506  11.415  12.954   5.621  0.3668  0.0096  0.1478
27890W        W43507  15.444  14.975  12.376 -0.0461 -0.1708 -0.1046
27891W        W43508   4.800  14.866  14.863 -0.0245  0.0539  0.1668
27892W        W43509  13.542   1.533  14.019  0.0979  0.1856  0.2624
27893W        W43510  15.811   1.748   0.416  0.0235  0.0923  0.0565
27894W        W43511  15.165   5.848   1.336 -0.0786 -0.1142 -0.0381
27895W        W43512  13.494   7.298  16.177  0.0523 -0.0381 -0.0129
27896W        W43513  12.725   8.392  15.948  0.1651  0.0706 -0.2221
27897W        W43514  13.536  14.764  13.779  0.1921  0.4060  0.3737
27898W        W43515  14.311   6.792  16.690 -0.2044 -0.0005  0.3859
27899W        W43516   6.401   8.679   0.039  0.2106 -0.1802  0.1434
27900W        W43517  13.040  13.107   1.754 -0.1314 -0.1842 -0.1447
27901W        W43518  13.503   3.323  13.568  0.0772  0.0717 -0.1002
27902W        W43519   2.658   7.181   3.761 -0.0900 -0.0279 -0.1185
27903W        W43520   1.731   8.691   1.283  0.0735 -0.5625  0.1337
27904W        W43521   0.381  12.200  13.643 -0.0460 -0.0343 -0.1616
27905W        W43522  12.734  11.685  15.363  0.1258 -0.1151  0.1145
27906W        W43523   1.454  16.130   5.476 -0.0723 -0.0405  0.1643
27907W        W43524  13.325  15.218  13.792  0.2191 -0.0382 -0.1517
27908W        W43525   1.668  16.728  11.704 -0.0929  0.0146 -0.0852
27909W        W43526   8.390   8.009  12.704 -0.1920  0.2097  0.0296
27910W        W43527  11.921   3.082   5.063  0.0776 -0.1191 -0.0165
27911W        W43528  12.349  13.325  13.725  0.0912 -0.4134 -0.0749
27912W        W43529  17.263  17.890  12.173 -0.2723 -0.0546 -0.2425
27913W        W43530   1.817  15.446  13.633 -0.1518  0.0067 -0.1963
27914W        W43531   3.753  15.765  16.737 -0.0219 -0.0375 -0.0573
27915W        W43532   5.057  10.326  13.331 -0.1244  0.1331  0.2290
27916W        W43533   1.166  11.296   4.199 -0.1970  0.0453 -0.3674
27917W        W43534   7.819  16.738   3.048 -0.2011 -0.1926 -0.0846
27918W        W43535   9.624   9.884  15.291 -0.0501  0.1763  0.0732
27919W        W43536  16.173   7.409   6.697  0.0714 -0.2396  0.2292
27920W        W43537   9.914   3.695   3.947  0.0585  0.0905 -0.2078
27921W        W43538   0.956   0.889   2.681  0.0007 -0.0642  0.0651
27922W        W43539  17.767  11.581   2.697  0.1646 -0.3685  0.1526
27923W        W43540   4.046   9.175  12.132 -0.1017  0.3732  0.0360
27924W        W43541  10.391   2.081   2.228  0.3367 -0.0289 -0.2710
27925W        W43542   3.332  16.681  15.925 -0.1639 -0.2063  0.1838
27926W        W43543   7.942  15.488   0.569 -0.0391 -0.1290 -0.0558
27927W        W43544  14.578  14.771   0.082  0.3087 -0.0673  0.1441
27928W        W43545  10.571   4.158   4.541 -0.0265  0.2441  0.0691
27929W        W43546  17.648   7.322  12.905  0.1041 -0.0634 -0.1041
27930W        W43547   8.982   0.353   0.483  0.0506  0.1053  0.1409
27931W        W43548  17.995  15.526  15.154  0.0078  0.0579 -0.0768
27932W        W43549  15.666   8.507   6.046 -0.0829  0.2710  0.2698
27933W        W43550  17.115   6.098  12.444 -0.0337  0.1168 -0.2351
27934W        W43551   3.575   4.621  14.931 -0.1763  0.0402  0.2894
27935W        W43552   3.910  10.138   3.592 -0.0117 -0.3614 -0.0699
27936W        W43553  16.156   2.222  10.954 -0.1100  0.1753 -0.1266
27937W        W43554  12.715   7.701   6.028 -0.3097 -0.1359 -0.1891
27938W        W43555  14.889   3.794   2.416  0.0575 -0.1638  0.1451
27939W        W43556   9.359   5.035   4.205  0.0894  0.0022  0.1727
27940W        W43557   7.483   3.211  13.767  0.2955  0.1459 -0.2117
27941W        W43558   8.492  11.113  10.914 -0.2222  0.1685  0.2345
27942W        W43559   9.398   4.973  10.292 -0.3177 -0.1224 -0.1017
27943W        W43560   9.646  15.484  11.655 -0.1648  0.4373 -0.0122
27944W        W43561   2.732  17.514  14.569  0.0179  0.0709  0.0927
27945W        W43562   7.908   2.182   3.894  0.0641 -0.0593 -0.0647
27946W        W43563   8.204   1.362  14.107 -0.0438 -0.1177 -0.0976
27947W        W43564   1.810   2.359   0.618 -0.0705 -0.1851 -0.0352
27948W        W43565   1.162  15.528  15.791  0.3298  0.1380  0.0258
27949W        W43566   5.628   3.926  12.124 -0.3166 -0.4454 -0.2487
27950W        W43567   3.240  14.666   4.660 -0.1559 -0.0168  0.0757
27951W        W43568   3.517   7.499   0.381 -0.0495  0.2231 -0.3235
27952W        W43569  17.140   8.957  13.168 -0.0624 -0.0236 -0.2725
27953W        W43570   8.586  12.791   2.729 -0.1874  0.0960 -0.0747
27954W        W43571   1.851  14.564   1.793  0.0059 -0.0848  0.0370
27955W        W43572   9.463   5.412   1.579  0.3460  0.1208 -0.2465
27956W        W43573   2.663  17.534  15.564 -0.1004  0.0682  0.0877
27957W        W43574   8.562   0.682   0.501  0.0219  0.1643 -0.2185
27958W        W43575   1.453   4.650   5.103  0.3347  0.0890  0.2720
27959W        W43576   6.868  10.878   6.028  0.2141  0.0986 -0.1581
27960W        W43577   5.106  11.109  14.346  0.0647  0.2461 -0.1316
27961W        W43578  10.279   5.035   1.593 -0.0301  0.2161 -0.4356
27962W        W43579   7.385   3.880   0.976 -0.4424 -0.1971 -0.0751
27963W        W43580   0.046  16.069   4.075  0.1126 -0.2084 -0.0026
27964W        W43581  10.044  14.787  16.694 -0.2683 -0.0054 -0.0266
27965W        W43582   7.913  11.055  14.032 -0.0144 -0.3776  0.0310
27966W        W43583  14.134   2.016   0.120  0.1141 -0.0449 -0.0556
27967W        W43584   7.314   4.842   2.812 -0.2575 -0.4383 -0.0287
27968W        W43585   2.801   1.786   4.494 -0.0489  0.0945 -0.0193
27969W        W43586   7.619   9.053   2.193 -0.0995 -0.2499 -0.0277
27970W        W43587   9.145   8.605  15.235 -0.0043  0.2152  0.0246
27971W        W43588   2.489  13.113  15.451 -0.0830 -0.3773 -0.2470
27972W        W43589  17.109  13.591   5.141 -0.0368 -0.2875 -0.3320
27973W        W43590   0.167   4.903   4.567 -0.1279  0.0425 -0.1569
27974W        W43591   9.194   5.850   2.488  0.1200 -0.4020 -0.3800
27975W        W43592  17.371   7.553   1.001 -0.0320  0.2250 -0.1022
27976W        W43593   4.485  11.920   2.555 -0.0448 -0.0841 -0.2014
27977W        W43594  11.792  12.414  14.125  0.3093 -0.1521  0.0835
27978W        W43595   6.227   8.309   5.025 -0.1546  0.1335 -0.3220
27979W        W43596   1.729  12.103  15.733  0.3608  0.1086 -0.1201
27980W        W43597   1.638  16.620   0.659 -0.0020  0.2430 -0.2824
27981W        W43598   4.907   0.239   3.728 -0.1254 -0.1691  0.0567
27982W        W43599   4.212  13.851  13.040  0.0048 -0.4990  0.2684
27983W        W43600  16.778   9.085  15.288  0.4098 -0.0979  0.3065
27984W        W43601  17.872  17.377  14.504 -0.0489  0.0906 -0.1437
27985W        W43602   8.374   8.935   0.171  0.2994  0.0383  0.0620
27986W        W43603   6.524   4.747   2.297  0.1476  0.1950 -0.3571
27987W        W43604  15.756   4.086   4.874  0.0603 -0.2146  0.1026
27988W        W43605  16.126  14.667  16.017 -0.0060 -0.3568  0.1501
27989W        W43606   8.314   3.004  11.250  0.2502 -0.1286 -0.4402
27990W        W43607  16.417  13.789  14.718  0.2748  0.0680 -0.1562
27991W        W43608   8.548  10.683  14.878  0.1284 -0.0016 -0.0136
27992W        W43609  17.214  11.128   5.801  0.0948  0.3171 -0.0703
27993W        W43610   9.537   7.926  12.020  0.0286 -0.2711 -0.1193
27994W        W43611  16.653  11.580  11.776  0.0105  0.4455  0.1542
27995W        W43612   0.659  14.885  16.722  0.1891 -0.2908 -0.2369
27996W        W43613   6.887   2.427   1.549 -0.2137 -0.0023  0.1877
27997W        W43614   5.311  16.098  15.789 -0.1021 -0.2623 -0.1811
27998W        W43615   4.900   2.084  13.255 -0.2861  0.0934  0.1169
27999W        W43616  12.818   0.913  14.028  0.0236  0.0971  0.2983
28000W        W43617  11.451  15.268  13.462  0.0959  0.3264  0.0636
28001W        W43618  15.244  12.888  14.098 -0.0187  0.0148 -0.2530
28002W        W43619  12.091  16.405  12.932  0.1504 -0.0122  0.2673
28003W        W43620   7.380  12.888   4.442 -0.1088  0.1876 -0.1759
28004W        W43621   9.529  16.209  13.048 -0.1186 -0.1016  0.1287
28005W        W43622   0.747   1.294  12.374  0.1469  0.0106  0.1891
28006W        W43623   5.487  15.022   5.991 -0.3822 -0.1301  0.0287
28007W        W43624   1.928  13.359   5.517  0.3695  0.0166  0.1100
28008W        W43625   5.292  10.611   0.401  0.1022  0.0813  0.1169
28009W        W43626   7.716  13.479  16.145 -0.4259 -0.0091  0.0137
28010W        W43627  11.974  13.649  12.653 -0.0054 -0.0415  0.0520
28011W        W43628   0.427  15.881   2.689 -0.0961  0.0458 -0.2515
28012W        W43629   1.745   5.711   1.199  0.0157 -0.2008  0.0859
28013W        W43630  12.389   7.224  15.590  0.3212 -0.0915  0.0437
28014W        W43631   8.805  12.509  13.030  0.2309  0.0877 -0.3451
28015W        W43632  15.837   4.441  15.380 -0.0537  0.1846  0.0900
28016W        W43633  14.365  12.051   1.293 -0.1100 -0.2099  0.0415
28017W        W43634  17.804  13.140   3.270 -0.1429 -0.0842  0.1438
28018W        W43635   7.266  14.980  12.313  0.1126 -0.1955  0.0947
28019W        W43636   9.568   1.574   2.153  0.2213 -0.2804 -0.0571
28020W        W43637   6.155  13.249   1.150  0.1451  0.1324 -0.0565
28021W        W43638  11.214  13.696   4.429  0.2070 -0.4414  0.1584
28022W        W43639  14.071   7.967   5.116  0.4516 -0.2010  0.2704
28023W        W43640   5.266  15.532   0.070  0.0385 -0.0629 -0.0396
28024W        W43641   9.342  17.378  14.068  0.0377 -0.1367  0.5024
28025W        W43642  10.295   0.459   3.056  0.1720 -0.1642  0.2025
28026W        W43643  15.831   9.360  16.315  0.0019  0.2901  0.0889
28027W        W43644  12.068  10.833   4.154  0.0052  0.2400  0.1032
28028W        W43645   0.745   7.712   4.647 -0.4400 -0.2290  0.1533
28029W        W43646   8.279   7.577   0.152  0.0048 -0.5435  0.2870
28030W        W43647  18.002   9.584  15.007 -0.0086 -0.2854 -0.0465
28031W        W43648   4.809  12.733  13.702  0.0986 -0.2191 -0.4396
28032W        W43649  11.409   3.823  13.355 -0.4902  0.1928  0.1337
28033W        W43650  17.871  13.405  14.859 -0.0908 -0.1118  0.1131
28034W        W43651   8.986  17.558   1.517 -0.0753 -0.0758  0.0637
28035W        W43652   2.207   6.833   6.544  0.0504  0.1691  0.2412
28036W        W43653  11.673  10.822  15.681  0.2751  0.0446  0.0056
28037W        W43654   0.196   5.640   0.259  0.1081  0.0679  0.1654
28038W        W43655  15.485   2.554   1.640  0.1893 -0.0097 -0.3021
28039W        W43656  15.994  13.920  12.035 -0.0875 -0.2171  0.0819
28040W        W43657  15.676   9.358  15.415 -0.0000 -0.0019  0.0319
28041W        W43658  13.921   0.063   2.393 -0.0265  0.1944 -0.3314
28042W        W43659   8.408   8.260  13.561  0.0611 -0.1037 -0.0092
28043W        W43660   4.225  16.669  15.523  0.2407 -0.0141 -0.0995
28044W        W43661   3.247   1.092   5.050 -0.3516 -0.0799  0.0910
28045W        W43662  12.282   3.986  13.079 -0.0610  0.0767  0.3423
28046W        W43663  15.008   1.535  14.447 -0.0850 -0.2416 -0.0887
28047W        W43664  12.607   7.049   2.753  0.0550  0.0372  0.0934
28048W        W43665  17.897   0.548  16.492  0.1854 -0.3824  0.2940
28049W        W43666   5.080   5.796  12.192 -0.1995  0.2047  0.0387
28050W        W43667  12.755   4.599   0.645  0.2302 -0.0028  0.1702
28051W        W43668  11.547   8.420  14.833 -0.0391 -0.2386 -0.2839
28052W        W43669   5.779  14.170  11.181  0.2727  0.0506 -0.1546
28053W        W43670   6.108   6.446  16.623 -0.1356 -0.0739  0.2061
28054W        W43671   0.411  17.186  13.923 -0.2242 -0.2444  0.1325
28055W        W43672  10.633  11.394  15.085 -0.1829  0.0211  0.0228
28056W        W43673  15.440   7.020   3.822  0.2329 -0.2223 -0.0378
28057W        W43674   8.190  14.553   0.889  0.2171 -0.2502 -0.3733
28058W        W43675  14.215  10.938  10.704  0.2041  0.1270 -0.3095
28059W        W43676   3.189   6.629  13.809 -0.1077  0.2129 -0.2208
28060W        W43677   4.655  11.707  12.918  0.0492  0.0422  0.2443
28061W        W43678   3.602   5.027   3.094  0.4233  0.3207 -0.2389
28062W        W43679   5.390   7.230   3.265 -0.3072  0.0955 -0.2641
28063W        W43680   7.228   5.559  14.791  0.2076 -0.0094 -0.2296
28064W        W43681  13.645   6.669   3.598  0.0391 -0.0198  0.0238
28065W        W43682  17.203  10.669   3.308  0.0604  0.0019  0.1486
28066W        W43683   5.139   1.426   4.081  0.1130  0.1718 -0.2331
28067W        W43684   5.742  16.652  12.340  0.0306  0.4139  0.3981
28068W        W43685  12.660  15.286   3.980 -0.0393 -0.2396  0.2720
28069W        W43686   2.235  17.788   1.051 -0.1434 -0.1070 -0.0763
28070W        W43687   0.081  13.104   3.855  0.2365 -0.0814 -0.2886
28071W        W43688  12.944   0.782   1.000 -0.0430 -0.0638  0.0197
28072W        W43689  13.972   0.052  16.091  0.0632  0.1468 -0.0064
28073W        W43690  11.424  11.035  16.664  0.0725  0.1607  0.1361
28074W        W43691  16.651  12.804  15.923 -0.0858  0.0995  0.0295
28075W        W43692   1.794   3.169  14.034  0.3210 -0.2789 -0.2303
28076W        W43693   4.015  16.066   0.216 -0.1779  0.0561 -0.1493
28077W        W43694   9.641   0.075   2.593  0.2880  0.1016  0.0429
28078W        W43695  10.591   8.346  16.393 -0.1517 -0.0414 -0.2877
28079W        W43696   2.915  11.868  12.740 -0.0240 -0.1941  0.2704
28080W        W43697  13.030  11.653   2.301  0.2205 -0.2487 -0.1122
28081W        W43698   5.388   6.720  12.325  0.0636 -0.3315 -0.3405
28082W        W43699  16.300   0.893  14.152 -0.1589 -0.3978  0.0425
28083W        W43700   9.433   7.823  13.921  0.3741 -0.1431 -0.0880
28084W        W43701   4.061  16.945  14.907 -0.3393 -0.2887 -0.1572
28085W        W43702  10.354   4.391   2.741  0.0041 -0.1643 -0.4007
28086W        W43703   8.421   6.602   3.568 -0.0110 -0.2744 -0.2327
28087W        W43704   0.691   6.565   5.022 -0.0849 -0.0455  0.1802
28088W        W43705   9.755  14.806  16.289 -0.1197  0.3267 -0.1757
28089W        W43706   4.990   6.336   2.348  0.1320 -0.1897 -0.2124
28090W        W43707   9.211   7.080  15.172  0.2554 -0.4436  0.0946
28091W        W43708  16.007   5.961   6.303 -0.1013  0.1055 -0.0067
28092W        W43709  13.727   0.420  16.297  0.1270  0.0105 -0.0049
28093W        W43710  10.522  10.866   1.011  0.2766 -0.0272  0.0030
28094W        W43711   4.475  16.612  12.049  0.1562 -0.0327 -0.4126
28095W        W43712   2.412  10.834  14.775  0.1805 -0.0226  0.2528
28096W        W43713  16.846  15.661   4.899 -0.0207  0.1266  0.0680
28097W        W43714  16.935  13.452   5.759 -0.1245 -0.0541  0.3374
28098W        W43715   4.180   6.804   1.547  0.0944  0.0906  0.1121
28099W        W43716   6.220   8.204   4.530 -0.0227  0.4001 -0.1083
28100W        W43717   2.773   6.305   1.900  0.1208  0.2789 -0.1505
28101W        W43718   5.597   5.570  16.793 -0.0104 -0.1877  0.0082
28102W        W43719   2.440  14.587  12.373 -0.0924  0.1506 -0.0147
28103W        W43720   2.064   9.138   2.671  0.3407  0.2971 -0.1919
28104W        W43721   1.532  13.205  13.872 -0.2536  0.1402  0.0628
28105W        W43722   1.381  11.487   4.698 -0.0820 -0.2559  0.2182
28106W        W43723  15.714  13.880  16.090  0.0222  0.2633  0.1824
28107W        W43724   6.175  12.431  15.602 -0.1769 -0.1751 -0.2402
28108W        W43725  15.024  16.461  11.998  0.1053  0.1012  0.0936
28109W        W43726   6.981   9.256  16.451 -0.2351  0.0295  0.1454
28110W        W43727   4.704  17.855   3.566  0.0857 -0.0414 -0.1454
28111W        W43728  15.575   2.607   2.148 -0.1817 -0.0916 -0.1671
28112W        W43729   4.050   9.796   3.868  0.1435  0.3151 -0.0542
28113W        W43730   1.138  16.829   1.253 -0.0197 -0.0855  0.0799
28114W        W43731   3.728   3.704   3.428  0.2284 -0.0842 -0.0707
28115W        W43732   4.676  16.581  14.235 -0.3408  0.0841 -0.2967
28116W        W43733   4.763   7.198  15.177  0.1356  0.0628  0.2158
28117W        W43734  17.487   5.975   2.545 -0.1172  0.1843  0.0197
28118W        W43735  11.793   0.248   1.880 -0.1603 -0.0628  0.3050
28119W        W43736  11.592   4.835  13.537  0.0756  0.3665  0.2630
28120W        W43737   9.512  16.227  13.965  0.3171 -0.1310  0.0932
28121W        W43738  17.549  11.975  11.890  0.0104 -0.0112  0.2457
28122W        W43739   1.314   3.995  15.659 -0.1054 -0.2110  0.0276
28123W        W43740   1.412  15.558   3.595  0.0966  0.1721  0.1523
28124W        W43741   4.778   3.773   2.243 -0.4980 -0.3860  0.1554
28125W        W43742   6.532  12.456   4.101  0.0844  0.0519 -0.1936
28126W        W43743  14.338   4.499   5.216 -0.0926 -0.1289  0.1536
28127W        W43744   6.196   1.498  14.562 -0.0251 -0.0283 -0.2791
28128W        W43745  14.707   4.551  13.341  0.0520  0.2027  0.3103
28129W        W43746   6.257   7.818  15.357  0.1380 -0.0329 -0.3054
28130W        W43747  16.402  14.586   2.854  0.0376 -0.0431  0.0323
28131W        W43748  16.429  17.953   4.574 -0.1715  0.2575  0.1663
28132W        W43749   4.068   0.494  15.579  0.3147  0.0402 -0.2093
28133W        W43750  13.915  13.233   2.978 -0.0344 -0.1983  0.1423
28134W        W43751  12.426  15.215  12.173 -0.0008  0.0338 -0.1610
28135W        W43752  13.477  15.327   6.331  0.1164 -0.2989 -0.0253
28136W        W43753   2.167  11.156   5.297 -0.1701  0.2747 -0.0565
28137W        W43754  14.816  15.417  16.258 -0.1126  0.1409 -0.1063
28138W        W43755   6.149   1.199  11.999 -0.2832  0.0507 -0.0356
28139W        W43756  16.234   8.534   3.082  0.2490 -0.3269  0.2906
28140W        W43757  14.532  11.117   1.549 -0.5544 -0.3577  0.2206
28141W        W43758   4.965   2.897   0.189  0.2917  0.1289 -0.0298
28142W        W43759  11.200   1.951   5.112 -0.0765  0.2475  0.0712
28143W        W43760   3.442   9.148  13.827  0.2329  0.1610  0.2872
28144W        W43761   1.255   9.899  14.571  0.0093 -0.0900  0.0441
28145W        W43762   3.563   4.704   3.892 -0.0358  0.0035 -0.0829
28146W        W43763   0.807  13.592   3.015  0.0022 -0.0510 -0.2554
28147W        W43764  12.036   5.362   3.569  0.0070  0.0089 -0.1180
28148W        W43765   2.115  15.388   2.946  0.3126  0.0469  0.0083
28149W        W43766   2.359   1.107  12.154  0.1527 -0.1533  0.1839
28150W        W43767   8.956  17.623   5.405 -0.2643  0.0196 -0.3252
28151W        W43768  13.149  12.186   4.862 -0.0383 -0.1288  0.0098
28152W        W43769   4.458   6.399  10.946 -0.2200 -0.1723  0.1151
28153W        W43770   2.386   6.330   3.984 -0.1098  0.0803 -0.0180
28154W        W43771   6.666   0.417  15.617 -0.0021  0.0937 -0.1499
28155W        W43772  16.957   3.171  11.521 -0.2090  0.0091 -0.1800
28156W        W43773   0.599  13.012  15.347  0.1193 -0.0155 -0.1009
28157W        W43774  14.090  13.943  11.805 -0.1023 -0.2998 -0.4123
28158W        W43775   5.127  10.437   2.330  0.0166 -0.0441 -0.1242
28159W        W43776  11.287   7.235  15.721  0.3036  0.3702  0.1215
28160W        W43777  17.199  14.371   0.608  0.1650 -0.4342 -0.2949
28161W        W43778   1.785   3.912   5.792  0.0984 -0.0738 -0.4881
28162W        W43779   0.897   3.374   3.403  0.1409 -0.0718  0.0538
28163W        W43780  10.633   0.104  13.254  0.1769 -0.1114  0.0937
28164W        W43781  10.056  12.695   1.746 -0.3389 -0.1236 -0.1040
28165W        W43782   6.901  14.283   3.283  0.1517 -0.2785  0.0549
28166W        W43783  12.543  14.216  11.765  0.4658 -0.0474 -0.2031
28167W        W43784   9.824  12.507   3.666  0.1197 -0.3868 -0.0429
28168W        W43785  11.293  14.148   5.412 -0.2054  0.2022 -0.1307
28169W        W43786   1.106   8.118  15.761 -0.0275  0.0515  0.2718
28170W        W43787  10.045   1.150   3.689 -0.0061 -0.2761  0.4151
28171W        W43788  12.260   7.046   5.495  0.1060  0.0925 -0.0078
28172W        W43789  14.846   8.791  15.203  0.1805 -0.0877 -0.4538
28173W        W43790   4.171  17.732   0.996 -0.4625  0.2654 -0.0100
28174W        W43791  13.261   4.822   0.327  0.1448  0.3154 -0.1571
28175W        W43792  16.429   2.377  12.069  0.1175 -0.0228 -0.5854
28176W        W43793   8.241   1.738   3.846  0.3324 -0.2734 -0.3027
28177W        W43794  16.724  16.872  12.731  0.1764 -0.3871  0.2547
28178W        W43795  10.342   0.321   1.862  0.2353  0.1329  0.2161
28179W        W43796  14.033  13.702  16.307  0.2615 -0.0774  0.0688
28180W        W43797   6.689  16.500   4.270  0.1310  0.1513 -0.0063
28181W        W43798  10.214  16.636   2.997 -0.2578 -0.0723  0.2019
28182W        W43799  15.875  16.664   5.564 -0.0671 -0.1616  0.0565
28183W        W43800  10.259   7.774   4.141 -0.0977  0.1619  0.3543
28184W        W43801  16.018   6.368   4.867 -0.1056  0.3099  0.0024
28185W        W43802   5.294   2.575   2.823  0.4119 -0.1615  0.1821
28186W        W43803  11.932  11.152  14.830 -0.0633  0.2330  0.0540
28187W        W43804  17.636   9.005  16.646 -0.1168  0.0971  0.2286
28188W        W43805   8.366   0.433  11.555  0.0974  0.1317 -0.3441
28189W        W43806   3.396  12.835  15.916  0.1557  0.0550 -0.0409
28190W        W43807  16.463  11.806   3.110  0.2037 -0.1370  0.1816
28191W        W43808   5.319   5.483   4.971  0.0144  0.1129  0.2018
28192W        W43809  15.713   4.265   3.897  0.2199  0.4368 -0.2666
28193W        W43810  14.628   4.312  15.603  0.2299  0.2820  0.2157
28194W        W43811   2.669  15.779   5.277  0.2042  0.0378  0.0881
28195W        W43812   6.109   9.969  11.650  0.0551 -0.0421  0.1765
28196W        W43813   3.563  14.495   1.667  0.3060 -0.2532  0.0525
28197W        W43814   2.029   8.133  15.796  0.0949 -0.1002 -0.2471
28198W        W43815  15.147  13.690  14.844  0.1307 -0.1504 -0.0111
28199W        W43816  13.784  12.421  13.950  0.2096  0.3273  0.1913
28200W        W43817  12.507  17.220  14.632 -0.0458  0.0596 -0.0944
28201W        W43818   0.629   2.173   5.085  0.0930 -0.1116  0.0766
28202W        W43819   7.002  14.773   4.088  0.2177 -0.0947  0.1003
28203W        W43820   7.267  13.650  14.209  0.0955 -0.1162 -0.5062
28204W        W43821  15.772   2.123   1.609  0.0993  0.1619  0.1714
28205W        W43822   3.351   5.820   4.879 -0.1372  0.0641 -0.1183
28206W        W43823  17.091  12.336  12.751  0.0666 -0.1344 -0.2181
28207W        W43824  13.059  16.856   3.535 -0.2231 -0.0489 -0.0055
28208W        W43825   0.745  10.367  11.586  0.1022  0.0868 -0.0401
28209W        W43826  17.287   0.757   3.852  0.0895  0.2474 -0.0201
28210W        W43827   1.469  11.983  16.119  0.0276  0.3196  0.0370
28211W        W43828  15.986  10.223  15.088 -0.1425 -0.0473 -0.2781
28212W        W43829  14.254  17.015  14.572  0.2976  0.2122  0.1257
28213W        W43830  12.437   6.093   4.095 -0.0752  0.0326 -0.3709
28214W        W43831  15.881   0.970   3.763 -0.2412 -0.0179 -0.1875
28215W        W43832   8.903   8.109  12.768  0.1157 -0.0832  0.3871
28216W        W43833   9.624   3.467   5.588 -0.3050  0.0379  0.3947
28217W        W43834  10.291   5.285  15.359 -0.1490  0.2833  0.2478
28218W        W43835  11.368   3.101  15.337  0.0353 -0.1432  0.1339
28219W        W43836  14.595   7.824  12.249 -0.1345 -0.1448  0.1462
28220W        W43837  10.181   4.773   4.116 -0.1209  0.0164 -0.2781
28221W        W43838   2.537  17.276   4.951 -0.0823 -0.0549 -0.2854
28222W        W43839  14.231   2.287   2.930 -0.0794 -0.1696  0.1417
28223W        W43840  13.872   3.246   3.259 -0.4936  0.0626 -0.0957
28224W        W43841  13.225  10.680   1.385  0.0251  0.2186 -0.0168
28225W        W43842  11.243   4.044   0.601  0.1798 -0.0299  0.1024
28226W        W43843  16.782   6.364  12.672  0.1677 -0.1163 -0.1917
28227W        W43844   4.524  10.298   0.519 -0.1242  0.4268  0.3389
28228W        W43845  15.634   9.428  13.953 -0.1470  0.2835  0.1705
28229W        W43846   7.228   9.532  15.265  0.0190 -0.1022 -0.0167
28230W        W43847   6.271  14.403   4.354 -0.3971  0.2106 -0.0546
28231W        W43848   1.364   1.151   4.698 -0.1981  0.4010  0.1564
28232W        W43849   4.006   5.518  15.160  0.1389  0.0847 -0.0289
28233W        W43850   4.463  17.968   4.862 -0.2713  0.0484  0.1334
28234W        W43851   3.741  17.714  14.027 -0.0812  0.2536 -0.1039
28235W        W43852  12.313   1.661  12.493 -0.1139 -0.1026  0.3502
28236W        W43853  17.074  10.860  12.065  0.1063  0.0348  0.1710
28237W        W43854   6.043   3.042   2.712  0.0797  0.0602 -0.3889
28238W        W43855   6.500   8.941  16.370  0.0757  0.2773  0.0269
28239W        W43856   5.672  15.078   0.671 -0.0149  0.4641  0.2119
28240W        W43857   5.134   9.385   4.530 -0.2502 -0.0525  0.0207
28241W        W43858  10.537   8.637   3.785  0.0876 -0.2657 -0.1945
28242W        W43859  12.625  11.082   0.970  0.1845 -0.0002 -0.0171
28243W        W43860   3.394   1.946   0.944 -0.0843 -0.3025 -0.5646
28244W        W43861   7.266  16.660   4.880 -0.1123  0.0018  0.0370
28245W        W43862   0.132   2.899   0.409  0.1459  0.1525  0.1709
28246W        W43863  10.137   6.842  14.752 -0.2644  0.2399  0.0886
28247W        W43864  10.295  14.704  13.840  0.2350  0.0776  0.0367
28248W        W43865   2.785   7.133  14.931 -0.0403 -0.2252 -0.1876
28249W        W43866  15.942   7.704   4.315 -0.1992  0.0679  0.1372
28250W        W43867   4.359   7.600   6.139 -0.2299  0.2672 -0.0189
28251W        W43868  10.437  11.495   4.239 -0.1712 -0.1343  0.1426
28252W        W43869   1.565  10.682   2.120  0.3025 -0.1418 -0.1705
28253W        W43870  10.484  14.460  16.586 -0.1762  0.0529  0.0453
28254W        W43871   8.922   4.095   3.199 -0.0799 -0.0372 -0.2808
28255W        W43872  13.521  12.731  12.844 -0.0997  0.0913 -0.4474
28256W        W43873   5.029  16.058  15.329 -0.2445  0.1860 -0.1964
28257W        W43874   5.855   3.762   3.583 -0.0189  0.3079  0.3196
28258W        W43875  17.665  14.460   4.565  0.2882  0.2263 -0.0128
28259W        W43876  15.645   3.245   5.263 -0.2322 -0.0241 -0.0083
28260W        W43877  14.617   3.919  15.227  0.0867 -0.1282 -0.2532
28261W        W43878   9.065  11.718  14.246  0.0564 -0.0607  0.2253
28262W        W43879  10.751   6.945  12.555  0.1860  0.0762  0.0512
28263W        W43880   4.357   0.934  14.645  0.0060  0.2039  0.0433
28264W        W43881   2.474  15.970   5.756 -0.1472 -0.0350  0.1753
28265W        W43882   6.981  13.023  16.468 -0.0426  0.1302  0.1669
28266W        W43883  13.607   8.869  12.827 -0.1290  0.1492  0.2940
28267W        W43884  12.085   8.977  14.428  0.0377  0.0474  0.0933
28268W        W43885   6.336  10.183  14.017  0.0059  0.0647 -0.1914
28269W        W43886   7.277   2.788   2.926  0.0914  0.1421 -0.2775
28270W        W43887   5.509  15.179  14.045 -0.2154 -0.0207 -0.1365
28271W        W43888  13.518   0.240   2.132 -0.4273  0.0493  0.2681
28272W        W43889  13.443   9.503  16.221 -0.0694 -0.0556  0.3867
28273W        W43890   6.664  10.767   0.749  0.2494  0.0643 -0.5329
28274W        W43891   5.488  17.952   4.155  0.1441 -0.2057  0.1866
28275W        W43892   9.815   8.395   1.440 -0.2785  0.0857 -0.0625
28276W        W43893  15.228  17.185   2.673  0.0950 -0.2328 -0.1693
28277W        W43894  13.470  16.574   3.374  0.1455 -0.0274  0.1438
28278W        W43895  10.106  13.589  12.851  0.0290  0.0789  0.1413
28279W        W43896   9.326   5.309   2.504  0.0870  0.0723  0.4775
28280W        W43897   9.665   3.106  13.943  0.1414  0.1015  0.0723
28281W        W43898   2.649   4.115  16.325 -0.0893 -0.2629  0.0823
28282W        W43899   9.540   8.969   0.302 -0.1673  0.2145 -0.0953
28283W        W43900   6.041   7.679  16.109 -0.1099  0.1029 -0.1044
28284W        W43901   9.522  16.814   3.435 -0.0579 -0.0539  0.5694
28285W        W43902  17.816  13.803  11.914 -0.3379  0.0546 -0.2473
28286W        W43903   4.400   4.277  16.418 -0.2617  0.1549 -0.1606
28287W        W43904  16.179  13.381  12.862 -0.1665 -0.0628  0.0561
28288W        W43905  13.213  14.850  14.197  0.0029 -0.2163 -0.3460
28289W        W43906  11.520   8.268   0.860  0.1517 -0.1857  0.2099
28290W        W43907  16.182   4.261  15.012 -0.4134 -0.1626 -0.1801
28291W        W43908   8.948   2.695  15.695 -0.0721  0.3842 -0.0665
28292W        W43909  15.827   4.929  13.917  0.1807  0.0914  0.0692
28293W        W43910   5.139  11.685  16.725  0.2562  0.1513 -0.0191
28294W        W43911  15.918   6.322  13.365  0.1822  0.3424  0.1379
28295W        W43912  10.396  10.603  14.398  0.0475  0.2457  0.1670
28296W        W43913   6.788   5.047   2.637 -0.0255  0.0087 -0.0113
28297W        W43914   6.385  11.639  16.572 -0.1470  0.2692  0.2401
28298W        W43915   3.568  10.029  15.718 -0.0723 -0.0561  0.0877
28299W        W43916  16.235   9.995   1.625 -0.2821  0.2247  0.1181
28300W        W43917  13.256  17.599  13.049  0.1655  0.1027  0.0285
28301W        W43918   8.324   3.474   6.217  0.0487  0.1090  0.0230
28302W        W43919  12.723  18.048   2.674  0.1961  0.1015  0.2854
28303W        W43920   7.496   9.480   5.019 -0.0181 -0.4014  0.0898
28304W        W43921   1.482   1.670   5.544  0.2345  0.2361 -0.4392
28305W        W43922  13.504   9.586   3.688 -0.0653  0.0162 -0.0727
28306W        W43923   1.421   7.044   5.195 -0.1246  0.1591 -0.1845
28307W        W43924  11.826   3.233   2.432 -0.1649  0.1513 -0.0064
28308W        W43925  12.704   9.310   3.072 -0.2830  0.0917 -0.0834
28309W        W43926   7.708  16.003   6.390 -0.0303 -0.0367 -0.0225
28310W        W43927   6.380  15.709   2.261 -0.1074  0.0871 -0.3052
28311W        W43928   6.509   1.664  13.560  0.2250  0.0893 -0.4246
28312W        W43929   6.031   8.546  16.404  0.2397  0.0097  0.2254
28313W        W43930   8.300   4.890  15.154  0.1866  0.2750 -0.3982
28314W        W43931   6.282   5.772  13.640 -0.3744  0.1078  0.0626
28315W        W43932  17.404   8.187  16.642  0.0679 -0.0170  0.0378
28316W        W43933  14.185  13.936  15.826 -0.0965  0.3353  0.0592
28317W        W43934  14.153   9.220   2.852 -0.1341  0.0078  0.0995
28318W        W43935   6.545   8.415   4.028  0.1016 -0.0487 -0.1083
28319W        W43936  13.202   9.950  14.355 -0.0103 -0.4164  0.1221
28320W        W43937  11.373  13.902   0.080  0.1389 -0.2418 -0.1640
28321W        W43938  13.639   8.468  12.039 -0.1775  0.0178  0.1092
28322W        W43939   8.255   8.040  15.463 -0.0856  0.1095  0.3534
28323W        W43940  12.744  14.638  15.568 -0.1138 -0.1681 -0.1298
28324W        W43941  17.277   7.787   4.015  0.1453  0.1915  0.2736
28325W        W43942  13.476   6.025  13.416  0.1239 -0.0673 -0.0170
28326W        W43943  13.297  12.875  13.352 -0.0810  0.0456 -0.2543
28327W        W43944  13.070   7.397  15.419 -0.2341 -0.1241 -0.3189
28328W        W43945  12.666  11.387   0.172 -0.0546 -0.0005 -0.0482
28329W        W43946   7.466  15.014   0.272  0.1753  0.3446  0.1541
28330W        W43947   9.585  14.200  15.127  0.0998  0.0578  0.0352
28331W        W43948   6.481   9.411  13.770  0.0152 -0.1988  0.2115
28332W        W43949  10.284  12.872   0.628  0.0295 -0.0666 -0.4083
28333W        W43950  15.029  12.645  12.504  0.0315 -0.0487 -0.3914
28334W        W43951  13.969   1.051   1.037 -0.0921  0.1407  0.0268
28335W        W43952   3.869  16.760  15.858 -0.1979 -0.1394  0.1001
28336W        W43953   0.745  14.119  12.704  0.0670 -0.0586 -0.0104
28337W        W43954   5.972  15.588   1.278 -0.1700 -0.1254 -0.0905
28338W        W43955   2.784  11.183  13.967  0.3855  0.2011  0.0464
28339W        W43956  17.970   0.403   1.117  0.0287  0.0617  0.0538
28340W        W43957   3.625   2.634  13.647  0.2136  0.1301  0.2589
28341W        W43958  11.361   3.531   0.609 -0.3657  0.0272 -0.3921
28342W        W43959   0.503  10.421  14.647 -0.3702 -0.1437 -0.0426
28343W        W43960   9.324  10.925   0.436 -0.0129 -0.3104  0.0260
28344W        W43961   1.848   4.801   5.284  0.0414 -0.2754 -0.0438
28345W        W43962  11.409  16.006  14.586 -0.0658 -0.1193  0.1445
28346W        W43963   1.644  17.555  14.998 -0.3497  0.2679 -0.0923
28347W        W43964  11.916   1.495  14.643  0.0185 -0.0764  0.2479
28348W        W43965  10.776  10.004  14.250  0.0675 -0.0282 -0.1839
28349W        W43966  17.271   8.951  12.320 -0.1304 -0.2795  0.1190
28350W        W43967  10.969  11.397  11.929  0.2269  0.1027 -0.3058
28351W        W43968  12.937   6.934   0.534 -0.2500  0.2377  0.1810
28352W        W43969  12.886   2.630   2.221 -0.3545  0.0120  0.3360
28353W        W43970  13.566  15.673   1.557  0.0287  0.0954 -0.0357
28354W        W43971   6.949  14.779  12.812  0.0321 -0.2289  0.0620
28355W        W43972   5.325  17.270   1.668 -0.0183  0.1821 -0.2923
28356W        W43973   9.766   8.214   2.275 -0.2440 -0.0957 -0.0997
28357W        W43974  10.712   3.518   1.846  0.2133  0.0087  0.2488
28358W        W43975   2.974   6.606   3.508 -0.1402  0.2907 -0.0777
28359W        W43976   1.468  11.113  15.860  0.0610 -0.1506 -0.1071
28360W        W43977   7.003  14.676   5.863  0.1230 -0.0976  0.2192
28361W        W43978   2.423   7.403  12.302  0.0576 -0.1503  0.2677
28362W        W43979  10.905  11.436  12.753 -0.0973 -0.0839  0.2843
28363W        W43980  15.134  15.869  12.963 -0.1524  0.2576  0.0134
28364W        W43981   5.870  15.493   2.174  0.2490  0.0078  0.1227
28365W        W43982   4.067   9.974  15.884  0.1178  0.3350  0.3021
28366W        W43983  15.281   1.282   4.609 -0.1710  0.0140  0.1146
28367W        W43984   3.982   0.639  10.842 -0.0203 -0.1698  0.2333
28368W        W43985   9.721   7.880   5.859 -0.2804 -0.0004  0.1423
28369W        W43986   3.183   4.856   2.006  0.0450 -0.1245 -0.0440
28370W        W43987  15.178  16.106   2.815  0.1660  0.1314  0.0668
28371W        W43988   8.256   3.420  14.853 -0.3055  0.1300 -0.0320
28372W        W43989   5.085  11.478  15.559  0.1587 -0.1454 -0.0101
28373W        W43990   3.241  14.905   4.171 -0.0510  0.0335 -0.0224
28374W        W43991  17.832   4.988  11.047  0.1451  0.0983  0.0284
28375W        W43992   5.804  15.524   0.054 -0.0101  0.2485 -0.1251
28376W        W43993  16.384   8.891  14.171 -0.1469  0.2862 -0.1273
28377W        W43994  15.996   6.038   4.442 -0.0811  0.1086 -0.2542
28378W        W43995  15.619  15.151   2.904 -0.1500  0.4004 -0.0038
28379W        W43996   2.022  15.409  11.684  0.1586  0.1818  0.3983
28380W        W43997   6.403   2.307   6.532  0.2890 -0.3503  0.1194
28381W        W43998   0.253   4.345   1.306 -0.0337  0.2225 -0.0011
28382W        W43999   8.366  13.516   1.204  0.0297 -0.2455 -0.1008
28383W        W44000  17.387  15.165   3.447 -0.2461 -0.1739  0.0435
28384W        W44001   9.044  15.352  12.922  0.2353 -0.0224 -0.2256
28385W        W44002  17.626   3.056  16.780 -0.2260  0.2624 -0.0629
28386W        W44003  14.243   8.733  12.870  0.0633  0.2742 -0.0014
28387W        W44004   7.968  10.256   4.735 -0.3464 -0.1828  0.0247
28388W        W44005   1.752   8.874   0.491  0.4307  0.0334  0.0778
28389W        W44006   7.268  10.585  16.744 -0.0351 -0.0454 -0.0100
28390W        W44007  15.498   2.395  15.244 -0.1345  0.0069 -0.0248
28391W        W44008  16.954  14.804   5.612  0.0355  0.0991  0.0277
28392W        W44009   0.797   6.568  11.511 -0.0692 -0.3174  0.4521
28393W        W44010   6.852  13.458   0.071  0.1086 -0.0124  0.0882
28394W        W44011  14.456   6.428   3.260 -0.1988 -0.1872 -0.0208
28395W        W44012  15.377  11.012  11.575 -0.2227  0.0550  0.1389
28396W        W44013  15.049   4.688  12.235  0.0092  0.1408  0.0139
28397W        W44014  10.062  10.577   4.501 -0.0974  0.1431 -0.2429
28398W        W44015  10.672  11.027  12.851  0.2260 -0.0431  0.0359
28399W        W44016   0.400  11.739  12.833 -0.0627 -0.2828 -0.1322
28400W        W44017   9.317   4.956  11.169 -0.0184  0.5302 -0.1755
28401W        W44018   9.219  15.598  14.806 -0.4423 -0.1106  0.0246
28402W        W44019   2.117   0.691  11.491  0.1843 -0.0134  0.2166
28403W        W44020   9.772  15.430  13.169  0.0033  0.0126  0.2179
28404W        W44021   2.042   8.703   3.485  0.1493 -0.0819  0.1671
28405W        W44022  13.488  12.254  12.628  0.2643 -0.0953  0.2760
28406W        W44023  13.771   9.999  11.352 -0.1141 -0.0144  0.0246
28407W        W44024   8.474   6.776   1.710 -0.1855 -0.0086 -0.0969
28408W        W44025   7.734  14.320  14.988  0.2484  0.1524  0.1429
28409W        W44026   9.961  10.140   1.475  0.0111  0.0357 -0.1632
28410W        W44027   8.793   3.371  14.995 -0.0074  0.0990  0.0043
28411W        W44028  14.457  13.559  13.834 -0.0043 -0.0825 -0.2057
28412W        W44029   8.081   3.476   5.167  0.0387 -0.1576  0.3085
28413W        W44030  12.863   7.968   3.638  0.0013 -0.1797 -0.1144
28414W        W44031  17.422   9.537  11.375 -0.1233 -0.1418  0.3999
28415W        W44032   8.655  13.959   1.896 -0.0055  0.1988  0.1106
28416W        W44033  15.601   8.675   2.370 -0.1790 -0.1736  0.2118
28417W        W44034   8.530   4.172   0.619  0.0428  0.1064  0.4771
28418W        W44035   9.523  12.882   3.584 -0.1125  0.0130 -0.1291
28419W        W44036   2.703  17.339  13.551 -0.1104  0.0148 -0.0521
28420W        W44037   4.622  13.106   5.485 -0.1689 -0.1092  0.0168
28421W        W44038   1.844   4.341  16.500  0.2096  0.1143 -0.0406
28422W        W44039  17.562   8.683   3.638  0.1737  0.3571 -0.2730
28423W        W44040  12.316   4.896   2.093 -0.2239 -0.0505  0.0465
28424W        W44041  11.066  16.105  14.167  0.1666 -0.0933 -0.0169
28425W        W44042   7.041  17.243   4.488  0.0866 -0.2044  0.2887
28426W        W44043  14.573  16.758  15.739 -0.2113  0.5022  0.2952
28427W        W44044   8.552   7.356   3.685 -0.0217 -0.1743  0.1050
28428W        W44045  10.349  16.288  15.072 -0.0746  0.1198 -0.0474
28429W        W44046   8.202   1.209  11.944 -0.0937  0.1979 -0.0471
28430W        W44047  13.162  15.398  14.292  0.0153 -0.0326 -0.2463
28431W        W44048  16.736  14.189   0.736  0.0159  0.0007  0.1969
28432W        W44049  17.234  10.969  13.362  0.3146 -0.3216 -0.3826
28433W        W44050   5.217   6.011  14.279  0.0178 -0.0446 -0.0268
28434W        W44051  12.579   0.491  16.270 -0.1360 -0.5926 -0.0528
28435W        W44052  13.883   6.123  13.157  0.1112  0.2877 -0.0052
28436W        W44053  16.786  13.944  12.856 -0.0068 -0.0404 -0.0113
28437W        W44054   2.524   6.503   1.355 -0.3303  0.1596  0.1817
28438W        W44055  13.680   4.672  13.542  0.1560  0.2328 -0.1479
28439W        W44056   8.463   1.152  15.483  0.0103  0.2788  0.1770
28440W        W44057   5.140   0.467   2.254 -0.1913 -0.0737  0.1882
28441W        W44058  15.960   9.290  11.721 -0.2892 -0.4168 -0.2707
28442W        W44059   8.046   1.165  15.249  0.2390 -0.1751 -0.0153
28443W        W44060  14.799   7.929  15.201  0.0619 -0.0159 -0.0621
28444W        W44061  14.934  16.838   3.414  0.1629 -0.3014  0.0510
28445W        W44062  16.861  13.740  16.727  0.1506 -0.0751  0.3464
28446W        W44063   8.648   5.699  14.666 -0.3153  0.3556  0.0017
28447W        W44064  12.026   9.667  16.281  0.1572 -0.4837 -0.1246
28448W        W44065   7.054  13.406  13.180  0.0651  0.2352 -0.2066
28449W        W44066   1.304  17.445   1.019 -0.0497 -0.2488  0.0781
28450W        W44067   4.419   3.718   5.229 -0.1142  0.0038 -0.0864
28451W        W44068   7.173   4.546   3.558  0.1280  0.0305  0.0827
28452W        W44069  11.612  11.693   2.827 -0.0444  0.1244 -0.2464
28453W        W44070   6.484  12.142  13.138  0.0849 -0.2464 -0.1026
28454W        W44071  10.068  14.346   0.068  0.2477  0.0078  0.0662
28455W        W44072   1.379   4.899   4.630 -0.0954  0.3634 -0.1829
28456W        W44073   4.562  17.796   0.597  0.0076 -0.2782 -0.0460
28457W        W44074   6.896  10.397  11.608  0.0427  0.0045  0.2479
28458W        W44075  12.561  10.250  12.687 -0.2504  0.0264  0.1692
28459W        W44076   6.737  10.068   2.678 -0.3153 -0.2079 -0.0682
28460W        W44077  15.978   4.547  16.783  0.0755  0.0755 -0.0238
28461W        W44078   0.023   4.586   2.105  0.0334  0.2297 -0.4377
28462W        W44079  17.169  12.060  15.817 -0.0275  0.1306  0.1449
28463W        W44080   3.299  16.103  11.787  0.6222  0.2037  0.0857
28464W        W44081   0.821  16.893  15.678 -0.1322  0.2205  0.0165
28465W        W44082  14.382  16.223   1.278  0.0100  0.1797  0.1217
28466W        W44083   8.826   1.403  12.543  0.4225 -0.0140 -0.1710
28467W        W44084   7.619  11.443  15.984 -0.1024  0.1275  0.1890
28468W        W44085   4.099  14.355  11.621 -0.1481  0.1878 -0.0663
28469W        W44086  13.195   5.760  15.369  0.3542 -0.1901 -0.2763
28470W        W44087   9.931   5.237  12.699  0.3746  0.5149 -0.2322
28471W        W44088  12.532   8.559   0.990 -0.0072 -0.1555 -0.1929
28472W        W44089  13.481   7.795   4.359 -0.0433  0.1758 -0.0741
28473W        W44090  16.659  15.831  16.673 -0.0631 -0.1499 -0.0645
28474W        W44091   4.260   2.796  12.443 -0.0793  0.1265  0.0497
28475W        W44092   3.415   1.848  14.252 -0.2240  0.3200  0.1905
28476W        W44093  16.471   5.384   3.674  0.1264 -0.1255 -0.3592
28477W        W44094   1.954   1.048  12.427  0.0960 -0.1334  0.0753
28478W        W44095   5.755   8.309   3.689  0.0916  0.0633 -0.4446
28479W        W44096  15.616   9.101   2.899 -0.0878 -0.1168  0.1343
28480W        W44097   3.543   0.808   4.581 -0.2159  0.0641  0.0446
28481W        W44098   1.711  17.479   5.468  0.2743  0.0299 -0.0208
28482W        W44099  11.590  15.918  14.050  0.2929  0.2227  0.0714
28483W        W44100  10.670  10.036  13.337 -0.1397 -0.0812  0.3014
28484W        W44101   0.837  12.672  15.038 -0.0256 -0.0978  0.1350
28485W        W44102  15.228   8.119   1.597  0.4512 -0.3698  0.0032
28486W        W44103   2.079   5.640  15.132  0.3157  0.1590 -0.0081
28487W        W44104   1.753  10.169  15.696  0.2573  0.2000  0.2327
28488W        W44105  11.499  17.033  11.587 -0.0027  0.0711  0.0909
28489W        W44106   7.497   2.587   4.763 -0.1102  0.0628  0.2746
28490W        W44107  18.010  14.288  15.438  0.1914 -0.1757  0.2113
28491W        W44108   2.155   9.471   0.062 -0.4253  0.0912 -0.0305
28492W        W44109   5.281   2.515  15.391  0.0990  0.0185 -0.1339
28493W        W44110  14.915   6.970  14.059 -0.0592  0.1038  0.1152
28494W        W44111   1.427  16.936  15.564  0.0530 -0.2503 -0.0213
28495W        W44112  13.956   9.911  14.831  0.0756  0.2378 -0.1522
28496W        W44113  15.866  16.683  14.631 -0.0972  0.2098 -0.0825
28497W        W44114   0.440  16.832  13.458  0.4316 -0.1024 -0.5033
28498W        W44115  13.112  12.424  12.961  0.0323 -0.1043  0.1468
28499W        W44116  17.802  13.398   4.602 -0.1086  0.5285  0.1959
28500W        W44117   2.476  13.012  16.380 -0.0425  0.2927  0.0374
28501W        W44118   9.840  15.527   4.725 -0.1191 -0.3583 -0.1169
28502W        W44119   9.083   2.531  13.867 -0.0311  0.1995  0.0129
28503W        W44120   9.599   4.254  12.192  0.2189 -0.1361 -0.0402
28504W        W44121   4.846  15.085   4.391  0.1745 -0.2710 -0.0330
28505W        W44122   7.449   0.070  13.617  0.1014  0.0193 -0.0023
28506W        W44123   4.739  13.073  12.035  0.1089 -0.0012 -0.2524
28507W        W44124   9.445   2.864  11.723  0.0155  0.0960  0.2060
28508W        W44125   1.118  14.130   3.057  0.2383  0.0028  0.0955
28509W        W44126  11.281   0.491  14.535 -0.2027 -0.1921  0.0094
28510W        W44127   2.275   9.136  13.825 -0.1582  0.2777  0.1927
28511W        W44128   8.205  11.910  12.084  0.1396 -0.4240 -0.1341
28512W        W44129   1.907  16.691   4.988  0.1204  0.1589  0.1080
28513W        W44130   1.306   4.749  12.415 -0.1857 -0.4703  0.0226
28514W        W44131   4.672   5.197   0.094  0.1134 -0.0179  0.1065
28515W        W44132  11.369  11.941   4.557  0.0177 -0.0418 -0.4383
28516W        W44133  15.139   2.773   0.253 -0.0996  0.0582 -0.0257
28517W        W44134  12.967  10.236  13.431 -0.2985  0.3335 -0.0266
28518W        W44135   4.192   7.426   5.329  0.1069  0.2853 -0.1098
28519W        W44136   8.364   3.538   2.616 -0.0993  0.0648  0.3022
28520W        W44137   0.288  12.487   0.398  0.1158  0.1948  0.2986
28521W        W44138   5.471  14.201  15.420 -0.1040 -0.2433 -0.0659
28522W        W44139   4.734  17.760  15.970 -0.2892 -0.2613 -0.1409
28523W        W44140  15.849   5.245  16.153  0.0207 -0.2039 -0.1317
28524W        W44141  16.120  12.023  12.182  0.0598 -0.0695  0.0954
28525W        W44142   3.277   1.173   5.530 -0.1237  0.0457  0.1118
28526W        W44143   6.601  17.526   4.577  0.2151  0.1786  0.0864
28527W        W44144   7.386  14.562  13.699  0.4153  0.0281  0.3996
28528W        W44145   2.106  13.720   2.377 -0.1695  0.1443  0.3836
28529W        W44146   9.770  16.228  16.002 -0.1595 -0.4210  0.0283
28530W        W44147  17.984   9.863  12.460 -0.0998  0.2460  0.0659
28531W        W44148   1.454   9.239  12.573 -0.3477  0.1416  0.0752
28532W        W44149   9.497  16.793  12.270 -0.1500  0.2573  0.2066
28533W        W44150   1.458  14.047   0.412  0.0555 -0.0939 -0.0294
28534W        W44151   0.079  17.888   4.621  0.2053  0.0264  0.0202
28535W        W44152  15.595   9.975  14.174  0.0416  0.1896 -0.0103
28536W        W44153  16.076  13.353  14.890 -0.2138  0.2469 -0.0981
28537W        W44154   3.831  15.078  13.071 -0.2372 -0.0567 -0.2900
28538W        W44155   6.554  15.250   0.531 -0.1345 -0.1288  0.0898
28539W        W44156   4.711   5.349  13.665 -0.0059 -0.0355 -0.0408
28540W        W44157  16.809  13.075   3.654 -0.1211 -0.2090 -0.3507
28541W        W44158   8.445  15.550   2.314 -0.1830 -0.0187 -0.0076
28542W        W44159  14.378  15.851  15.585  0.1379 -0.0372 -0.1065
28543W        W44160   0.545   3.049   6.239 -0.0592 -0.2249  0.1620
28544W        W44161  10.712  18.008  16.477 -0.1449  0.1386 -0.1226
28545W        W44162  11.330   1.819  13.907  0.2168  0.1652 -0.0291
28546W        W44163   6.624   6.062   6.063 -0.1993 -0.0197 -0.0217
28547W        W44164  17.381   1.163   2.516 -0.0333  0.0056  0.3345
28548W        W44165  10.602   9.192   3.858 -0.3184 -0.0974 -0.1061
28549W        W44166   8.874   3.946   2.682  0.1560 -0.1288  0.1935
28550W        W44167  11.908   3.977   2.759 -0.1355 -0.1942 -0.3251
28551W        W44168   7.053   6.182  11.765 -0.1206 -0.1861 -0.3796
28552W        W44169  11.581   0.016   4.271 -0.1309  0.1107 -0.2820
28553W        W44170   3.027   7.880  15.406 -0.1430 -0.0686 -0.2808
28554W        W44171   8.962  17.108   1.840 -0.1985 -0.0688 -0.0725
28555W        W44172   7.207   2.172   4.799 -0.0596  0.2097 -0.1037
28556W        W44173  12.650   8.816   1.408  0.0066  0.0947 -0.2685
28557W        W44174   9.827   6.059  15.603  0.1447  0.1180 -0.1685
28558W        W44175   2.538   0.029  12.401  0.1239 -0.0698  0.3215
28559W        W44176   3.250   9.621  15.910 -0.1403 -0.3931  0.0462
28560W        W44177  11.537  14.058   2.886 -0.0922  0.4304  0.1103
28561W        W44178   4.198  13.100   3.931  0.0118 -0.1572  0.1214
28562W        W44179   1.830   0.929  12.880  0.3648 -0.1839  0.1221
28563W        W44180  16.237   1.862  13.666  0.0049  0.0879 -0.0615
28564W        W44181   8.505   8.989  15.961 -0.1787  0.1087 -0.2092
28565W        W44182   8.773   6.123   5.600 -0.0202 -0.1593  0.0968
28566W        W44183   8.695   4.849  14.621  0.0662  0.1791 -0.0260
28567W        W44184  17.999   3.239  12.178 -0.2519 -0.0701  0.3396
28568W        W44185   7.622  11.141   4.411 -0.1129  0.3808 -0.1516
28569W        W44186  17.810  17.781  15.963  0.0171  0.0939  0.2207
28570W        W44187   8.564   4.554  11.380 -0.0809  0.0804 -0.0989
28571W        W44188   1.032   4.336   6.259 -0.2226  0.0855 -0.1297
28572W        W44189   3.567   1.155   1.777 -0.1189  0.2663  0.0088
28573W        W44190  15.721   8.703  16.060 -0.1315  0.1077  0.0669
28574W        W44191   1.620  10.338   5.542  0.0001 -0.1335  0.0130
28575W        W44192   7.355   3.813   5.459 -0.1552  0.0728 -0.3389
28576W        W44193   1.827  17.910   2.236 -0.2299 -0.2168 -0.1539
28577W        W44194   5.344   2.421  14.880  0.0611 -0.0734 -0.1636
28578W        W44195   2.500  11.320   4.668  0.1140  0.1218 -0.0227
28579W        W44196  15.838   5.569  11.837  0.0622 -0.0084  0.2677
28580W        W44197  12.624   3.711  12.719  0.1161 -0.2052  0.1777
28581W        W44198   0.619   2.976   3.705 -0.0538 -0.0333 -0.1380
28582W        W44199   6.025  10.448   3.932  0.0636  0.0629 -0.0959
28583W        W44200   1.138  17.768   1.353 -0.0297  0.1993 -0.0853
28584W        W44201  10.553  13.062   1.433 -0.0064 -0.2889 -0.0100
28585W        W44202   0.128  11.617   1.860  0.1007 -0.0156 -0.2733
28586W        W44203   1.057   8.011  14.597  0.2489  0.0448  0.3397
28587W        W44204  10.242   7.801  12.688  0.2081 -0.0359 -0.1198
28588W        W44205  10.464  10.937   4.462 -0.0368  0.0833  0.0435
28589W        W44206  10.587   5.445   3.522  0.2655 -0.1495 -0.1319
28590W        W44207   5.636   4.782  15.770 -0.0136  0.1596 -0.1620
28591W        W44208  16.494   3.831  14.262  0.2476 -0.0518  0.1431
28592W        W44209  16.330  12.959   4.250 -0.2424  0.1361 -0.1333
28593W        W44210   1.194  14.237   5.226  0.0170 -0.0928  0.2620
28594W        W44211   3.855  15.970  12.856  0.1146  0.1962  0.3853
28595W        W44212  15.834  12.978  12.123 -0.1829 -0.0655 -0.1965
28596W        W44213   2.982  16.171  15.480  0.1856 -0.4410 -0.0788
28597W        W44214   3.833   9.819   2.655 -0.0515 -0.0114 -0.0404
28598W        W44215   3.760  11.078   4.158 -0.0193  0.3516  0.1835
28599W        W44216   0.736   3.709  14.726  0.2919 -0.0327 -0.0670
28600W        W44217   9.862   7.419   4.143  0.0719 -0.2574 -0.0294
28601W        W44218  11.999   0.747  12.017  0.1998  0.3577 -0.2247
28602W        W44219  10.966  16.573   3.086  0.0630  0.3401 -0.2529
28603W        W44220  12.521  17.853   1.756  0.1390  0.1545 -0.0731
28604W        W44221  11.131   9.378   4.527 -0.0418 -0.3022 -0.0342
28605W        W44222   6.495   3.859  16.080  0.1363 -0.0408  0.1765
28606W        W44223   8.013   6.466  13.385 -0.0374  0.1174 -0.0114
28607W        W44224   8.965   1.545   2.293  0.2322  0.1428  0.0925
28608W        W44225  14.619  17.218   5.139  0.0205 -0.0805 -0.0809
28609W        W44226  13.903   1.425   3.741 -0.0016  0.2967  0.0413
28610W        W44227   1.617   4.221   1.043 -0.2921  0.0285  0.1468
28611W        W44228  14.932  13.313  14.070 -0.1084  0.2185 -0.3466
28612W        W44229   1.316   4.221   4.871 -0.1039  0.1155 -0.2088
28613W        W44230  16.607   8.202  13.148  0.0714 -0.0351  0.0453
28614W        W44231   1.692   2.285   5.505 -0.0640  0.2841  0.2265
28615W        W44232   8.952   0.741  14.231 -0.1649 -0.2796 -0.2689
28616W        W44233  17.055  16.458  15.445 -0.4118 -0.2112 -0.0912
28617W        W44234   3.661   0.678  15.237 -0.3882 -0.0744  0.0296
28618W        W44235  13.965  12.546   1.766  0.0783 -0.0295  0.0202
28619W        W44236  14.603   2.712  15.525  0.0116  0.0017 -0.2951
28620W        W44237  14.043   7.143   3.000 -0.1453 -0.0838 -0.1684
28621W        W44238   5.780   1.156   0.915 -0.2574  0.4287  0.0654
28622W        W44239   0.589   2.367  15.305 -0.0252  0.0804  0.0302
28623W        W44240  15.180   1.917   3.083 -0.0788 -0.0049 -0.0162
28624W        W44241   5.524  17.053   1.195 -0.1128  0.2344  0.2006
28625W        W44242  12.344  17.479   3.885 -0.0718  0.2567 -0.2216
28626W        W44243  15.167  15.956   5.293 -0.2311  0.3263 -0.0983
28627W        W44244   9.242  12.015   4.538 -0.0057  0.1854  0.0186
28628W        W44245  12.083   2.526  14.351 -0.2188 -0.2738 -0.0652
28629W        W44246   3.988  14.547   2.467 -0.2258  0.2513 -0.2013
28630W        W44247   0.805  17.838   0.131 -0.0869  0.1899 -0.0341
28631W        W44248  11.317   8.161   5.797 -0.2249  0.0044 -0.2441
28632W        W44249   7.260   4.431   0.796 -0.0430  0.3167  0.0707
28633W        W44250   6.576  15.814  15.068 -0.1527 -0.3039 -0.1702
28634W        W44251   2.998   5.698   4.003  0.1474  0.1841 -0.1253
28635W        W44252   1.653   4.556  12.692  0.0507 -0.1053  0.0521
28636W        W44253  10.384  11.664   4.804 -0.3434 -0.1449 -0.1536
28637W        W44254  10.459   1.090  16.768  0.0193 -0.3341  0.0692
28638W        W44255   9.895  15.875  14.109 -0.0293 -0.4109 -0.3868
28639W        W44256   3.155   2.209   4.365 -0.2073 -0.6051 -0.1810
28640W        W44257   9.654   6.708  12.422 -0.0473  0.0591  0.3727
28641W        W44258  11.910  17.578  12.214  0.3088  0.1467  0.0437
28642W        W44259   1.871   7.112   3.493 -0.1410  0.0866  0.1249
28643W        W44260   1.187   2.398   2.735  0.1342  0.0863  0.0188
28644W        W44261   2.374  13.470   1.578 -0.1291  0.0808  0.0044
28645W        W44262   7.695   3.438   5.559  0.0367 -0.0961  0.1403
28646W        W44263   1.574  13.174  15.056 -0.2314 -0.1887 -0.1165
28647W        W44264  17.221   7.130  14.387 -0.0713  0.0028 -0.0065
28648W        W44265  11.301  12.407   3.429 -0.2682 -0.1173 -0.0662
28649W        W44266   0.186  11.437  13.232  0.0906  0.4882 -0.0652
28650W        W44267   5.311   9.695   3.194  0.2872  0.0398 -0.1325
28651W        W44268   7.916   7.833  16.350 -0.0729  0.1371 -0.0244
28652W        W44269   9.006  10.130  16.464 -0.2037 -0.0575  0.0524
28653W        W44270   4.594   0.422   2.000  0.0916  0.0999  0.0672
28654W        W44271  12.230  16.370  14.764 -0.0693 -0.0180  0.3430
28655W        W44272  11.822  16.424   0.511  0.0930 -0.0458 -0.0044
28656W        W44273  16.640   3.299  14.308  0.2193  0.0626 -0.1305
28657W        W44274   7.116   8.678   2.105 -0.1821  0.0075 -0.1173
28658W        W44275   9.327   8.858   5.913 -0.1310  0.1361  0.1986
28659W        W44276  12.700   2.007  16.424 -0.0415  0.2114  0.1648
28660W        W44277  15.062  17.283  16.148 -0.1801 -0.1938  0.2316
28661W        W44278   7.465   6.025  14.835  0.1105  0.1536  0.3516
28662W        W44279   8.952  10.589  15.157  0.2342 -0.1160  0.3288
28663W        W44280  13.361   2.963  14.660 -0.0999 -0.5619  0.0709
28664W        W44281  11.112   4.692   5.133  0.0794 -0.3984  0.0761
28665W        W44282   8.929  17.417  15.377  0.0570 -0.1654 -0.2123
28666W        W44283   2.738   1.494  15.304 -0.1889  0.1785  0.1597
28667W        W44284  16.711   2.990  15.388 -0.3509  0.1254  0.2508
28668W        W44285   6.391  10.180  11.956  0.1451 -0.0244 -0.2341
28669W        W44286   9.586   1.756  15.150  0.2760  0.1949 -0.2223
28670W        W44287   4.883   0.720   3.477  0.1623  0.1167 -0.0636
28671W        W44288   1.695  15.718   5.624 -0.1633 -0.0716 -0.1312
28672W        W44289   2.955  11.233  12.004 -0.2012 -0.1764  0.1972
28673W        W44290   1.365   4.147  12.526  0.0023  0.4069  0.3164
28674W        W44291  14.081   6.822  11.585 -0.1161 -0.2312 -0.2401
28675W        W44292  17.037   7.586  15.343 -0.0948  0.2433 -0.0081
28676W        W44293   9.173  11.418   2.131 -0.0029 -0.1124 -0.0504
28677W        W44294   6.089   5.125   4.778 -0.0398  0.0047 -0.2388
28678W        W44295  17.106  17.683   2.574 -0.0132 -0.1359  0.2662
28679W        W44296  12.189   5.271  15.829  0.1171 -0.1557  0.1469
28680W        W44297  17.762   4.068   0.125  0.1901 -0.0543  0.1626
28681W        W44298  14.884   9.011   5.905 -0.1063  0.0425  0.3933
28682W        W44299   5.337   5.347  15.180 -0.0861  0.6191 -0.0097
28683W        W44300   3.287   3.342  14.290 -0.0251  0.2455  0.2463
28684W        W44301   4.325   9.443   1.870 -0.1191 -0.0166 -0.0141
28685W        W44302   7.381   1.601  12.275  0.1772  0.3395 -0.0180
28686W        W44303  16.068   4.940  16.522 -0.0705 -0.2505 -0.0474
28687W        W44304   8.664   3.900   3.610  0.3706  0.0203  0.4347
28688W        W44305  11.058  10.788  14.859  0.0913 -0.0750 -0.2100
28689W        W44306   4.220   7.058  12.032 -0.1409 -0.1421 -0.3373
28690W        W44307  12.006   3.506   6.212 -0.1053 -0.3720 -0.2665
28691W        W44308   6.155  11.242  13.069 -0.0411  0.5648  0.1441
28692W        W44309  12.365   4.516  13.168  0.0003  0.0773  0.3159
28693W        W44310  13.790   9.267  16.611  0.3294 -0.2054  0.1215
28694W        W44311   0.734  10.964   4.337 -0.0089  0.1201 -0.0264
28695W        W44312   6.809   5.939   4.293  0.2889 -0.0209 -0.0732
28696W        W44313   0.384  17.011  14.809  0.1680  0.1605 -0.1622
28697W        W44314  13.333  15.695   3.289  0.1163 -0.1344  0.3190
28698W        W44315   9.597  15.082   2.448 -0.1533 -0.0168 -0.1178
28699W        W44316   9.633   6.300   0.201 -0.2146 -0.0329 -0.0706
28700W        W44317   7.904  16.287   0.890  0.0518  0.0152  0.0755
28701W        W44318   1.638   0.340   2.551  0.2703 -0.0119 -0.2128
28702W        W44319   0.563  13.861  10.965  0.0159  0.1209 -0.3176
28703W        W44320  11.839   7.905  13.858 -0.3790  0.1316  0.0348
28704W        W44321   6.292  13.202   0.673  0.2746  0.3250  0.0565
28705W        W44322   1.678   3.252   6.617 -0.0514 -0.1605  0.0082
28706W        W44323  15.078   8.656   1.827  0.0274 -0.1336  0.1033
28707W        W44324   8.317   1.285  13.608  0.3028  0.1586  0.0709
28708W        W44325  15.555   0.426  16.477 -0.0903 -0.0143 -0.1960
28709W        W44326   7.021  10.369   0.824  0.1840 -0.0525 -0.3602
28710W        W44327  13.362  14.257   2.404 -0.0138  0.1371 -0.2181
28711W        W44328  12.877   8.764   2.704 -0.4373  0.0945 -0.0757
28712W        W44329  14.476   4.875  14.195 -0.0869 -0.1348  0.1614
28713W        W44330  10.633  10.361   4.510  0.0599 -0.1170  0.1872
28714W        W44331   3.340   3.943   3.713  0.1691 -0.2903 -0.0556
28715W        W44332   2.664   0.759  16.596 -0.2950  0.1619 -0.1858
28716W        W44333   4.111   8.398  12.490 -0.1448  0.2598 -0.1593
28717W        W44334  11.123  14.219  15.104  0.3538 -0.1478  0.0274
28718W        W44335  10.893  12.324   3.110 -0.2383 -0.1948 -0.0815
28719W        W44336   7.442  11.702  13.835 -0.0745  0.0806  0.1988
28720W        W44337   4.666   4.759  14.299 -0.2491 -0.3755 -0.0054
28721W        W44338   4.399   4.032   4.688  0.0853  0.1697 -0.0689
28722W        W44339   3.400  10.237   3.882 -0.0302 -0.1759  0.0434
28723W        W44340  10.981   8.355  15.235 -0.1640 -0.1702  0.0132
28724W        W44341  13.455  15.917   5.007  0.4851  0.3630 -0.0746
28725W        W44342  13.164  10.761   0.238 -0.2540  0.2286  0.2269
28726W        W44343  17.276   1.530   1.310 -0.2252  0.0349 -0.1605
28727W        W44344  16.969   3.304   0.889 -0.2274 -0.0765  0.1794
28728W        W44345  13.374   1.868  15.594  0.0254  0.1042 -0.2997
28729W        W44346   6.421  12.558   0.817 -0.0981  0.2859  0.2054
28730W        W44347  13.584  14.502   0.068  0.1601 -0.0773 -0.0036
28731W        W44348   9.472   6.978   2.514  0.0487  0.0477 -0.1227
28732W        W44349   3.160  15.687  15.873 -0.0403  0.1978  0.0526
28733W        W44350   0.735  17.484  15.530  0.0050 -0.1464  0.1232
28734W        W44351   2.891  12.288   2.032 -0.1650  0.0736 -0.1732
28735W        W44352   9.920   1.948  14.158 -0.0718 -0.1644  0.2935
28736W        W44353   1.576  17.030   1.168  0.3073  0.0042 -0.1044
28737W        W44354   2.323  14.877  13.903 -0.3303  0.1831 -0.2368
28738W        W44355  12.057   4.917   5.623 -0.2209  0.3804  0.2653
28739W        W44356  16.399   8.741   3.648  0.0538 -0.0778 -0.0353
28740W        W44357  11.031   0.526   5.380  0.1207  0.0192  0.0530
28741W        W44358  11.464  13.547   2.708 -0.1231  0.1653  0.0744
28742W        W44359   2.457  16.944  14.752  0.0204 -0.1667  0.0086
28743W        W44360  17.300   8.464  15.451  0.2538 -0.0484  0.2769
28744W        W44361   0.287   3.436   5.766 -0.2056 -0.2388  0.1719
28745W        W44362   4.868  16.872   0.441  0.1893 -0.1761  0.0106
28746W        W44363   8.618   4.102   1.930  0.2049 -0.0665 -0.0822
28747W        W44364   5.417  10.053  15.492 -0.1192 -0.1451  0.3742
28748W        W44365  13.056  14.812   0.377  0.3790  0.0516  0.0066
28749W        W44366   2.769   9.533   6.639  0.1872  0.4436  0.1177
28750W        W44367  12.898   0.919  12.152  0.0487  0.0180  0.1805
28751W        W44368   9.273   9.373  11.911  0.1255 -0.1650 -0.2752
28752W        W44369   7.702  16.999  13.867 -0.1705  0.0359 -0.0198
28753W        W44370  10.607  10.947  10.698  0.4376  0.1338 -0.0854
28754W        W44371   1.261   5.426  14.538 -0.2299 -0.2199  0.1873
28755W        W44372   7.944   4.677  12.409  0.3732 -0.0338 -0.3155
28756W        W44373   0.262  15.598  14.273  0.2893 -0.0949 -0.2700
28757W        W44374   9.843   2.451  13.967 -0.2575 -0.0633 -0.1341
28758W        W44375  12.226   2.326  16.275  0.2902 -0.0607  0.0057
28759W        W44376  17.119  14.779   6.438 -0.1821  0.1901 -0.0231
28760W        W44377  15.383  17.070   5.885  0.2237 -0.4106 -0.0057
28761W        W44378   1.324   5.645  16.068 -0.0487 -0.0139  0.0095
28762W        W44379   4.598   8.865   3.607 -0.0182 -0.3085  0.1992
28763W        W44380  14.010  10.819   0.951  0.1094 -0.1766 -0.3143
28764W        W44381   5.609   7.472  16.272 -0.1945 -0.2240  0.3097
28765W        W44382  12.025  16.165   4.024 -0.0342 -0.4430  0.3006
28766W        W44383   0.230  13.525   2.629 -0.1321 -0.1303  0.1881
28767W        W44384  10.337   4.212  13.860  0.1794 -0.5379 -0.0152
28768W        W44385   8.313  10.693   3.066 -0.0424  0.1529 -0.0192
28769W        W44386  16.615  14.208  15.437 -0.0885  0.3492  0.0202
28770W        W44387  16.481   8.226   0.994 -0.0116  0.3531 -0.0860
28771W        W44388  17.988  14.019  13.355 -0.0941  0.3727 -0.0037
28772W        W44389  16.826   1.475  14.796 -0.0889  0.0126 -0.2628
28773W        W44390  10.993   8.197  16.056 -0.0493  0.0967  0.2699
28774W        W44391   3.782   3.432  14.028  0.2380  0.0781 -0.0484
28775W        W44392   0.810   6.488  15.337 -0.0032  0.0449  0.1367
28776W        W44393  13.730   5.502   1.417 -0.0239 -0.1253  0.2352
28777W        W44394  11.212   2.807  14.883 -0.2788  0.3422  0.0161
28778W        W44395   7.772   4.641  14.238 -0.5766  0.1976  0.0565
28779W        W44396   2.930   0.431  12.553  0.0307  0.0560 -0.0690
28780W        W44397   4.245   8.989   0.314  0.0787  0.0223  0.0934
28781W        W44398   7.289   8.870   3.841  0.1390  0.1618  0.3466
28782W        W44399   8.442   1.483   4.309  0.1889 -0.1757 -0.3774
28783W        W44400   2.735  13.685  16.744 -0.0259 -0.0215 -0.1745
28784W        W44401   8.325  11.849  15.352 -0.0666  0.0097  0.4739
28785W        W44402   5.740  12.634  15.843 -0.0477  0.0901  0.2827
28786W        W44403   6.924   0.518  16.346 -0.0594  0.3109  0.3539
28787W        W44404   9.720  14.895   3.048 -0.3173  0.0524  0.2483
28788W        W44405  10.068   0.630  15.002 -0.3355  0.3113 -0.1672
28789W        W44406   2.125  11.247  11.752  0.3180 -0.3884  0.2590
28790W        W44407   7.434  15.142   1.541 -0.0220 -0.2230 -0.0807
28791W        W44408  12.188  10.495  11.417 -0.0383  0.0080  0.0584
28792W        W44409   0.906   9.134   0.263  0.0246  0.1359  0.1854
28793W        W44410  16.821   7.775  13.597  0.0682 -0.0036 -0.1748
28794W        W44411  11.379   5.803   0.281 -0.2295  0.2394 -0.1832
28795W        W44412   2.690   3.333   5.931  0.1304  0.0690 -0.1453
28796W        W44413   4.131  17.086  12.684 -0.3042 -0.3287 -0.0464
28797W        W44414  11.180   9.049  16.456 -0.0574  0.2113 -0.0992
28798W        W44415  15.273   0.139  13.055  0.1502  0.0838 -0.0069
28799W        W44416  14.591  10.873   5.856  0.2176  0.0939 -0.1236
28800W        W44417  11.306  10.542  16.041 -0.2725 -0.0579  0.1971
28801W        W44418  11.451  11.125  14.615  0.0475  0.1586 -0.2692
28802W        W44419   1.114   4.268   3.029 -0.1815  0.0180  0.0301
28803W        W44420   2.294   6.627   0.520 -0.3317  0.0527 -0.0903
28804W        W44421   6.308  15.961   1.386  0.0986 -0.1317 -0.4050
28805W        W44422  14.406   3.826  14.235  0.0677  0.0258 -0.0068
28806W        W44423  12.832  15.482   5.502 -0.0831  0.2430 -0.3007
28807W        W44424   9.704   1.608   0.103  0.1790 -0.0235 -0.0078
28808W        W44425  15.164  10.619   4.014  0.0039  0.1432  0.1923
28809W        W44426   1.604   7.397  11.157 -0.1572 -0.0366 -0.2609
28810W        W44427   3.166  10.067   1.807  0.0282 -0.0322 -0.4430
28811W        W44428  16.933   3.777  15.187  0.0019 -0.2327 -0.0312
28812W        W44429   1.930  13.976   0.307 -0.3796  0.0122 -0.4026
28813W        W44430   1.142  11.487   2.591  0.0706  0.1629  0.3833
28814W        W44431   2.983   5.674  12.002 -0.1183 -0.2068 -0.2569
28815W        W44432   1.147   5.306   6.030  0.0609 -0.1931 -0.1403
28816W        W44433  17.186  13.270  16.502 -0.0314 -0.1344 -0.4362
28817W        W44434  11.051   1.093  12.504 -0.0373 -0.1189 -0.1806
28818W        W44435   6.318   0.384  11.152 -0.0613  0.1765 -0.3373
28819W        W44436   6.244   8.337   3.511 -0.1911 -0.0600 -0.4114
28820W        W44437   2.160   8.750   5.244 -0.1465 -0.2325  0.0677
28821W        W44438   7.901   4.997   1.346  0.1575  0.2138 -0.1139
28822W        W44439   4.952   5.483   0.819 -0.1382  0.0397 -0.1759
28823W        W44440  11.155  11.536   3.098 -0.2396 -0.0454 -0.1032
28824W        W44441   4.064   4.543   0.468 -0.0171  0.1454 -0.1407
28825W        W44442  13.116   4.782  13.415  0.0705  0.0991 -0.3184
28826W        W44443   9.897   5.127  14.930  0.1892 -0.0532  0.1322
28827W        W44444  15.102  14.160   0.692  0.0513  0.0320 -0.3339
28828W        W44445  10.034   4.826  15.275  0.0019  0.1794 -0.1690
28829W        W44446   5.048  10.121  11.776  0.0351  0.0676  0.3246
28830W        W44447  16.850   9.659  16.741 -0.2090  0.0407 -0.2132
28831W        W44448   2.331  16.071  12.705 -0.2070 -0.1563 -0.2574
28832W        W44449  16.075  12.014   2.800  0.2075  0.2392 -0.1334
28833W        W44450  16.133   6.299   5.924 -0.1859 -0.2385  0.1741
28834W        W44451   4.732  10.599   0.189 -0.1633 -0.2463  0.1699
28835W        W44452   8.023   2.667  12.750 -0.0691  0.2150 -0.1751
28836W        W44453  17.045   8.847   1.532  0.0936 -0.3846  0.0540
28837W        W44454  13.153   7.312   2.972 -0.2553 -0.0195 -0.1759
28838W        W44455   1.365  10.728   2.644  0.2673 -0.2545 -0.1163
28839W        W44456   8.397   5.344  11.054 -0.3048 -0.1416  0.0364
28840W        W44457   0.267   4.917  13.662  0.1872 -0.1715 -0.1862
28841W        W44458  10.854  13.416  16.076  0.0779 -0.1681 -0.4102
28842W        W44459  10.907   1.498  13.338 -0.1347  0.0566 -0.0585
28843W        W44460   9.547   1.842  12.081  0.1203  0.0055 -0.2005
28844W        W44461  15.554  15.480  12.250  0.2846  0.1763 -0.1676
28845W        W44462  12.887  17.274   3.239  0.0351  0.0274 -0.2277
28846W        W44463   7.723   3.534  14.210 -0.3466  0.3276 -0.1228
28847W        W44464  16.201  16.333   6.493  0.2066  0.0904  0.2251
28848W        W44465  10.813   6.381   3.411  0.1700  0.3266 -0.0252
28849W        W44466   8.961   5.916   4.764 -0.2035  0.1671  0.0921
28850W        W44467  15.850  10.263   3.818  0.1274  0.0929 -0.2875
28851W        W44468  17.294   9.579  14.654  0.0112  0.3184 -0.0643
28852W        W44469   0.304  11.567  15.425  0.0784  0.0124  0.2623
28853W        W44470  13.613   1.385   4.267  0.1789  0.0864  0.0657
28854W        W44471   4.960   6.455  14.483 -0.1457  0.1021 -0.0452
28855W        W44472   8.794  10.018  12.960 -0.2019  0.2266  0.0362
28856W        W44473  13.270  12.337  12.123  0.0568  0.3059  0.2481
28857W        W44474  14.095  14.532  15.853 -0.0062 -0.3821 -0.1566
28858W        W44475  11.408   3.719   2.643 -0.1456 -0.6074  0.2065
28859W        W44476   0.431  12.744   2.927 -0.1122  0.0481 -0.1431
28860W        W44477  10.040  17.840  16.700  0.2509 -0.5154 -0.2017
28861W        W44478   2.078  15.868  11.863  0.4463 -0.3790 -0.0854
28862W        W44479  16.897   1.705  14.367  0.1245  0.3393 -0.0645
28863W        W44480  11.515   0.121   0.786 -0.3584 -0.3943  0.0984
28864W        W44481   8.206   2.366   6.490 -0.4153 -0.1711  0.0223
28865W        W44482   8.615  16.429  13.917  0.1415 -0.3230 -0.1485
28866W        W44483  12.510  13.770   3.116  0.0211 -0.1995  0.0326
28867W        W44484  15.122   8.052  12.844 -0.2485  0.2638  0.0770
28868W        W44485  14.652   6.097   0.356 -0.2108 -0.2615  0.0740
28869W        W44486   2.133   5.299   2.743  0.1714  0.5023  0.0106
28870W        W44487   7.855   6.867   2.537 -0.0324  0.0908 -0.1285
28871W        W44488   0.690  16.647   3.812  0.0171 -0.0035  0.3490
28872W        W44489  10.597   3.973  16.373  0.1405 -0.3291  0.1876
28873W        W44490   1.329   1.338  10.757  0.0859 -0.2693 -0.0548
28874W        W44491  11.350   8.168   1.688 -0.1214  0.3530 -0.1291
28875W        W44492  14.821   2.339   0.679 -0.1776  0.2261  0.3769
28876W        W44493   3.433  10.645  11.386  0.0277  0.1864 -0.2556
28877W        W44494  10.937   0.346   6.725 -0.1262  0.0637 -0.1285
28878W        W44495   3.150   0.049  12.296  0.0948 -0.0500  0.2505
28879W        W44496   6.701   7.761  14.571  0.1283  0.0596  0.5635
28880W        W44497   8.255   4.789  16.685 -0.0267  0.3788 -0.1912
28881W        W44498  11.658  17.781   0.243 -0.0806  0.0313  0.1452
28882W        W44499   0.687   1.219   3.044 -0.0073 -0.0943  0.1325
28883W        W44500  17.241  14.894   0.759 -0.1958 -0.5439  0.2715
28884W        W44501   0.525   2.405  13.330  0.1171 -0.1008  0.2775
28885W        W44502   1.700   6.373   4.974 -0.0256  0.0772  0.0023
28886W        W44503   4.876  12.846  15.766 -0.0065 -0.4043  0.4108
28887W        W44504  13.603   2.295  15.751 -0.0737  0.2091 -0.2468
28888W        W44505   5.626   9.719  14.524  0.1075  0.0594  0.3272
28889W        W44506  11.772  13.154   2.855  0.0205  0.4044 -0.2567
28890W        W44507   4.338  16.657   4.994  0.2406  0.1554  0.0397
28891W        W44508  15.553  12.381  14.144  0.0889 -0.1530  0.0918
28892W        W44509   5.023   1.212   0.587 -0.2313 -0.0363 -0.2667
28893W        W44510   8.190  14.544  11.842  0.0314  0.2398  0.1937
28894W        W44511   5.765  12.466   1.153  0.1667  0.0521  0.0314
28895W        W44512   4.876  11.739   4.515 -0.1939  0.1143  0.0242
28896W        W44513   9.923  12.370  11.719  0.2871  0.3706  0.0129
28897W        W44514   6.988   1.244   4.302 -0.4573 -0.0612  0.1074
28898W        W44515  11.126   3.082  10.689 -0.0950  0.0029 -0.2912
28899W        W44516  12.259   9.910   4.168 -0.0920 -0.4566  0.1272
28900W        W44517   1.246   0.476  14.976  0.0891 -0.1348  0.0925
28901W        W44518   1.482   2.782  11.953 -0.1751 -0.2551 -0.3917
28902W        W44519   0.276   3.632  15.703 -0.0187 -0.1298  0.1262
28903W        W44520   9.965   4.671  14.761  0.0794  0.1663 -0.3846
28904W        W44521   9.026  14.219   1.448  0.0936  0.0319 -0.2072
28905W        W44522  13.767  13.350  16.601  0.2073  0.1926 -0.0300
28906W        W44523   8.869   6.761   2.633  0.1820 -0.0064  0.0483
28907W        W44524   2.108   8.296  16.643 -0.0442 -0.0342 -0.0356
28908W        W44525   8.385  13.304   5.269  0.0264  0.0417  0.1134
28909W        W44526  16.492   1.410   3.753 -0.1377 -0.2431  0.3935
28910W        W44527  15.451  17.389   5.494 -0.0928  0.3794  0.2527
28911W        W44528  12.040   9.007   2.279  0.4206  0.0968  0.0004
28912W        W44529  11.644   6.670   4.042  0.1965  0.0296  0.1155
28913W        W44530   1.327  13.536  16.557  0.1036  0.2003  0.2102
28914W        W44531   8.594   4.902   3.795 -0.0886 -0.4071 -0.1283
28915W        W44532  15.613   6.625   2.249 -0.3160 -0.1141  0.1109
28916W        W44533   4.690   7.015  12.971 -0.2759  0.0402 -0.3744
28917W        W44534  12.556   5.183   3.616  0.0655  0.1271  0.0449
28918W        W44535  17.962  13.860   4.095 -0.0755 -0.3128 -0.0430
28919W        W44536   6.207   8.666   6.134 -0.0855 -0.3128  0.1206
28920W        W44537  12.233   8.053  14.132 -0.1080  0.3605  0.0005
28921W        W44538  12.434   9.163   0.306 -0.1512  0.0712  0.1470
28922W        W44539   9.684  10.756  11.630 -0.1590 -0.0699 -0.0293
28923W        W44540  16.861  17.772   1.078  0.0553 -0.1533 -0.2190
28924W        W44541   4.022  13.721   1.445 -0.2733 -0.1803 -0.0138
28925W        W44542  11.110   8.645  13.065  0.0740  0.2127  0.0631
28926W        W44543   4.912   0.775  12.945  0.0781  0.1694 -0.1536
28927W        W44544   2.742   6.861  14.087  0.2624 -0.2547  0.1185
28928W        W44545   9.318   1.046  16.603  0.1950  0.0610 -0.1808
28929W        W44546  10.820   4.467  14.212  0.1192  0.1129  0.1583
28930W        W44547  10.254   6.505   4.831 -0.4619  0.3654 -0.1590
28931W        W44548   2.622   9.262  15.052  0.1748 -0.0519 -0.1958
28932W        W44549  10.819  12.266  11.408  0.0709 -0.1850  0.1179
28933W        W44550  17.980   0.940  12.445  0.1008 -0.1260  0.1977
28934W        W44551  14.283  10.789  14.520  0.4817  0.1778 -0.1003
28935W        W44552  12.498  16.772  12.252 -0.1005  0.1626 -0.0244
28936W        W44553  13.721   1.529  13.051 -0.2906  0.0547  0.2704
28937W        W44554  13.671  13.682   5.661 -0.3726  0.1093 -0.3687
28938W        W44555  13.662  12.172  15.572  0.4122  0.0600 -0.2142
28939W        W44556   8.130  12.666   2.521 -0.1214  0.2204  0.0145
28940W        W44557   6.770  10.638   1.211  0.1600 -0.4674  0.2058
28941W        W44558  16.626  14.850   5.224 -0.0689  0.0269  0.1693
28942W        W44559   6.751  12.963   0.665 -0.2793  0.3501  0.1161
28943W        W44560   5.896  13.276  14.054  0.2353  0.2448 -0.2619
28944W        W44561   2.672  16.427  15.102 -0.0164  0.2083  0.0986
28945W        W44562   7.753   2.419  11.850 -0.3984 -0.2543 -0.2386
28946W        W44563   8.339   9.096  14.268 -0.1316  0.2834 -0.1765
28947W        W44564  17.509   5.926  16.266 -0.1276 -0.0815 -0.1641
28948W        W44565   8.194  10.905  16.586  0.3448  0.1434  0.1132
28949W        W44566   7.927   7.313   1.926 -0.0210  0.1953 -0.0962
28950W        W44567  12.117  10.342  14.131 -0.3264 -0.1221  0.2887
28951W        W44568   7.407   6.245  12.135  0.3936  0.1874 -0.2608
28952W        W44569   1.013   2.997  12.831 -0.3166  0.0986  0.2381
28953W        W44570  10.465   5.682   5.318  0.1357  0.3717 -0.0689
28954W        W44571  15.312   4.824  16.129 -0.4308 -0.2862  0.0135
28955W        W44572  13.445   7.736   0.624 -0.1460  0.2612  0.1232
28956W        W44573  13.180   9.836  12.052 -0.2362 -0.0091  0.1534
28957W        W44574   1.335  12.125  14.419  0.2755  0.3068 -0.2043
28958W        W44575   5.384  13.462   5.955 -0.0672  0.0086 -0.1127
28959W        W44576  11.082  12.288  15.542  0.2154  0.0122 -0.2303
28960W        W44577   6.188   7.066   4.536  0.2121 -0.1561  0.2876
28961W        W44578  11.815  12.319   4.398  0.0665 -0.0406 -0.0633
28962W        W44579  17.447  11.707  14.430 -0.0916 -0.3332  0.1847
28963W        W44580  10.683  12.079  14.236  0.0189 -0.2848  0.0708
28964W        W44581   3.267  15.856   3.633  0.2448 -0.0237  0.2820
28965W        W44582   2.937   5.572  15.856 -0.0729  0.1254 -0.1634
28966W        W44583   0.124   0.451  12.939 -0.4679 -0.3386  0.1624
28967W        W44584   6.376  15.461  14.546 -0.3240 -0.0517  0.0091
28968W        W44585  13.234  12.914   2.253 -0.1542  0.0975 -0.0378
28969W        W44586  11.089   6.979  16.101 -0.0364  0.2459 -0.0293
28970W        W44587  11.373   1.015  15.450 -0.0153 -0.0511  0.0241
28971W        W44588   3.129   7.235   3.532 -0.0629  0.0558 -0.0607
28972W        W44589   0.130  15.574   3.410 -0.0075  0.3254 -0.1961
28973W        W44590   4.281  10.952  14.089 -0.1250  0.0334 -0.1409
28974W        W44591   3.373   7.615   1.504 -0.2556 -0.2803 -0.0300
28975W        W44592  16.025  12.863   2.738 -0.1432  0.0960 -0.0541
28976W        W44593  16.749  15.363   4.087 -0.0511  0.1598 -0.0056
28977W        W44594   5.127  12.629  12.919  0.0529 -0.0949  0.0387
28978W        W44595  12.417  16.156  15.771  0.2446 -0.0532 -0.2558
28979W        W44596  14.431   6.310   0.747  0.0130 -0.0616  0.2332
28980W        W44597   9.435   2.161  14.078  0.0598  0.4521 -0.2361
28981W        W44598   6.656  12.338  14.192 -0.2212 -0.2122 -0.1138
28982W        W44599   4.679  16.459   4.637 -0.2653  0.3021 -0.1219
28983W        W44600   9.308   6.431   3.099 -0.3788 -0.1470 -0.2129
28984W        W44601   3.772   1.682   0.595  0.0720  0.0487 -0.0535
28985W        W44602   0.355  14.218  12.968  0.0134  0.0942 -0.2206
28986W        W44603   0.502   6.089   6.201  0.1024 -0.0615  0.0250
28987W        W44604  15.954  13.816  15.016 -0.0290 -0.1029 -0.2402
28988W        W44605  16.187   6.123  14.963  0.0750 -0.0623 -0.0202
28989W        W44606  12.703   6.514  13.171 -0.0669 -0.1968  0.0416
28990W        W44607   9.258  13.841   3.844  0.2688 -0.1080 -0.0957
28991W        W44608  14.056  17.840  11.583 -0.0556  0.0456 -0.1006
28992W        W44609   3.911   3.461  15.937  0.1698 -0.1439  0.3096
28993W        W44610   0.458  17.192   0.885  0.0558 -0.1243 -0.1070
28994W        W44611   9.112   5.719  13.865  0.0102 -0.1638  0.2848
28995W        W44612   5.087   2.020  10.926  0.1094 -0.2039 -0.0599
28996W        W44613  17.997  16.011   3.530 -0.0689  0.0378  0.1221
28997W        W44614   3.979   7.699   3.137 -0.3646  0.0214 -0.1264
28998W        W44615   1.181  11.643  14.572  0.3383  0.0553 -0.0301
28999W        W44616   8.996   6.638  15.882 -0.0076 -0.2776  0.1553
29000W        W44617  12.489  14.861  13.707 -0.4387  0.0447 -0.1422
29001W        W44618   3.581  11.527  15.590  0.3125 -0.1060  0.3735
29002W        W44619  10.555  13.728  11.871  0.2849 -0.0784  0.0950
29003W        W44620  16.921  15.383  15.544  0.1068  0.2011 -0.0570
29004W        W44621   0.345  17.730   2.425  0.1186 -0.0184 -0.1576
29005W        W44622  14.556  16.975   2.026  0.2352 -0.2911  0.3903
29006W        W44623   3.041  16.822   0.743 -0.0187  0.0063  0.0233
29007W        W44624  17.255  14.034   0.268  0.2879 -0.0849  0.1319
29008W        W44625   6.992   2.679  11.268 -0.0211  0.0284  0.1182
29009W        W44626   8.572   3.905  15.040  0.0323  0.2256 -0.1130
29010W        W44627  17.145  16.012   2.224 -0.0087  0.4758 -0.0498
29011W        W44628   3.404   9.120  16.505 -0.1015  0.3746 -0.0001
29012W        W44629  10.102   6.620   1.675  0.0955  0.1158 -0.2388
29013W        W44630  14.825  16.392  14.169 -0.0469  0.0832  0.1241
29014W        W44631   0.829   2.709  14.565  0.1550 -0.1116 -0.2318
29015W        W44632   8.703   5.624  13.043  0.0144  0.0172  0.3916
29016W        W44633  15.493  15.909  16.148  0.1600 -0.2654 -0.0428
29017W        W44634   7.758  12.507  11.990 -0.1678  0.0452 -0.1451
29018W        W44635  18.014   1.877   0.541  0.0989  0.0077  0.1886
29019W        W44636   4.702  13.095  16.570 -0.2800  0.0018 -0.0686
29020W        W44637  17.256   6.462   3.343  0.3756  0.2228 -0.0850
29021W        W44638  14.637   4.328  16.532  0.3396 -0.0039  0.2640
29022W        W44639  16.259   9.971   4.683  0.2699  0.0692 -0.0900
29023W        W44640   0.988   1.805   6.344 -0.1584 -0.2789  0.2942
29024W        W44641  11.690  17.214   1.013 -0.5905 -0.2415 -0.0940
29025W        W44642   8.731  13.834  15.098 -0.0809  0.3229  0.0630
29026W        W44643  13.991  13.771   0.001 -0.2109  0.2738 -0.0749
29027W        W44644   6.781  11.263  16.464  0.1603  0.0491 -0.0577
29028W        W44645   6.511  14.002   4.146  0.0803  0.0437 -0.0567
29029W        W44646   6.491   6.852  12.529 -0.0071  0.2450 -0.1274
29030W        W44647  13.581  14.863   3.397 -0.2024 -0.1350  0.3538
29031W        W44648  14.537  12.814  12.599 -0.1200  0.0067 -0.0970
29032W        W44649   2.621  14.692   3.054  0.0389 -0.0173  0.0373
29033W        W44650  13.219  12.731   2.724 -0.1148 -0.0205  0.0422
29034W        W44651  10.546  15.161  13.888  0.0616 -0.1239 -0.1386
29035W        W44652   2.559   2.610   5.020 -0.1511 -0.1903  0.0321
29036W        W44653   3.462   2.668   5.912  0.2405 -0.0766 -0.1645
29037W        W44654  11.133   6.012   6.003 -0.2019 -0.1791 -0.2348
29038W        W44655  15.927  14.095   0.703  0.0121 -0.0878 -0.0120
29039W        W44656   2.567   9.377  11.375 -0.1340 -0.1317  0.0924
29040W        W44657  11.779  10.254  12.155 -0.0000  0.2229  0.2428
29041W        W44658  10.856  16.142  13.527  0.0784  0.0592  0.2906
29042W        W44659   8.252   0.181  13.631 -0.1886 -0.1546  0.0239
29043W        W44660   7.069   2.028  11.448 -0.2223  0.0020  0.3080
29044W        W44661   9.366   5.698  14.307  0.2689 -0.2992 -0.4617
29045W        W44662   6.794   7.882  12.491  0.1762 -0.0241 -0.2882
29046W        W44663   9.998   1.414   5.117  0.0438 -0.2748  0.0925
29047W        W44664  11.341   4.487  14.721  0.1632 -0.1274 -0.0481
29048W        W44665  14.309  13.608   6.309  0.1238  0.2895 -0.1864
29049W        W44666  15.939   2.474  16.263 -0.2273 -0.0063  0.1125
29050W        W44667  17.724   7.970   2.246 -0.0754  0.2597 -0.0473
29051W        W44668  11.264  15.672   1.707  0.1536 -0.1916  0.0588
29052W        W44669   3.046   3.874   5.308 -0.1200 -0.0321  0.1034
29053W        W44670   0.360   2.934  13.343 -0.1221  0.0788 -0.2275
29054W        W44671   5.159   1.362   4.807  0.1088 -0.0278 -0.0417
29055W        W44672  14.800   2.658   2.341  0.1431 -0.5320 -0.2081
29056W        W44673   0.155   7.077  14.162 -0.2757  0.1171  0.0139
29057W        W44674   3.213   4.502   5.479 -0.1999  0.2377 -0.4444
29058W        W44675   4.519   6.208   2.144  0.1591  0.0520  0.1438
29059W        W44676  11.948   2.800   4.285  0.3323 -0.1681  0.2315
29060W        W44677  12.878   6.291   3.256 -0.0598  0.0597 -0.2279
29061W        W44678   8.707  17.219  13.626 -0.0521  0.1591  0.4555
29062W        W44679  17.233   4.528   5.333 -0.2166 -0.2256  0.0623
29063W        W44680  13.935  14.187  16.640 -0.0212 -0.2218  0.3093
29064W        W44681  16.467   0.649   5.932  0.1968  0.3995  0.2935
29065W        W44682  11.648   1.222  15.052 -0.1647  0.1144 -0.0569
29066W        W44683   2.297   1.666   0.922  0.0598  0.1077  0.0032
29067W        W44684  11.887   3.002   5.560  0.2520  0.3003  0.1000
29068W        W44685  17.646   3.129  13.796  0.0561 -0.1075 -0.2184
29069W        W44686  10.703  16.914   0.979  0.1661  0.0870 -0.2526
29070W        W44687   2.881  17.865  13.474  0.0812 -0.2066  0.2477
29071W        W44688  15.565  13.614  11.993  0.0248 -0.2369 -0.2983
29072W        W44689  10.545   9.002   0.310  0.1772  0.0030  0.1469
29073W        W44690  16.372  17.292   0.315  0.0553  0.0283  0.3030
29074W        W44691  11.371   7.654   4.900  0.1434 -0.0830  0.0364
29075W        W44692   6.665   2.101  15.835  0.1191  0.0512  0.0534
29076W        W44693   5.917   8.798  14.811  0.0585 -0.2945  0.1387
29077W        W44694  10.954   8.704  11.735 -0.2506 -0.0209  0.0201
29078W        W44695   7.693   3.002  12.648  0.1768 -0.1502 -0.1647
29079W        W44696  15.871  13.713   1.187 -0.0780 -0.1004  0.0220
29080W        W44697   2.409   0.444  14.461 -0.0718 -0.2101  0.1035
29081W        W44698   8.040   6.588  14.429 -0.1779  0.0855 -0.0961
29082W        W44699   5.223   4.819  15.263  0.2369  0.0279  0.0226
29083W        W44700   1.916   3.627  13.887 -0.1855 -0.2324  0.2163
29084W        W44701  10.399  12.734  12.591  0.1554  0.1729  0.0568
29085W        W44702   0.031   2.441  13.105 -0.1729  0.1895 -0.0087
29086W        W44703   4.577   4.354  14.597 -0.0103 -0.1515 -0.0104
29087W        W44704   4.100  17.820   3.860 -0.0667 -0.2097 -0.0778
29088W        W44705  10.188   9.497   9.726  0.2712 -0.0716  0.2471
29089W        W44706   0.912  11.850   2.912  0.2520  0.0419 -0.1274
29090W        W44707  12.935   3.874  15.635  0.0355 -0.0014  0.0278
29091W        W44708   4.896   7.686  14.972 -0.2863 -0.3210  0.1345
29092W        W44709  15.798  11.209  16.496  0.0031  0.1730  0.0262
29093W        W44710  12.033  13.059  14.889  0.1286  0.3453 -0.0632
29094W        W44711   5.845  14.712   4.095  0.1754  0.0846 -0.0601
29095W        W44712  13.782   0.800  15.702  0.1772 -0.0981  0.2672
29096W        W44713  12.510  10.106  13.763 -0.0232  0.0240 -0.0726
29097W        W44714  10.528   9.463   0.575 -0.2536 -0.4851  0.1035
29098W        W44715  13.566   6.712  14.174 -0.2054 -0.2601  0.0575
29099W        W44716   9.565   7.970   4.070  0.0400  0.1843 -0.0548
29100W        W44717   9.711   4.822  11.506  0.1890  0.2126 -0.1056
29101W        W44718   6.264   9.744   3.495 -0.1773  0.0686 -0.1597
29102W        W44719  10.812  14.915  12.087  0.3404  0.2440  0.1832
29103W        W44720   1.434  12.228   3.167  0.0308 -0.4272 -0.0034
29104W        W44721  15.858  11.726  15.295 -0.1940  0.1525  0.3734
29105W        W44722  14.185   7.888  14.083 -0.2331 -0.0454 -0.0310
29106W        W44723   6.795   5.122   5.125  0.4097  0.0738 -0.0481
29107W        W44724  10.934   7.545   5.147  0.0695  0.0206  0.0004
29108W        W44725   7.680  15.647  12.572  0.2401  0.0990 -0.0066
29109W        W44726  10.939  11.883   1.289  0.1445 -0.0149 -0.3358
29110W        W44727  15.847   7.118  15.499 -0.0395  0.2015 -0.2719
29111W        W44728  12.906  12.627   1.820  0.0944 -0.1763  0.0940
29112W        W44729   7.147   6.996  13.246  0.4215  0.1007  0.0074
29113W        W44730  17.318  17.550  14.462 -0.0998  0.1104 -0.0194
29114W        W44731   0.059  12.490   4.022  0.2067 -0.1764 -0.2435
29115W        W44732  12.703  13.282  14.097  0.0556  0.1048  0.5510
29116W        W44733  11.951  14.529   4.957 -0.2901  0.1104  0.1906
29117W        W44734  17.246   1.450   4.537  0.7326 -0.0749 -0.0484
29118W        W44735   9.287  16.277   1.852 -0.4090  0.2015  0.0140
29119W        W44736   7.082  10.642  13.942 -0.1365  0.0945 -0.1278
29120W        W44737   6.317  17.671   2.702 -0.1784 -0.0503 -0.0133
29121W        W44738  10.088  13.304  14.921 -0.0012 -0.2206  0.2127
29122W        W44739  11.187  10.346  13.519  0.2546  0.0346  0.2934
29123W        W44740  14.916  14.217   5.146  0.1298  0.1301  0.2926
29124W        W44741  14.130  11.211  16.393  0.2162 -0.0834  0.1157
29125W        W44742   8.605  17.702  13.584  0.3129 -0.2148  0.0118
29126W        W44743   4.893   8.540   1.928  0.2753  0.3458  0.1783
29127W        W44744  10.624   0.664  12.462 -0.0212  0.2732 -0.0330
29128W        W44745  14.510   4.889  16.298 -0.0962  0.1576 -0.1487
29129W        W44746   9.660  12.031   2.566  0.2961 -0.0973 -0.0977
29130W        W44747   0.945   3.328   1.550 -0.3168  0.1863  0.2261
29131W        W44748   9.162  12.478  13.800 -0.0908  0.1681  0.0551
29132W        W44749  11.593   4.845  12.064 -0.4352 -0.2225 -0.1628
29133W        W44750   8.751   1.671   4.731 -0.1465 -0.0900 -0.1068
29134W        W44751   5.241  17.346   5.996  0.3517  0.1831  0.0950
29135W        W44752   1.637  10.784  15.524  0.1164  0.0932 -0.1348
29136W        W44753   1.427   7.387   3.433  0.1018  0.3269  0.3097
29137W        W44754   3.447  11.117   4.749  0.0901 -0.1206 -0.2181
29138W        W44755  16.415  10.432  12.416  0.1356  0.0768  0.0033
29139W        W44756  13.583   2.819   5.340 -0.0861 -0.1071 -0.3072
29140W        W44757  12.409   9.531  13.837  0.0479 -0.3793  0.0412
29141W        W44758   2.705  11.012   0.069  0.0955 -0.1116 -0.1336
29142W        W44759   8.297   0.461   3.496 -0.3404  0.0062 -0.0754
29143W        W44760   0.454  14.922  15.392 -0.1745 -0.3519 -0.3613
29144W        W44761  14.193   5.787  15.335  0.0020  0.0915  0.0115
29145W        W44762  11.279   5.404  16.740 -0.0704 -0.0881  0.1753
29146W        W44763  13.882  12.110   1.442  0.0508  0.0858  0.1690
29147W        W44764  16.620   9.198   1.533  0.1903  0.0659  0.2337
29148W        W44765   1.973  12.923   1.706 -0.3025  0.3083 -0.0808
29149W        W44766  11.136  15.650   0.311 -0.1400  0.1885  0.1822
29150W        W44767  15.172  13.143   5.625  0.0834  0.3246  0.2985
29151W        W44768   4.727  12.270   3.363 -0.3028  0.1527 -0.2302
29152W        W44769  10.869  10.928  13.421  0.0920 -0.0167  0.2803
29153W        W44770  15.277  17.251   4.238 -0.0107 -0.2908  0.0104
29154W        W44771  14.291  13.070   1.047  0.2609  0.0126  0.0862
29155W        W44772  13.401  16.614   2.866  0.1666  0.2871 -0.1084
29156W        W44773  16.663   0.054   4.133 -0.0538  0.0989 -0.0715
29157W        W44774   1.713  10.333   2.522  0.4334 -0.4208 -0.2244
29158W        W44775   6.485   2.751  15.071 -0.1809  0.3717 -0.0106
29159W        W44776  16.908   5.435   1.284 -0.0941 -0.2958  0.0136
29160W        W44777  13.269   9.766  13.247 -0.2922 -0.0290 -0.0811
29161W        W44778   9.625   7.935   1.390 -0.0099  0.0863 -0.0636
29162W        W44779   8.855   7.834   5.086 -0.1187  0.3432 -0.1084
29163W        W44780  10.275   0.177   1.346  0.1323 -0.6001 -0.1331
29164W        W44781   3.044  17.237   2.076  0.0371  0.2959 -0.1411
29165W        W44782   0.959  11.179  16.235  0.1993  0.2218  0.1298
29166W        W44783  11.500  16.818   2.256  0.3085  0.0145  0.0308
29167W        W44784   7.591   3.340   4.970  0.0031  0.1600  0.2050
29168W        W44785   3.986   3.000  15.025  0.1077 -0.0162 -0.0588
29169W        W44786  17.950   9.164  15.940 -0.1897 -0.2341 -0.0074
29170W        W44787   7.054   0.867   3.330  0.1431 -0.1983 -0.3375
29171W        W44788   0.836  10.498   2.181  0.2407  0.0139 -0.1431
29172W        W44789  15.628   0.646  11.911 -0.0079 -0.0179  0.0741
29173W        W44790   9.883  16.889  14.710  0.0134  0.0117  0.1014
29174W        W44791  17.145   7.427   2.627  0.1488 -0.3789 -0.3441
29175W        W44792   8.289  16.504   5.452  0.1910 -0.1989  0.2953
29176W        W44793  10.548  10.051   3.797  0.0164  0.2662 -0.1035
29177W        W44794   4.132  12.691   4.835 -0.1178  0.1192 -0.0705
29178W        W44795   9.768   5.474   3.573 -0.2428 -0.2052  0.1342
29179W        W44796   4.420   7.700   5.677  0.0365  0.1865  0.0959
29180W        W44797  14.893   4.585   3.563 -0.2953  0.0148 -0.2475
29181W        W44798   3.121  15.339   0.726  0.0728  0.0295 -0.1708
29182W        W44799  14.397   7.037  14.177  0.1463 -0.0680  0.3534
29183W        W44800   5.596   4.899  14.958  0.0890 -0.1513 -0.0221
29184W        W44801  13.934   3.469   0.309  0.0259  0.0596 -0.0471
29185W        W44802   7.961   6.057  16.309  0.4304 -0.1035  0.2854
29186W        W44803   4.245  11.550   5.531  0.0574 -0.0245 -0.0423
29187W        W44804   3.136   5.668  11.193  0.4413 -0.0541  0.2313
29188W        W44805   8.555   9.354   2.728  0.0580  0.0961  0.0649
29189W        W44806  13.887   7.984  14.468 -0.1127  0.2484  0.0577
29190W        W44807   2.485   6.680   2.351 -0.2236  0.0737 -0.0182
29191W        W44808  12.703  10.013  12.054  0.0062  0.0176  0.1350
29192W        W44809  15.745  13.944   5.627  0.0656 -0.0921 -0.2241
29193W        W44810   1.022  11.319   3.082 -0.0452  0.2951  0.2403
29194W        W44811   1.773  17.313  15.479  0.4323 -0.1533 -0.2121
29195W        W44812  16.772   3.306  16.455 -0.2834  0.0911 -0.3091
29196W        W44813   3.684  14.997   1.572  0.0418  0.2305  0.1759
29197W        W44814   7.472   4.670  14.690 -0.1368 -0.4776 -0.1961
29198W        W44815  14.832  17.529  13.586 -0.2939 -0.0500  0.2367
29199W        W44816   1.745  11.812   3.445  0.2024  0.1197 -0.0269
29200W        W44817  17.028  13.628   2.413 -0.1840  0.1237  0.1300
29201W        W44818  15.143  16.609   2.661 -0.3266 -0.0539 -0.0046
29202W        W44819  11.224  12.185   5.488 -0.3009 -0.1042 -0.0486
29203W        W44820  13.204  15.175   3.176 -0.2723  0.1125 -0.2007
29204W        W44821   7.084   4.909   1.500 -0.1620 -0.1188  0.2155
29205W        W44822   2.375   5.633   4.848  0.0991 -0.1920  0.1653
29206W        W44823   7.399  11.524   4.549 -0.0603 -0.5554 -0.0876
29207W        W44824   5.235  14.957   2.596  0.0011 -0.0787 -0.0313
29208W        W44825  16.323   8.477  14.537 -0.2051 -0.3602 -0.1660
29209W        W44826  17.202   0.944   4.744  0.1625 -0.3027 -0.0984
29210W        W44827  14.581  14.614   5.066  0.0563 -0.0180 -0.1356
29211W        W44828   4.708   8.920  12.049 -0.0787 -0.1422 -0.0334
29212W        W44829   9.735  16.268   4.793 -0.3813 -0.0938  0.1482
29213W        W44830  12.681  12.472  15.612  0.2710 -0.0946  0.1761
29214W        W44831   3.952   9.459   1.421  0.0470  0.0511 -0.0828
29215W        W44832  11.722  16.476  14.670 -0.1127  0.2320  0.0184
29216W        W44833   1.104   4.671   0.963  0.0303 -0.1878  0.0474
29217W        W44834  10.768  10.505   3.678  0.2400  0.0667  0.0789
29218W        W44835   1.233   0.028   0.312 -0.1181 -0.3225  0.2960
29219W        W44836   3.765   2.898   0.832 -0.2187 -0.4612  0.0400
29220W        W44837   2.697   0.875   4.884  0.1839  0.0679 -0.0600
29221W        W44838   8.041   1.792  14.418  0.0430  0.1316  0.2846
29222W        W44839  13.793   9.447   2.017 -0.3571 -0.1654  0.1658
29223W        W44840   2.811   8.460   5.861  0.1687 -0.1212 -0.0090
29224W        W44841  16.054   0.218   3.865 -0.2753  0.0203 -0.1371
29225W        W44842   5.207  17.546  11.260 -0.0278  0.1137  0.1951
29226W        W44843  11.566  14.311  16.183  0.1069 -0.0482  0.0417
29227W        W44844  17.654   8.388  15.754 -0.4218  0.0767 -0.1052
29228W        W44845  15.034   7.737   0.225  0.0752  0.1061  0.0222
29229W        W44846  17.153   7.385  14.798  0.1882 -0.0482  0.1509
29230W        W44847  14.572  16.642   0.352  0.0473 -0.2205  0.2943
29231W        W44848   8.767  15.382  13.701  0.1355 -0.0125 -0.2222
29232W        W44849  14.895   5.743   5.644 -0.0244  0.4841 -0.0057
29233W        W44850   4.477  15.517  13.775 -0.1890  0.0842 -0.2541
29234W        W44851  16.665  15.112  13.249  0.1048  0.0907  0.2886
29235W        W44852   4.735  14.461  16.071  0.0821 -0.1603 -0.0820
29236W        W44853  11.369  12.327  11.207  0.2693 -0.3202  0.4063
29237W        W44854  12.657   1.353   3.265 -0.2153 -0.0379  0.1253
29238W        W44855  12.438  12.501   1.961  0.1298 -0.1233  0.1517
29239W        W44856   2.233  17.419   5.411  0.0350  0.0977  0.1441
29240W        W44857  16.788   9.241   3.401 -0.2560 -0.2050  0.1796
29241W        W44858  15.022   3.424   6.996  0.3938 -0.1139 -0.1221
29242W        W44859  16.991   3.296  12.593 -0.0391 -0.1184  0.0623
29243W        W44860   4.543  15.784  15.073  0.0405 -0.0794  0.1065
29244W        W44861   0.876   5.503  12.424  0.1010  0.1197  0.1819
29245W        W44862  16.680  15.187  15.940  0.3110 -0.2076 -0.0136
29246W        W44863  10.090  15.357  14.069  0.0348 -0.2513 -0.1152
29247W        W44864  12.565   5.937   4.708 -0.0853 -0.0561 -0.0873
29248W        W44865   4.176   4.459   2.637  0.0513 -0.0331 -0.0191
29249W        W44866   0.425   0.747   4.460  0.1469 -0.0484 -0.0274
29250W        W44867   5.988  16.529   5.378 -0.5832  0.1906  0.1468
29251W        W44868  13.883   8.414   1.736 -0.1076 -0.0189 -0.1933
29252W        W44869  10.131  14.343   2.637 -0.0502  0.0978 -0.2105
29253W        W44870   5.899   7.398   1.901  0.0542  0.1688 -0.0908
29254W        W44871   0.313  12.240   2.613 -0.1209 -0.0175  0.0709
29255W        W44872   6.010   5.809  11.884 -0.3860 -0.0747 -0.1818
29256W        W44873  15.867   1.154   4.715  0.0873 -0.0942  0.0087
29257W        W44874  17.351   8.217   3.724  0.0931  0.3257  0.1493
29258W        W44875   5.665   1.565  11.978  0.1660  0.2703 -0.2351
29259W        W44876  17.309   6.726  12.476  0.1809  0.1468  0.2018
29260W        W44877  17.470  14.602  13.848 -0.1459 -0.1672  0.0142
29261W        W44878  13.401   8.108   3.008  0.0265  0.1859 -0.0534
29262W        W44879  13.657  13.243  12.623 -0.0721 -0.2544  0.0443
29263W        W44880   5.410   9.958   6.238  0.0102  0.0631 -0.3443
29264W        W44881   0.326   7.726  13.462 -0.1707 -0.1106 -0.1099
29265W        W44882  13.822   2.876   0.038 -0.2369 -0.2201 -0.3182
29266W        W44883   3.474   1.307  15.601  0.0897 -0.0152 -0.1383
29267W        W44884   2.228  16.591  13.395 -0.2638 -0.1327  0.0591
29268W        W44885   2.489   1.083   2.887  0.0055 -0.0157  0.1570
29269W        W44886   0.758  16.195  12.788  0.0831 -0.1367 -0.0381
29270W        W44887   4.976   7.843   3.661 -0.0236  0.2768 -0.2814
29271W        W44888  12.854   3.515   4.038 -0.2347 -0.5397 -0.3486
29272W        W44889   6.815   7.636   3.061 -0.0568 -0.0869  0.4443
29273W        W44890   6.092   1.130   3.012 -0.0415 -0.2601  0.1220
29274W        W44891   2.952   5.282  14.116  0.0228  0.0773  0.0637
29275W        W44892   0.348  10.542  11.806  0.0370 -0.0142  0.0993
29276W        W44893  12.367   3.921   5.469 -0.0960  0.2191 -0.0341
29277W        W44894  14.603   0.680   5.182 -0.0032  0.0489 -0.3823
29278W        W44895   3.061  11.903   1.232  0.0429  0.2395 -0.0942
29279W        W44896  10.188   6.936  12.920 -0.0796 -0.2209 -0.2053
29280W        W44897  13.441   0.334   4.991  0.0695  0.3041  0.0187
29281W        W44898   1.839   0.166  16.412 -0.3141  0.1654 -0.0258
29282W        W44899  17.490  10.757   2.010  0.3353 -0.0943  0.0159
29283W        W44900  17.466  11.018   3.131 -0.1829 -0.0008  0.2645
29284W        W44901  10.249  11.610   3.809  0.1383  0.1319 -0.1774
29285W        W44902  14.761   3.073  15.153  0.0318 -0.3285 -0.2549
29286W        W44903   6.485  17.425  11.595 -0.1004  0.0002 -0.0451
29287W        W44904   4.918  11.038  15.383 -0.2002 -0.2021 -0.3698
29288W        W44905  15.075   9.228   0.495 -0.1388  0.1721  0.1234
29289W        W44906   3.813  13.750   4.628  0.0965  0.1530 -0.0792
29290W        W44907  13.237  10.767   3.785  0.0218 -0.0189  0.1191
29291W        W44908  11.461   5.591  12.568 -0.1464  0.3835  0.2225
29292W        W44909   2.164   4.331   4.506  0.4474 -0.0156  0.0881
29293W        W44910   0.531  14.997  14.026 -0.2787 -0.0719 -0.0900
29294W        W44911  14.877  16.074   3.688  0.0173  0.0101 -0.0841
29295W        W44912  11.874  11.413  13.314 -0.0423  0.0891  0.1588
29296W        W44913   6.139  13.465  13.402  0.1906  0.0965 -0.0266
29297W        W44914  11.275  13.867   2.288  0.0567  0.1576 -0.1134
29298W        W44915   9.772  11.535  12.741  0.0209  0.0241 -0.1874
29299W        W44916  10.249   7.369  15.520 -0.0188 -0.0786  0.5490
29300W        W44917  10.689   0.116   3.193  0.1523  0.0123  0.1717
29301W        W44918  13.377  14.111   3.417 -0.0404  0.0834 -0.1569
29302W        W44919  10.010   5.648   5.119  0.0377 -0.0623  0.1827
29303W        W44920   5.936  17.353   2.517  0.0332  0.1486  0.2882
29304W        W44921  14.190  16.567  13.658  0.3105  0.1375  0.3695
29305W        W44922  12.755   5.476   1.547 -0.2866 -0.1508 -0.2045
29306W        W44923  13.298  13.733   4.227 -0.0140  0.1153  0.1224
29307W        W44924  17.320   8.613  13.637 -0.1961 -0.0704  0.0155
29308W        W44925   0.625   5.395  11.974  0.1621  0.0731 -0.1735
29309W        W44926   5.681   4.911  11.992  0.0920 -0.2991  0.0079
29310W        W44927   5.831   7.102   2.293 -0.1915 -0.0700 -0.0977
29311W        W44928   0.663   8.023   0.972  0.1815  0.3750  0.1652
29312W        W44929   5.768  17.498   5.412 -0.0186 -0.3086 -0.0121
29313W        W44930   7.722   6.032  13.369  0.0981  0.4511  0.0607
29314W        W44931   2.248  17.189  11.970 -0.1120  0.3227 -0.0415
29315W        W44932  15.343   7.609  12.662  0.1195 -0.0318  0.0552
29316W        W44933  10.289  10.623  16.063  0.1220 -0.0663 -0.1635
29317W        W44934  10.666  15.362  14.892  0.0716 -0.1620  0.0560
29318W        W44935  10.919   5.437   3.888  0.0484 -0.1580  0.2295
29319W        W44936  14.099  13.254   2.514  0.0701 -0.0675 -0.2061
29320W        W44937  12.640  10.289  14.322 -0.2379  0.1077 -0.0569
29321W        W44938  17.173  12.094  13.685  0.0066  0.1789  0.0970
29322W        W44939  12.036  12.838   3.201 -0.2458 -0.0573 -0.1380
29323W        W44940   5.439   9.120   0.612 -0.1739 -0.0750  0.2501
29324W        W44941   3.027   8.519   4.317 -0.1315 -0.1810  0.2685
29325W        W44942  14.485  12.880  11.996 -0.1001 -0.3077 -0.2165
29326W        W44943  12.981   5.400  12.338  0.3161  0.0848  0.0225
29327W        W44944  16.417  16.856   0.711  0.3082 -0.4070  0.0970
29328W        W44945   1.143   1.561  12.528 -0.0491  0.2582 -0.1480
29329W        W44946   9.854  17.401  16.592 -0.0269 -0.0752 -0.0561
29330W        W44947  12.104  10.196  14.577  0.0466 -0.3168 -0.1085
29331W        W44948   4.991  14.603   1.251  0.2082 -0.0487 -0.2643
29332W        W44949  16.785   6.517   2.418  0.0058  0.1232 -0.0277
29333W        W44950  11.859  10.522   1.859  0.1299 -0.1553  0.3519
29334W        W44951  16.995   8.823   5.851  0.1667  0.0434  0.0891
29335W        W44952   6.250   0.165  14.104  0.2821  0.1501  0.2393
29336W        W44953  12.873  14.257   4.633  0.0292  0.0623 -0.1840
29337W        W44954  13.121  12.070  11.656 -0.1440 -0.1590 -0.3146
29338W        W44955   8.615  14.350   0.610  0.1037  0.0746 -0.0538
29339W        W44956   9.140  13.485   4.818 -0.1142 -0.1301 -0.1734
29340W        W44957   2.745   8.782  12.530  0.1938  0.1316  0.1767
29341W        W44958   5.469   2.300  13.042 -0.4182 -0.3254 -0.0674
29342W        W44959   9.712  11.225   1.888 -0.1318  0.1301  0.4269
29343W        W44960  16.754   3.870  12.010  0.0308  0.0033  0.0345
29344W        W44961  12.131   1.380   3.292  0.0767 -0.2194 -0.0141
29345W        W44962  16.059   1.859   3.264 -0.1189 -0.4588  0.2116
29346W        W44963  11.014   7.847  14.914  0.1468 -0.1897 -0.2265
29347W        W44964   5.918  17.528   0.057  0.1531  0.1570  0.2291
29348W        W44965  17.553   4.270  14.613  0.2860 -0.0692  0.3842
29349W        W44966   1.190   4.871   1.890  0.0551 -0.1028  0.1362
29350W        W44967   8.510  15.252  14.136 -0.1330  0.3563  0.3225
29351W        W44968   3.319  14.021  13.129  0.0967 -0.1637  0.0082
29352W        W44969   0.221   6.901   4.993 -0.0078  0.0238  0.0368
29353W        W44970   7.890   6.168  14.679  0.1181  0.0725  0.2632
29354W        W44971  14.038  12.962   4.757  0.0206  0.0417  0.0077
29355W        W44972  17.344   9.869   3.099 -0.1563  0.1668  0.2001
29356W        W44973  12.129  11.941  11.470  0.1204  0.0099  0.2017
29357W        W44974  15.459  17.585   0.134  0.0974 -0.1372 -0.1709
29358W        W44975   9.167  15.592  11.418  0.1146 -0.0071  0.0957
29359W        W44976  15.624  12.025  12.271  0.1267  0.0939  0.2045
29360W        W44977   1.588   5.718  13.066 -0.1285  0.1795 -0.3677
29361W        W44978  15.515  17.744  11.796  0.0745 -0.0069  0.0340
29362W        W44979  10.682  14.033  15.230 -0.1494  0.1963 -0.1492
29363W        W44980  11.794   7.695  14.449 -0.0498 -0.2778 -0.1850
29364W        W44981  16.962  14.795  13.795  0.1885 -0.3752  0.4850
29365W        W44982   8.992  10.677  15.619  0.4262  0.0569  0.3607
29366W        W44983   4.306  10.399   3.701  0.1779  0.1451 -0.5515
29367W        W44984   3.714   8.062   0.412 -0.0598  0.4757  0.1419
29368W        W44985  12.334  16.671   5.253 -0.1162  0.0272 -0.0972
29369W        W44986   5.778  11.470   1.057 -0.0355  0.3221  0.0030
29370W        W44987  17.125   2.038   2.168 -0.2300  0.0867  0.1365
29371W        W44988  10.336   4.879  12.839  0.3481  0.3589 -0.1136
29372W        W44989  14.905   1.438   2.896 -0.0819  0.2516 -0.1087
29373W        W44990  14.183  17.779  15.286 -0.1721 -0.1936  0.1090
29374W        W44991   7.256  17.276   3.987 -0.0218  0.1265 -0.3138
29375W        W44992  11.112  14.956   4.375 -0.1064  0.0864  0.1688
29376W        W44993   9.646   4.532   2.122  0.0964  0.1238 -0.1383
29377W        W44994   4.007  11.029   1.205 -0.1164 -0.2013 -0.0530
29378W        W44995   6.837   4.050   1.234  0.1451  0.0339  0.0378
29379W        W44996  16.319  11.674   4.312  0.0983 -0.0122  0.1383
29380W        W44997   5.622  11.687  14.456  0.4922  0.2560 -0.1528
29381W        W44998  13.351   2.663   4.920 -0.1654 -0.0316  0.1082
29382W        W44999   6.767  11.441  13.040  0.1653  0.0362  0.0115
29383W        W45000  14.075  12.482   3.817 -0.0657 -0.1618 -0.2265
29384W        W45001  14.856   4.009   0.010  0.0893 -0.1267 -0.0016
29385W        W45002   9.217  13.808   4.411  0.1615  0.0110  0.2657
29386W        W45003   9.369  17.783  14.553 -0.3016 -0.0692 -0.2326
29387W        W45004   5.528   9.289  14.733  0.1361 -0.2022 -0.1804
29388W        W45005  17.559   8.170   3.145 -0.1501 -0.2848 -0.0337
29389W        W45006   6.242  15.160   0.927 -0.0422 -0.3477  0.0119
29390W        W45007   2.449   0.135   2.894  0.2081  0.1658  0.0218
29391W        W45008   6.128   5.391   0.690  0.2250 -0.2907  0.2693
29392W        W45009   4.111  16.174  13.642 -0.0496 -0.3147 -0.0536
29393W        W45010  10.558   5.473   0.799  0.2599 -0.0954 -0.1118
29394W        W45011  10.832  14.064  13.830 -0.0909 -0.0146  0.3325
29395W        W45012   1.081  12.148   0.471  0.1191  0.1121  0.2717
29396W        W45013   7.449   4.041  13.448  0.2072  0.1769  0.1102
29397W        W45014   1.875   2.778   5.807  0.1330  0.0253  0.0144
29398W        W45015   1.280  15.037   3.493 -0.1614  0.0249  0.1302
29399W        W45016  17.539  12.479  13.134 -0.1948  0.1358 -0.0294
29400W        W45017   6.381   6.098  14.029 -0.0042 -0.0500 -0.3490
29401W        W45018  10.842   2.312   0.930 -0.1610 -0.1842  0.3747
29402W        W45019   1.448   3.800  14.666  0.1026  0.1591 -0.1345
29403W        W45020   1.279   4.546  13.718 -0.2214 -0.3804 -0.3341
29404W        W45021  14.639  17.334   0.685 -0.0169 -0.0831  0.2109
29405W        W45022   3.874  16.632   3.030  0.0013 -0.0631 -0.1317
29406W        W45023  13.433  11.532  13.331  0.2154 -0.1179  0.0135
29407W        W45024  15.386  10.808  12.904  0.0658 -0.0232  0.1457
29408W        W45025  16.702  14.071  13.461 -0.1123 -0.0757 -0.1682
29409W        W45026  11.922  11.246  15.822 -0.1965 -0.1163 -0.1544
29410W        W45027  10.963  13.397   2.681 -0.0074  0.2198  0.2041
29411W        W45028   0.076   4.111   2.555  0.0919 -0.2310  0.1372
29412W        W45029  12.389   3.041   5.578  0.0844 -0.2143 -0.3184
29413W        W45030   4.011   8.395   5.299  0.1797 -0.0091 -0.2195
29414W        W45031  16.074   2.685  16.745 -0.0182 -0.3928 -0.1850
29415W        W45032  10.373  14.291  12.566  0.1987  0.1097 -0.1260
29416W        W45033  16.195  12.991  15.792  0.2277 -0.0089 -0.0807
29417W        W45034   0.010   1.909  15.429 -0.1833 -0.1176  0.0803
29418W        W45035   9.322   7.827   5.308  0.0798  0.1077  0.3050
29419W        W45036   1.911   9.334  16.430  0.2127 -0.1489 -0.0568
29420W        W45037  10.024   6.309  12.343 -0.1174 -0.1382 -0.1190
29421W        W45038   1.404   6.158   5.540 -0.4006  0.0380 -0.0416
29422W        W45039   1.272  11.968   2.606  0.0128 -0.2232 -0.0650
29423W        W45040  11.156  16.210   6.196 -0.1378  0.2306 -0.1235
29424W        W45041  11.731  12.157   2.635  0.3695 -0.1489 -0.1342
29425W        W45042   2.760   1.445  12.402  0.3348 -0.0701 -0.2176
29426W        W45043   9.475   5.815   6.493  0.1115 -0.0342 -0.0170
29427W        W45044  14.961  10.652   3.037 -0.1484  0.3054 -0.1247
29428W        W45045   0.465   4.657  12.740 -0.4578 -0.1835 -0.1075
29429W        W45046   0.339   2.241  14.528  0.0218  0.4045 -0.2392
29430W        W45047  14.810   6.405  16.396  0.3474 -0.1473  0.0131
29431W        W45048  14.788  15.774   0.275 -0.1646 -0.0123  0.0842
29432W        W45049  11.492   9.225   3.860  0.0101  0.1331 -0.2061
29433W        W45050  10.063  10.122  11.280  0.3555  0.3585  0.2852
29434W        W45051  18.024  11.840  15.143  0.3061 -0.3697  0.0697
29435W        W45052   0.850  17.154  12.851 -0.2032 -0.1768 -0.2216
29436W        W45053   0.870   5.930  16.151 -0.0421  0.3154 -0.2843
29437W        W45054  13.862   9.166  11.778  0.0739  0.3055 -0.0792
29438W        W45055   8.411  12.293   2.789 -0.2665 -0.0292  0.1626
29439W        W45056  10.100  12.480  12.251 -0.1288 -0.0318 -0.1520
29440W        W45057  17.166  10.944   4.943  0.1252  0.0223 -0.0679
29441W        W45058   5.889  17.590   2.993 -0.1006  0.1788  0.0042
29442W        W45059   5.837  10.261  13.412  0.0722  0.0842 -0.1667
29443W        W45060   9.048   2.749  14.496 -0.0513  0.1094 -0.2326
29444W        W45061  16.984  16.304   1.808 -0.1999  0.3169 -0.1000
29445W        W45062  16.915   1.599   3.722 -0.1993 -0.1638 -0.0600
29446W        W45063   4.615   8.884  15.774  0.0147  0.1605  0.0650
29447W        W45064   6.936   0.143   5.414  0.0477  0.2558  0.0241
29448W        W45065  11.422  12.403   1.337  0.2023  0.1429 -0.1606
29449W        W45066  15.254  11.737   5.832 -0.0863  0.1217 -0.2082
29450W        W45067  17.872   9.266   3.197 -0.0555  0.0421 -0.2584
29451W        W45068   1.072   3.160   3.841 -0.1957  0.2209 -0.0026
29452W        W45069  12.835   4.081   0.419  0.1059 -0.1077  0.1562
29453W        W45070   7.648  10.612   1.163 -0.0799 -0.0816  0.0097
29454W        W45071  15.498  17.875  14.405 -0.0599  0.3297  0.4283
29455W        W45072  14.600  11.049  14.161 -0.0297  0.0332  0.0093
29456W        W45073  11.087   6.056  13.332 -0.3047 -0.0823  0.0358
29457W        W45074   5.523   6.889   4.418  0.1221 -0.1954  0.0657
29458W        W45075  13.788   5.785   3.033  0.0255  0.1750 -0.1753
29459W        W45076   3.723   9.896  16.342 -0.0456 -0.1946 -0.0072
29460W        W45077   6.274  13.950  11.521  0.1117  0.1711  0.0416
29461W        W45078   0.281  11.935  14.712  0.0131  0.1361  0.0429
29462W        W45079   2.880   4.895   1.612 -0.0584  0.2007  0.3046
29463W        W45080  15.958  13.381   5.752  0.0713 -0.0457  0.4012
29464W        W45081   0.440  15.979   0.085 -0.1250 -0.2128  0.1046
29465W        W45082   9.558   0.431  11.658  0.1479 -0.0541 -0.2095
29466W        W45083   8.632   9.458  15.906  0.1773 -0.1916 -0.2223
29467W        W45084   8.689   3.040  14.656 -0.0550  0.2188  0.0934
29468W        W45085  15.392   0.774   1.491 -0.0389  0.2830  0.3372
29469W        W45086  16.916   4.450  13.978 -0.0181  0.2394  0.3234
29470W        W45087  12.867  16.596  11.893  0.2385 -0.2234  0.0430
29471W        W45088   9.978  10.786   9.873 -0.0246 -0.1733  0.1449
29472W        W45089   8.443  10.971   4.071  0.1596 -0.0858 -0.0497
29473W        W45090  12.811   5.976   1.769  0.3046  0.0577 -0.1005
29474W        W45091  17.515  17.284  16.465 -0.2154 -0.1455  0.3245
29475W        W45092   0.767   8.028   0.206  0.0929  0.1427  0.3056
29476W        W45093   3.280  11.025   3.376 -0.1811  0.1789  0.4019
29477W        W45094  13.388   6.152   5.722  0.1237  0.1049  0.0524
29478W        W45095   1.478  15.528   0.867 -0.0543  0.1685  0.2101
29479W        W45096  10.077   7.972  14.827 -0.0336  0.3204  0.0781
29480W        W45097  17.034   9.486  15.153 -0.0933 -0.0443  0.1744
29481W        W45098   0.456  13.588   3.850 -0.0021  0.2803 -0.1482
29482W        W45099   8.557  11.627  13.938  0.1204  0.0753  0.1539
29483W        W45100  13.878   1.363  15.118 -0.0720  0.0918 -0.1358
29484W        W45101  12.431   5.895   6.552  0.1081  0.3785  0.4520
29485W        W45102   8.667  17.169  12.718 -0.0004  0.0438  0.1420
29486W        W45103  17.964   8.697  14.548  0.4558 -0.1278  0.5316
29487W        W45104  15.067   3.612   2.903  0.1399  0.4966 -0.1432
29488W        W45105  11.845  15.933   0.864 -0.3462  0.0528  0.0765
29489W        W45106   2.550   4.878   2.071  0.1345 -0.2804 -0.1529
29490W        W45107   7.664   1.104  14.916  0.3833  0.2578  0.1226
29491W        W45108   7.193   8.949  15.753 -0.0985  0.1499 -0.2475
29492W        W45109   7.845  13.084   4.330 -0.3948  0.0409 -0.1828
29493W        W45110  11.474   8.157   3.650 -0.1234  0.0523  0.0192
29494W        W45111  15.697   1.168   3.287 -0.1595 -0.3938 -0.0127
29495W        W45112   5.056  14.065   4.767  0.0443 -0.0718  0.4583
29496W        W45113   6.311   6.881   1.081  0.1228  0.1617  0.0846
29497W        W45114  18.046   6.371  15.891  0.1371 -0.1208 -0.2000
29498W        W45115  17.591   0.603   4.885  0.2308  0.0068 -0.0879
29499W        W45116  10.990  14.168   4.777 -0.2512 -0.2695  0.2823
29500W        W45117  12.411   4.900   2.870 -0.2440 -0.0900  0.3452
29501W        W45118   8.468   8.354   2.115  0.1508  0.0299 -0.0423
29502W        W45119   1.129   8.710   0.730  0.0553 -0.1720  0.0756
29503W        W45120   8.189   0.027  16.564 -0.0570  0.1054  0.3078
29504W        W45121  17.454  15.033  12.703 -0.0180  0.2258  0.3366
29505W        W45122  17.296  16.425   4.638 -0.1159 -0.0014 -0.1282
29506W        W45123   1.359   2.161   3.752 -0.1127  0.0506  0.1567
29507W        W45124   4.099  17.169   4.952  0.2136 -0.1860 -0.1011
29508W        W45125  15.966   8.831   4.420 -0.5758  0.0058  0.1259
29509W        W45126  11.040  10.163   5.884 -0.2305 -0.2282 -0.0528
29510W        W45127  15.742   5.498   0.337  0.1272 -0.3581  0.1914
29511W        W45128  11.960   2.810   0.418 -0.4109  0.0733  0.0412
29512W        W45129   4.506  10.918  15.653  0.1108 -0.0627  0.1253
29513W        W45130   4.563  13.252   2.941  0.2591  0.0650 -0.1113
29514W        W45131   8.337   5.947   5.494 -0.1209  0.2014  0.1006
29515W        W45132  16.898   6.816   0.722  0.1830  0.1705  0.0607
29516W        W45133   8.216   0.151   3.052  0.1182  0.0140  0.4611
29517W        W45134  17.785  15.244   4.791  0.2559  0.2141  0.2082
29518W        W45135  10.063   5.843   2.978 -0.0586 -0.0530  0.3701
29519W        W45136   4.439   3.471  13.789  0.0403 -0.1938  0.2718
29520W        W45137  17.446   3.087  12.850 -0.0042  0.0684 -0.0642
29521W        W45138  17.958  11.386   1.518 -0.0207 -0.0827  0.2080
29522W        W45139   7.916   5.529   4.071  0.2283 -0.1195 -0.0366
29523W        W45140  16.386  15.830  11.989  0.0558  0.2670 -0.1047
29524W        W45141   8.696   0.476   1.636  0.1583  0.3865 -0.1065
29525W        W45142   1.538  11.957   3.949  0.2191  0.2978  0.0261
29526W        W45143   3.047  14.970  16.576 -0.0848  0.1893 -0.1617
29527W        W45144   5.025   0.073   1.753 -0.2789 -0.3013  0.2731
29528W        W45145  11.513  12.009  12.318  0.1032 -0.0957 -0.0021
29529W        W45146   2.394   7.758   3.642 -0.1389 -0.4944  0.0046
29530W        W45147   3.137  14.632   3.775  0.0385  0.1843  0.1852
29531W        W45148   0.925   1.185  15.405 -0.2051 -0.1067 -0.1299
29532W        W45149   8.975   4.202  15.218 -0.0130 -0.0782  0.2673
29533W        W45150   3.267  13.425   4.951  0.0136 -0.0471 -0.0785
29534W        W45151   6.074  17.831  15.897 -0.1360 -0.0727 -0.0756
29535W        W45152  14.712  10.961  12.153 -0.2992  0.2138 -0.1203
29536W        W45153   0.835  17.623   3.101 -0.0401  0.1358  0.0826
29537W        W45154  15.638  11.745   5.337  0.2521  0.0975  0.0066
29538W        W45155   1.804  17.456  12.049  0.3495  0.3397 -0.1077
29539W        W45156  17.834   2.817  14.754 -0.0076  0.0225 -0.1171
29540W        W45157   0.883  15.393   5.169 -0.1864  0.0162 -0.3243
29541W        W45158  16.701   9.367   4.366 -0.1819 -0.1001 -0.0392
29542W        W45159  13.914   0.435  14.499  0.1557 -0.2013 -0.2431
29543W        W45160   8.812   5.570   1.619 -0.1802 -0.1044  0.1250
29544W        W45161   0.690  14.234   4.393 -0.0188  0.1490  0.0855
29545W        W45162  12.085  11.818  12.748  0.0282 -0.5794 -0.1304
29546W        W45163  11.255   3.010   2.160 -0.0444  0.1460 -0.2448
29547W        W45164   1.256   7.034  16.178  0.4856  0.0241 -0.1060
29548W        W45165   8.205  10.529  16.211 -0.0268 -0.2323  0.0824
29549W        W45166  10.610   8.668  14.882  0.2432  0.0719 -0.3254
29550W        W45167  11.681   5.352   2.296  0.1150 -0.1578  0.1325
29551W        W45168  14.521  17.941  11.957 -0.1823  0.2268 -0.3755
29552W        W45169  17.544   4.444  14.116 -0.0902 -0.1367  0.1072
29553W        W45170   0.540   1.507   6.212 -0.2013 -0.1364  0.1757
29554W        W45171   5.111  14.198   3.829  0.0759  0.3739 -0.0427
29555W        W45172  15.452   4.646  15.612  0.1903 -0.2413 -0.2175
29556W        W45173   0.354  15.630   1.926 -0.0266 -0.1287 -0.1697
29557W        W45174  15.319  17.708   3.861 -0.0712 -0.2998 -0.4156
29558W        W45175   2.725  13.959   3.590 -0.1774 -0.1379 -0.2000
29559W        W45176   0.753  14.107   2.234  0.1449 -0.3866  0.1662
29560W        W45177   8.132  13.719   4.866  0.2211 -0.0707 -0.1322
29561W        W45178   6.438   8.433   1.497 -0.3476 -0.0219 -0.0692
29562W        W45179  16.356   7.410   6.242 -0.0080  0.0534 -0.1001
29563W        W45180  17.704   2.172   2.651  0.0146 -0.3070 -0.1438
29564W        W45181   0.129   5.353   2.701  0.1063  0.2042 -0.0976
29565W        W45182   7.941   6.275   3.396  0.0097 -0.1730  0.4232
29566W        W45183  11.669   7.874   1.471 -0.1344 -0.1499 -0.2705
29567W        W45184  14.964  16.178   5.806 -0.0934  0.3138 -0.1494
29568W        W45185   8.730   8.479   3.049  0.3137 -0.0052  0.2914
29569W        W45186  10.887   1.479  11.502  0.1484  0.0872 -0.0890
29570W        W45187  13.816   7.894  15.519  0.0775 -0.0355  0.2842
29571W        W45188  11.964  17.854   1.709 -0.0033 -0.0612 -0.0019
29572W        W45189  11.973   4.869  12.799  0.1769  0.0316 -0.0444
29573W        W45190  13.655   1.290   1.329  0.1704  0.1555  0.1227
29574W        W45191   7.724  12.400  14.479 -0.0390  0.0797 -0.0727
29575W        W45192   9.323   2.688  15.194  0.0953 -0.1593 -0.1113
29576W        W45193  13.028   0.488  14.856 -0.1876 -0.1750  0.3724
29577W        W45194  16.623   0.684   1.318  0.1210  0.0448 -0.1251
29578W        W45195   2.418   4.987   0.910 -0.0736  0.0025  0.0952
29579W        W45196   7.532  10.138  16.513 -0.2197  0.0095 -0.3425
29580W        W45197   9.624  13.400   1.185 -0.3447 -0.1275 -0.0099
29581W        W45198  17.359   1.575  14.057  0.0962  0.1740 -0.0502
29582W        W45199   8.369   3.079   5.269  0.0271 -0.2252 -0.3428
29583W        W45200  15.883   9.322   0.853  0.0300 -0.2531 -0.2797
29584W        W45201   5.972  15.211  16.426 -0.0063 -0.2465 -0.1327
29585W        W45202  11.972   7.826   2.895 -0.1215  0.1780  0.3361
29586W        W45203  15.976   2.254   0.205 -0.0380 -0.1203  0.2451
29587W        W45204  11.511   1.601   5.385  0.2683 -0.2413 -0.2170
29588W        W45205   0.250  16.608   1.272  0.1903  0.1261 -0.0311
29589W        W45206   0.821  12.409   5.090 -0.2394 -0.2280 -0.1167
29590W        W45207   4.283  12.050  13.894  0.1725  0.2123 -0.1910
29591W        W45208   2.175   3.574  15.182 -0.1576  0.0940  0.3961
29592W        W45209  10.714   9.241  16.620  0.0002  0.1442 -0.0358
29593W        W45210  10.819  17.360   4.182 -0.1198 -0.1948  0.2200
29594W        W45211   6.302  17.977  12.395 -0.0616  0.0650 -0.1814
29595W        W45212   5.518   4.198  14.555 -0.1174  0.3372 -0.1616
29596W        W45213  11.544   8.749   3.744 -0.0931  0.0021  0.1103
29597W        W45214  12.773  10.652  13.615 -0.1981 -0.1855  0.1485
29598W        W45215  17.033   0.368  15.036  0.1645  0.1147 -0.2852
29599W        W45216   6.728   1.899   4.600 -0.0109  0.0875  0.0935
29600W        W45217   0.073   5.839   4.249  0.2434 -0.1777  0.1901
29601W        W45218   6.556   9.308  14.914  0.1083  0.0079 -0.0632
29602W        W45219  14.080  12.480   4.634 -0.1474  0.0091  0.0034
29603W        W45220   8.971   3.404  14.241 -0.1528 -0.1912  0.1100
29604W        W45221  13.761   7.840  12.536  0.4512  0.0507  0.0496
29605W        W45222  10.258  15.738   4.713 -0.0730  0.2651 -0.0590
29606W        W45223   7.341   9.187  11.275 -0.1202 -0.3380 -0.1504
29607W        W45224   3.089  15.356  14.310  0.0597  0.0029  0.1049
29608W        W45225  13.293   7.539   3.598 -0.2881 -0.0113 -0.0449
29609W        W45226   2.560  13.741   3.179 -0.1817 -0.0398  0.3373
29610W        W45227  16.316  11.074   0.528 -0.1162  0.2858 -0.2788
29611W        W45228   1.107   3.312   4.991 -0.2446 -0.0462 -0.0681
29612W        W45229  15.720   8.804  13.377  0.2275 -0.1123 -0.0835
29613W        W45230  12.389  12.328  14.073  0.1142  0.1001  0.1400
29614W        W45231  15.890   2.471   5.052 -0.2218  0.1270 -0.0366
29615W        W45232  10.382  15.080  13.109 -0.4608  0.3221  0.0619
29616W        W45233  17.689  14.112   5.421 -0.0069 -0.3474 -0.0147
29617W        W45234   7.655   8.546   4.770 -0.0898  0.1275  0.1320
29618W        W45235  12.841   8.011  12.536 -0.3439  0.2342  0.2782
29619W        W45236   7.895  12.306   2.749  0.1791  0.3006 -0.1782
29620W        W45237   6.952   0.437   3.700 -0.1409 -0.2705  0.1370
29621W        W45238  15.153   3.075   5.108 -0.0734  0.2712 -0.1511
29622W        W45239  11.866  12.657  15.221 -0.0067 -0.2480 -0.3078
29623W        W45240   6.313   6.710  15.212  0.5017  0.2145  0.2875
29624W        W45241  14.852   4.578  16.067 -0.0412  0.0744  0.1520
29625W        W45242   3.236  12.460  14.579 -0.1139 -0.2861  0.2865
29626W        W45243  14.720  13.670   4.939  0.1117 -0.1680 -0.0870
29627W        W45244  10.048  14.573  11.876  0.0363  0.0038 -0.1224
29628W        W45245   1.720   5.150   3.064 -0.0452  0.2738  0.0078
29629W        W45246   6.653   8.106  15.571 -0.0325  0.2258  0.2494
29630W        W45247   6.506   0.578   1.854 -0.1634 -0.1808  0.2893
29631W        W45248   1.785  10.922  15.003  0.1390  0.2421 -0.1145
29632W        W45249  11.590   6.700  12.585 -0.0800 -0.1010  0.0463
29633W        W45250   3.975   7.317  14.543  0.2237 -0.1904 -0.1379
29634W        W45251   4.404  14.672  12.506 -0.0843  0.0461  0.1839
29635W        W45252   1.918   5.027   0.732  0.1434 -0.2120 -0.2870
29636W        W45253  16.711   2.974  12.289  0.1732  0.2914  0.0595
29637W        W45254   4.079  16.629   0.818 -0.0525 -0.0569 -0.0315
29638W        W45255   4.511   3.255   6.170 -0.2824 -0.0059  0.0352
29639W        W45256  13.081  11.203  13.530  0.0141 -0.1694  0.0539
29640W        W45257  11.162  15.081  16.193 -0.1627  0.0762  0.1142
29641W        W45258  13.192   3.172   0.474 -0.2246  0.0998 -0.0183
29642W        W45259  11.267   4.676  13.919 -0.1659  0.2751 -0.3259
29643W        W45260   8.950   8.311   0.473  0.0910  0.1882  0.0638
29644W        W45261   5.494  15.427   5.686 -0.0355  0.0138  0.2413
29645W        W45262   8.354   4.005   5.024 -0.0649  0.3766 -0.0668
29646W        W45263  13.006   6.004  15.773 -0.0748  0.2503  0.2658
29647W        W45264  16.853   4.839   1.897  0.2754 -0.0873 -0.1000
29648W        W45265   3.987  14.539   4.814 -0.2522 -0.2417  0.0017
29649W        W45266  11.628  11.257  12.378 -0.0782  0.0336  0.0374
29650W        W45267  14.363   1.798  16.460 -0.0881 -0.3378 -0.2087
29651W        W45268  16.588  17.825   5.088 -0.0399 -0.2431  0.0374
29652W        W45269   5.634   6.514  16.778  0.1851 -0.0461  0.2468
29653W        W45270  16.193  16.470   4.034 -0.1716  0.0571 -0.4080
29654W        W45271   1.271  16.442   4.402  0.1534 -0.2386 -0.0255
29655W        W45272  15.900  10.880  14.718 -0.0351 -0.1072 -0.2146
29656W        W45273   5.834   7.789  16.545 -0.0810  0.1066 -0.0510
29657W        W45274   0.090  10.255  12.744 -0.3850  0.0169 -0.0182
29658W        W45275  10.671  12.733  12.113 -0.1788  0.2129 -0.0937
29659W        W45276   7.729   3.025   4.586 -0.0686 -0.1512  0.0335
29660W        W45277   7.338  10.332  13.575 -0.0267  0.3141  0.1506
29661W        W45278   2.027  17.582  11.650  0.0699 -0.0093  0.0774
29662W        W45279  12.476  15.117  14.256 -0.1072  0.1602 -0.1597
29663W        W45280   5.967   8.442   1.607 -0.1635  0.1201 -0.0643
29664W        W45281   7.883   6.421   4.773 -0.0166  0.0006  0.3671
29665W        W45282   3.509   2.913  11.983 -0.1054 -0.1790  0.0572
29666W        W45283  10.696   8.010   0.028  0.3371 -0.0843  0.0430
29667W        W45284  10.244  17.107  16.463 -0.0246 -0.1252  0.1160
29668W        W45285  15.707   5.816   5.858 -0.1158  0.1999  0.0318
29669W        W45286   5.524  10.731   2.256 -0.1467  0.1929 -0.0377
29670W        W45287  13.236   0.330   1.467 -0.1741 -0.2011 -0.1660
29671W        W45288   7.203   0.534  12.869 -0.0182 -0.1677  0.1370
29672W        W45289   6.917  11.516  11.556 -0.1772  0.4699 -0.1347
29673W        W45290  16.895  10.474   1.905  0.2161 -0.1043  0.1732
29674W        W45291   9.926   2.492  12.768 -0.1156 -0.0192  0.2248
29675W        W45292   5.951   9.318  14.431 -0.3708 -0.2559 -0.1524
29676W        W45293   8.224   2.654  11.845  0.2062  0.1148 -0.2124
29677W        W45294  15.037   5.431   2.608  0.0839 -0.2769  0.0750
29678W        W45295   5.714  10.563   3.143 -0.0572 -0.1400 -0.2244
29679W        W45296   1.667   9.470  12.153 -0.0234 -0.0563 -0.2445
29680W        W45297   7.472   8.547  13.374  0.2151 -0.1944  0.1423
29681W        W45298  13.811  11.406  13.003 -0.0931 -0.0772  0.3140
29682W        W45299   8.179   4.286   5.846 -0.3623  0.1504 -0.2714
29683W        W45300   2.936   2.706   3.003 -0.1169  0.0284  0.0860
29684W        W45301  11.435  11.781   1.922 -0.0273 -0.0371 -0.1130
29685W        W45302  10.629   0.784  16.278 -0.2275  0.0194  0.1305
29686W        W45303  16.758   1.784   5.742  0.2920 -0.0621  0.3084
29687W        W45304   3.969   6.696   4.221 -0.1863  0.3089 -0.0291
29688W        W45305   2.776   6.937   2.779  0.3956 -0.2228  0.0934
29689W        W45306  17.155   4.943   4.069  0.2379 -0.1129 -0.0680
29690W        W45307  15.840   8.590   4.960  0.1936  0.1734  0.0127
29691W        W45308  14.034  16.801  12.374  0.1593  0.3284 -0.4626
29692W        W45309  17.710   8.076  11.764  0.0203 -0.0987  0.1075
29693W        W45310   7.281  13.959  11.456 -0.0652 -0.2995 -0.0010
29694W        W45311   3.873  11.215  13.823  0.1197  0.0159  0.4321
29695W        W45312  10.863   3.829  15.062 -0.0116  0.0383  0.3466
29696W        W45313   9.831   1.623   1.150 -0.0430  0.1867  0.0193
29697W        W45314   8.607  12.362  13.995 -0.1309 -0.0148  0.1226
29698W        W45315   5.069  13.267   4.016  0.0697 -0.2038 -0.0972
29699W        W45316  13.855  17.825   5.675 -0.1566  0.1358 -0.1676
29700W        W45317   3.425  15.628  11.781 -0.1536 -0.0278 -0.0860
29701W        W45318  12.134   4.065   1.781 -0.1841  0.0634  0.2681
29702W        W45319   4.716  13.999   2.136  0.5869  0.1421  0.1198
29703W        W45320   1.207  10.564  16.134 -0.0138 -0.2531  0.0253
29704W        W45321  12.604   9.763   1.534 -0.0169  0.3544  0.2056
29705W        W45322  10.195   0.238  14.376  0.1578 -0.1300 -0.1078
29706W        W45323  10.994   5.764  16.553 -0.3305 -0.0524  0.1903
29707W        W45324  10.645   7.932   2.129 -0.3630 -0.1866  0.1174
29708W        W45325  14.021   9.368   5.460  0.0803 -0.1628  0.1421
29709W        W45326  13.816  15.835   3.565  0.0111 -0.0648  0.2559
29710W        W45327  14.918   6.014  14.803 -0.2823 -0.0534 -0.0834
29711W        W45328  10.699  17.973  11.822 -0.0555 -0.1402 -0.1571
29712W        W45329  17.286   3.040  13.380 -0.2414 -0.0041 -0.3203
29713W        W45330   6.236   3.338   2.210 -0.0537  0.0506  0.1459
29714W        W45331   4.946   2.209   2.967 -0.0338 -0.2228  0.0201
29715W        W45332   0.026   2.352   4.271 -0.0451  0.0124  0.2293
29716W        W45333  13.056  13.869   0.275  0.0788  0.0099  0.0680
29717W        W45334   0.786   5.045  14.498  0.2451 -0.0639 -0.1403
29718W        W45335  14.660  13.335   2.469  0.2137  0.0367  0.0538
29719W        W45336   7.208   4.425   4.606 -0.0741 -0.0621  0.2606
29720W        W45337   9.799   7.461   4.986 -0.3161  0.1178  0.1831
29721W        W45338  13.573  10.949   4.945 -0.1121  0.0552 -0.0657
29722W        W45339  14.524   8.921   3.039 -0.0659  0.1542  0.1334
29723W        W45340  12.104   8.270   2.858  0.1363 -0.0084 -0.2907
29724W        W45341  15.929  17.512   5.005  0.0121  0.1071 -0.2610
29725W        W45342   8.550   0.015   4.314 -0.1690  0.0647  0.3502
29726W        W45343   6.160   5.556  14.202  0.0219  0.0385 -0.0507
29727W        W45344   2.709   3.461  11.830  0.1843 -0.0549 -0.0476
29728W        W45345  14.363   3.595   3.109  0.3102  0.2016  0.1824
29729W        W45346  13.225  11.428   3.374 -0.1970 -0.1314  0.0972
29730W        W45347  14.582  16.291  16.476 -0.2198  0.0606 -0.3389
29731W        W45348   7.465   7.476   0.780 -0.0356 -0.2059  0.1803
29732W        W45349  10.396   7.424   1.189  0.2067  0.0798  0.0429
29733W        W45350   3.865   5.890  13.603  0.1970 -0.0444  0.0210
29734W        W45351  14.618  12.445   5.921  0.1322 -0.1819 -0.1316
29735W        W45352  11.496   5.563  13.055  0.2951 -0.0908  0.3240
29736W        W45353  12.109   9.634   3.222 -0.1685  0.0760 -0.1876
29737W        W45354  12.453   9.503  12.861  0.0928  0.1534  0.2002
29738W        W45355  13.505  11.371   0.415  0.4124  0.1344 -0.0076
29739W        W45356  17.466  14.077  13.107 -0.0451  0.1193  0.0484
29740W        W45357   7.956   0.024   2.347 -0.0693 -0.3328 -0.0720
29741W        W45358  10.506   5.709  16.681  0.0123 -0.0514 -0.0636
29742W        W45359   6.363  15.096   1.424  0.2098 -0.0376  0.1352
29743W        W45360  10.309   2.016   4.071  0.3954 -0.0421 -0.1232
29744W        W45361  11.460   2.771   4.213 -0.1164  0.1765  0.1266
29745W        W45362   0.752  13.284  11.714 -0.0730 -0.0286  0.1966
29746W        W45363   2.298   2.473  13.989 -0.0924 -0.0865  0.3168
29747W        W45364   8.664   5.829  15.230 -0.0065  0.1202 -0.1925
29748W        W45365   7.229   6.918   3.582 -0.2019  0.3392 -0.0158
29749W        W45366  15.092   2.181   3.470 -0.1197 -0.1120 -0.1632
29750W        W45367   5.872  11.091  15.332  0.1056  0.0867 -0.3940
29751W        W45368   4.093  14.694  16.586  0.1599  0.0806 -0.1314
29752W        W45369  11.576   5.823   4.400  0.0643 -0.2084 -0.1419
29753W        W45370   3.365  16.808  13.608 -0.0360 -0.2148  0.1755
29754W        W45371  12.721  10.667   1.839  0.1409 -0.3551  0.1476
29755W        W45372  15.195  15.988   4.114 -0.0726  0.1569 -0.0342
29756W        W45373  13.464   3.425  16.515 -0.1785 -0.3252 -0.1222
29757W        W45374  10.560  17.527   5.138  0.1741 -0.3708 -0.2416
29758W        W45375   6.413   0.851  12.418  0.1475 -0.1574  0.0149
29759W        W45376   8.471   8.103   5.318  0.0442  0.0602 -0.1498
29760W        W45377  14.706   4.964   3.890 -0.0251  0.1369  0.3858
29761W        W45378   9.621  11.293  16.080 -0.0047  0.0624  0.1641
29762W        W45379   2.979  12.802   1.257 -0.1921  0.1241 -0.1638
29763W        W45380  15.946   8.102   4.781  0.1174  0.0312 -0.2555
29764W        W45381   0.595   3.308   1.936  0.0069  0.2277 -0.0758
29765W        W45382  14.502   3.478  15.458 -0.2532  0.1872 -0.0743
29766W        W45383  10.184   1.437   6.062  0.0147  0.0309  0.4511
29767W        W45384  12.454   0.839  13.600 -0.0686 -0.0685 -0.2295
29768W        W45385  16.415   2.472  13.675 -0.0867 -0.0197  0.1199
29769W        W45386  10.677  14.564  13.119  0.2032  0.0130  0.3249
29770W        W45387  16.195   9.425  12.782 -0.1944 -0.0178  0.0122
29771W        W45388  17.272   6.397   2.419 -0.1221  0.1824  0.1219
29772W        W45389  11.584   5.727   5.891  0.0221  0.0638 -0.0665
29773W        W45390   6.484   5.599   3.437 -0.1856 -0.0580 -0.0808
29774W        W45391   6.565   8.421  12.030 -0.1466 -0.1563  0.3613
29775W        W45392   9.306   7.667   1.003 -0.0692  0.1334  0.0711
29776W        W45393   0.315  14.354  13.709 -0.1226  0.2149  0.0681
29777W        W45394   7.606   0.755   0.251 -0.0922 -0.0444  0.2467
29778W        W45395   8.550   5.733   1.984 -0.3451  0.3467 -0.1187
29779W        W45396   8.906   4.507   0.401 -0.1357 -0.0285 -0.0389
29780W        W45397   6.536   2.541  15.508  0.1005 -0.1950  0.2085
29781W        W45398  13.424  16.123  15.408  0.1062 -0.1015  0.0224
29782W        W45399  14.608  15.816  16.604  0.4100  0.1441 -0.2100
29783W        W45400   8.944  17.925   0.725  0.1203 -0.2393 -0.3500
29784W        W45401   7.660  17.673  13.772  0.1028 -0.0058 -0.3004
29785W        W45402   2.500   1.914  14.961  0.3135 -0.0702  0.1197
29786W        W45403   6.645   1.855  15.310 -0.1273 -0.0576  0.1389
29787W        W45404   8.806  16.766   5.109 -0.1809  0.0122  0.1034
29788W        W45405  16.579   2.005   0.379 -0.0191 -0.0858 -0.1874
29789W        W45406   7.695  14.897  11.060  0.0448 -0.2320  0.2668
29790W        W45407  17.715  14.631   0.717 -0.1349  0.0838 -0.0720
29791W        W45408   2.861   1.792   3.982  0.1350  0.1298 -0.1074
29792W        W45409   7.903   8.105  11.025  0.2359  0.2713  0.0587
29793W        W45410  16.740  12.815  14.782  0.0876 -0.1636  0.1382
29794W        W45411   8.209  15.603   4.597 -0.1426  0.1851  0.0203
29795W        W45412  17.762  13.991  16.743  0.1863  0.0076 -0.1525
29796W        W45413   6.309  17.402  12.477 -0.2640  0.2093  0.2190
29797W        W45414   8.287   7.944  11.615 -0.0611 -0.0505 -0.1171
29798W        W45415  15.074   7.915  12.380  0.0046  0.0456 -0.0028
29799W        W45416  15.199  12.099   3.860  0.1221  0.1245 -0.0582
29800W        W45417   0.541  10.953   3.864 -0.1450 -0.2335 -0.1807
29801W        W45418   8.493   3.539  12.105 -0.0225 -0.2503 -0.1472
29802W        W45419   7.990  17.648   5.586 -0.0176  0.0409 -0.1083
29803W        W45420   9.097   7.380  10.565  0.0376  0.0432 -0.1348
29804W        W45421   8.956   6.896   0.100  0.3314 -0.2431  0.4237
29805W        W45422  11.243   1.064   1.099  0.0511  0.0943 -0.2116
29806W        W45423  10.311  13.844  14.370 -0.2188  0.0490 -0.0183
29807W        W45424   8.395  13.863   2.736 -0.1040 -0.0270 -0.2509
29808W        W45425   3.054  12.887   3.338  0.3127  0.3483  0.0107
29809W        W45426  17.724   1.171   4.293  0.2506  0.1941  0.1175
29810W        W45427   0.090  16.682   2.737 -0.1245  0.3908 -0.0695
29811W        W45428  16.370  16.404   0.625  0.0405  0.1781 -0.2922
29812W        W45429   9.930   1.474   0.693  0.2079  0.2017 -0.5668
29813W        W45430  10.922   4.443  15.707 -0.1855  0.2029  0.0363
29814W        W45431   9.821   9.651   3.803  0.0790 -0.0795  0.0011
29815W        W45432   1.728   3.423  13.462 -0.1645 -0.1254 -0.3038
29816W        W45433  15.162   9.663  13.032 -0.0923  0.1375  0.1287
29817W        W45434   0.094   2.527   2.499  0.0857 -0.0064 -0.0893
29818W        W45435   9.921   5.541  14.343  0.0120 -0.2005  0.0343
29819W        W45436   4.198   0.567   5.727  0.1196 -0.2750  0.2399
29820W        W45437   7.294   1.040   0.961  0.0626 -0.0897 -0.4398
29821W        W45438   4.822   8.762  16.271  0.0034 -0.0046  0.1317
29822W        W45439  16.545   9.920  15.470  0.2685 -0.0353  0.1301
29823W        W45440  17.284   1.731   5.621  0.0544 -0.0172 -0.1392
29824W        W45441   9.263  12.231  15.858  0.1470 -0.0544 -0.0956
29825W        W45442  12.026  13.335   4.417 -0.0431 -0.3321 -0.0790
29826W        W45443  16.567   4.659  13.686 -0.0498 -0.0903 -0.1707
29827W        W45444   0.529   6.242   5.710 -0.0771  0.2438  0.0405
29828W        W45445   0.841  10.299  16.447 -0.2964  0.0526  0.1267
29829W        W45446   0.053   2.276  16.494 -0.0530 -0.0727  0.1563
29830W        W45447  11.809  12.363  13.248 -0.1620  0.3072  0.0684
29831W        W45448   6.684  16.531  14.437 -0.2005 -0.3149 -0.1407
29832W        W45449   2.424   0.317  11.661 -0.2853 -0.1348  0.2021
29833W        W45450  17.494  17.108   3.881  0.0119 -0.0033  0.0556
29834W        W45451  11.697   3.666   1.322  0.3627  0.1588  0.0410
29835W        W45452  14.928   8.374  12.488 -0.0327  0.3546  0.2543
29836W        W45453  10.488   8.205  12.400 -0.0754  0.0877 -0.3051
29837W        W45454  15.836   6.810  13.562  0.0463  0.0051  0.1814
29838W        W45455  10.656  17.456   1.659 -0.0804 -0.4866  0.2107
29839W        W45456   4.204   6.076  11.869 -0.0094 -0.1088 -0.3475
29840W        W45457   5.889   2.159   3.202 -0.1592 -0.1721 -0.1169
29841W        W45458   3.851   8.648   0.973  0.1236 -0.1479  0.0639
29842W        W45459   8.177   6.191   3.800  0.0227  0.0036 -0.0961
29843W        W45460  14.096  13.925   4.895  0.0714 -0.0832 -0.1171
29844W        W45461   8.070  17.074  14.310  0.0482  0.0755  0.2128
29845W        W45462  12.779  14.075  15.592 -0.2458  0.2091 -0.1297
29846W        W45463   1.924  13.390  15.741 -0.0782 -0.0487 -0.2068
29847W        W45464  16.194   4.247   3.799  0.1327  0.1334 -0.0731
29848W        W45465   5.553   1.180   2.282  0.0004  0.1081  0.0130
29849W        W45466  16.153   8.182   5.731  0.3529 -0.3866  0.0683
29850W        W45467  10.198   0.348  13.271  0.1608 -0.0986  0.1827
29851W        W45468  14.532   3.878   5.869 -0.2632  0.3638 -0.3268
29852W        W45469  14.705  17.343  14.456  0.0820  0.2988  0.0333
29853W        W45470  16.469   4.089   1.338  0.1277  0.3207  0.0275
29854W        W45471  14.309   9.260  13.518  0.2254 -0.2501  0.0286
29855W        W45472  14.635  17.312  13.124  0.1561  0.1180  0.1178
29856W        W45473   1.055  12.067  14.821 -0.1055  0.0645  0.0285
29857W        W45474  13.121  10.115   4.698  0.0375  0.0179 -0.2652
29858W        W45475   7.090  11.909   0.902  0.0743  0.3554 -0.0019
29859W        W45476  11.677   6.151   5.429 -0.2330  0.2914 -0.0045
29860W        W45477  18.028   0.691   0.665  0.0182 -0.1306 -0.0900
29861W        W45478   2.233   1.621  12.427 -0.1444 -0.0497  0.1184
29862W        W45479   8.543   9.429   0.258  0.0258  0.2357  0.0852
29863W        W45480   5.228   6.229  11.559  0.2079  0.2506  0.0247
29864W        W45481  15.884   4.420   2.954  0.1061  0.1632 -0.3506
29865W        W45482  10.377  15.649   5.735  0.0520  0.0147  0.0963
29866W        W45483  10.381  12.819   4.320  0.1543 -0.2117 -0.1761
29867W        W45484  15.486  11.521  11.575 -0.3899 -0.0017 -0.0311
29868W        W45485   5.018   2.199  11.483 -0.1184 -0.2111 -0.1585
29869W        W45486   6.088  11.425  15.780 -0.0202 -0.1633  0.0293
29870W        W45487  14.261  17.149   2.886  0.0446 -0.1883  0.0768
29871W        W45488  11.181  15.807  12.718 -0.0457  0.2723  0.2291
29872W        W45489  10.083   6.608  15.212  0.2519  0.2826  0.1495
29873W        W45490   3.339  16.043  14.570  0.2078 -0.0605  0.1788
29874W        W45491   2.462   9.127  11.753 -0.3732 -0.1746  0.0749
29875W        W45492   2.941   1.208  15.687  0.1023  0.1556  0.1324
29876W        W45493   7.800   3.924   5.230  0.1676 -0.2881 -0.0420
29877W        W45494   1.656   8.398   0.711  0.1582 -0.3378  0.1388
29878W        W45495   9.285   8.283  10.178 -0.1155  0.0448  0.0076
29879W        W45496   1.067  14.281   4.105  0.0188 -0.1203  0.1668
29880W        W45497   5.560  16.514   1.161  0.0969 -0.1896 -0.4823
29881W        W45498   5.004   1.720  11.366  0.1503  0.0443 -0.0291
29882W        W45499  11.736  16.839   1.813 -0.1596  0.3281 -0.1208
29883W        W45500   9.192   5.434  15.227  0.1424  0.2684  0.0659
29884W        W45501   9.372   3.674   0.652  0.1812  0.0253 -0.2511
29885W        W45502   5.365  14.621   5.026 -0.2218 -0.0772 -0.1790
29886W        W45503  10.423   1.789  16.306 -0.0443  0.1267 -0.0024
29887W        W45504  10.290  17.195  15.545  0.0344 -0.0503 -0.2671
29888W        W45505  12.622   6.366  15.605  0.2249  0.3490  0.0729
29889W        W45506   8.613   3.069   4.767 -0.3916 -0.1600  0.1426
29890W        W45507   7.525  16.685  14.749 -0.1825 -0.1195 -0.0039
29891W        W45508   7.986   5.742  15.842 -0.1480  0.0542 -0.0941
29892W        W45509   1.790   0.135   5.605 -0.2040 -0.0739  0.1211
29893W        W45510   0.933   0.073   4.072  0.0051  0.2842  0.4487
29894W        W45511   9.673   9.782  15.752 -0.2123 -0.2843  0.1205
29895W        W45512  11.872   9.823   2.692  0.1210 -0.1381  0.0256
29896W        W45513  16.368  14.626   1.571  0.1526 -0.2240  0.3448
29897W        W45514  15.282   5.404   0.124 -0.0234  0.0096  0.2139
29898W        W45515   7.521   5.784  16.104 -0.2665  0.1761  0.0274
29899W        W45516   3.190  13.805   5.624 -0.1325 -0.1700 -0.1900
29900W        W45517  13.404   6.505   0.451  0.1830  0.1821  0.3913
29901W        W45518  12.508   5.987  13.167 -0.1162 -0.2352  0.2727
29902W        W45519   5.388   2.602   4.328 -0.1903 -0.3100 -0.1360
29903W        W45520  17.889   5.251  14.706  0.0462  0.0103  0.0023
29904W        W45521  16.927  15.896  12.046  0.0180  0.2561  0.0236
29905W        W45522   4.648  16.101   2.029 -0.1654 -0.2990  0.1119
29906W        W45523   2.898   1.233  16.766  0.0262  0.1065  0.2859
29907W        W45524   4.406   2.110   5.843  0.0326  0.2370 -0.3367
29908W        W45525  17.677   8.290  13.910  0.1707  0.4573 -0.1680
29909W        W45526   7.113   7.392   2.137  0.3689  0.1938  0.1853
29910W        W45527  12.642  10.869   0.547  0.3933  0.2438 -0.0611
29911W        W45528   7.489  14.183  13.010 -0.0333 -0.0998  0.3155
29912W        W45529  11.241   4.061   3.521  0.0401 -0.1887 -0.1346
29913W        W45530   4.805  14.312   3.049 -0.0195  0.3670 -0.0637
29914W        W45531   8.219   6.005  11.762  0.2462  0.1041 -0.0540
29915W        W45532   2.816   9.551   1.644 -0.0740  0.0878  0.1161
29916W        W45533   2.399   3.466   5.530 -0.3234 -0.0190  0.3016
29917W        W45534   2.286  14.552  16.128  0.0850  0.0515 -0.0522
29918W        W45535   8.469  16.038   2.578 -0.4856  0.3446 -0.3969
29919W        W45536   7.330  10.865  14.822 -0.3602  0.2480  0.1357
29920W        W45537  17.141   2.598   5.277  0.1762 -0.1122 -0.1043
29921W        W45538   7.600  16.376   3.677 -0.2314 -0.2903 -0.1502
29922W        W45539   2.026  12.430   1.788 -0.2405 -0.2079  0.0346
29923W        W45540  14.987  12.047   0.407 -0.0985 -0.1983  0.0528
29924W        W45541   1.936  12.227  14.860 -0.1087 -0.0642  0.2553
29925W        W45542   2.205   9.045   1.647 -0.0776  0.1910  0.0382
29926W        W45543   2.292  11.779   4.678 -0.2956 -0.1128 -0.0858
29927W        W45544   3.767  14.572  14.004  0.2012  0.2188  0.3800
29928W        W45545   8.831  16.158   5.375  0.0740  0.3013 -0.2648
29929W        W45546   0.869  17.471  13.916 -0.0694 -0.0360  0.2077
29930W        W45547   0.050   3.759   3.163  0.2925  0.2046 -0.1164
29931W        W45548   6.570  17.121  16.088 -0.0710 -0.0621 -0.1035
29932W        W45549  14.392  17.869   0.722 -0.0681  0.0353 -0.0979
29933W        W45550   9.762   6.495  14.394 -0.1382 -0.0636 -0.1631
29934W        W45551   7.381  17.656  11.970  0.0427  0.2802  0.2218
29935W        W45552   2.514   9.447  13.274 -0.0626  0.0589 -0.2516
29936W        W45553   8.324   8.249   3.942 -0.1360 -0.0744 -0.1027
29937W        W45554  17.811  12.784  13.754 -0.0319  0.1518  0.1450
29938W        W45555   1.483  15.334  11.914  0.0484  0.0054  0.0345
29939W        W45556  13.674   6.479  16.255 -0.1507  0.0619 -0.1090
29940W        W45557  13.021  13.036  11.879  0.1398 -0.3079  0.2895
29941W        W45558   9.235  13.457  11.230  0.1820 -0.1053 -0.2121
29942W        W45559  15.082   6.599  14.541 -0.1664 -0.1586  0.2206
29943W        W45560   6.607   6.190  12.660 -0.0652 -0.1575  0.1569
29944W        W45561   6.701   0.433   0.017 -0.1312 -0.2911  0.2991
29945W        W45562   1.500  16.576   5.224  0.3332  0.0636 -0.0788
29946W        W45563   7.932  10.314  13.500  0.0409 -0.0526  0.0271
29947W        W45564  17.768  15.108   0.730  0.0553 -0.2233  0.3354
29948W        W45565   5.933  12.684   4.175 -0.1143  0.0398 -0.0031
29949W        W45566  14.804   0.141  13.235  0.1366  0.3831  0.1319
29950W        W45567  18.021  10.617   5.439 -0.0993 -0.2213  0.0735
29951W        W45568   9.301  12.574  13.332  0.1922 -0.0691 -0.2084
29952W        W45569   4.545   4.493   0.602 -0.1435 -0.0513 -0.1877
29953W        W45570   3.676   6.456  15.534  0.1003  0.2131  0.1022
29954W        W45571   0.378   0.941  12.167 -0.4059  0.0247  0.2466
29955W        W45572  12.713  17.576  11.660  0.1732 -0.1945 -0.1731
29956W        W45573  17.432  10.676   4.209  0.1428  0.1136 -0.0255
29957W        W45574   3.891  14.612  15.150 -0.0784 -0.1463 -0.0337
29958W        W45575   5.322  15.563  15.800  0.1082 -0.3228 -0.2320
29959W        W45576  15.832  16.648  12.270 -0.0549  0.2640 -0.1078
29960W        W45577   5.896   4.942  12.488  0.1918  0.0087  0.1468
29961W        W45578  17.207   8.318   1.579  0.0974 -0.3661 -0.0496
29962W        W45579   8.815   7.239   2.798  0.0627  0.1073 -0.2223
29963W        W45580  12.812   1.048   1.987 -0.1338 -0.0117 -0.1898
29964W        W45581   8.373  17.032  14.648 -0.0650  0.0329 -0.1159
29965W        W45582  10.204   5.796   4.339  0.2600  0.1834  0.0756
29966W        W45583  13.853   7.575   4.709  0.2049 -0.4255  0.0035
29967W        W45584   2.889  14.988   5.551 -0.0580 -0.0326  0.0812
29968W        W45585  12.550   5.316  11.901  0.0927 -0.1660 -0.2745
29969W        W45586  12.732  11.886   0.033  0.0685 -0.0569 -0.0998
29970W        W45587  13.958   3.377  12.557 -0.2219 -0.0735  0.1171
29971W        W45588   0.126  13.395   6.520  0.1962 -0.0008  0.2023
29972W        W45589  17.881  14.801  15.202  0.3351 -0.0364 -0.2374
29973W        W45590  12.461   3.208  11.781  0.0499 -0.0921 -0.0175
29974W        W45591   8.215   7.150  14.662  0.0451 -0.2128  0.2474
29975W        W45592   9.969   7.632   3.073 -0.0766  0.1127  0.1428
29976W        W45593   3.966   0.554  14.385 -0.1343 -0.2966 -0.0521
29977W        W45594   0.312   4.706   1.700  0.3994  0.0488  0.1698
29978W        W45595  14.533   7.026  13.669  0.0976  0.1246 -0.2001
29979W        W45596   5.031   9.356  12.165 -0.1086 -0.0327 -0.0064
29980W        W45597   8.104  15.585   0.105 -0.1832  0.1692  0.0249
29981W        W45598  16.757   1.838  16.760  0.1492 -0.0954 -0.0288
29982W        W45599  11.973   5.409  15.405  0.2780  0.1177 -0.1391
29983W        W45600   3.644   7.072  13.218 -0.1004  0.1614  0.2867
29984W        W45601   1.154  14.007  15.769 -0.1781  0.0876  0.0154
29985W        W45602   2.927   8.879   3.860  0.1754  0.0114 -0.2497
29986W        W45603   3.725   5.417  15.652 -0.0253 -0.1138 -0.0054
29987W        W45604   5.392  13.261   2.374 -0.3232  0.3694 -0.1266
29988W        W45605   3.388   8.866  14.241 -0.1027  0.2029 -0.0369
29989W        W45606   9.566  16.549   1.310 -0.2393 -0.0922 -0.1303
29990W        W45607   7.888  15.687   3.866  0.3598  0.1880  0.1369
29991W        W45608   9.196  16.498  15.207 -0.1488  0.1338 -0.1404
29992W        W45609   1.473   7.526   5.169  0.3430 -0.1211 -0.1164
29993W        W45610  17.981   0.381   5.319  0.2402 -0.1360 -0.0393
29994W        W45611   8.506   3.749   1.496 -0.0454 -0.0490  0.0098
29995W        W45612  17.393   4.093   4.627  0.2553  0.0867 -0.3213
29996W        W45613  12.303  10.736  14.416 -0.1289  0.1181 -0.0633
29997W        W45614   8.944   6.952   5.419 -0.0841 -0.1123  0.2628
29998W        W45615   7.791   3.225  14.675  0.0668 -0.0575 -0.1930
29999W        W45616   5.064   9.235  13.025  0.0356  0.1676  0.1932
30000W        W45617  12.121   5.300  13.668  0.0117  0.0864  0.0700
30001W        W45618   2.098  17.653   1.518 -0.0708 -0.1301  0.1115
30002W        W45619   4.943   9.699  15.508 -0.0335 -0.0671 -0.2089
30003W        W45620  16.358  15.157  12.298  0.0226 -0.0341  0.2417
30004W        W45621  11.582   2.152  12.167 -0.3337  0.0026  0.4744
30005W        W45622   2.493  14.165   4.524  0.0598  0.1875 -0.0065
30006W        W45623   0.050  16.348   3.187 -0.1266 -0.1959 -0.1015
30007W        W45624  10.167   4.578  11.632 -0.5266 -0.1041 -0.4797
30008W        W45625   8.672   8.436   0.988  0.3908  0.3143 -0.0973
30009W        W45626   0.486   6.450  15.827  0.0328 -0.2554 -0.1364
30010W        W45627  16.701  10.026   5.663 -0.1203 -0.2328  0.2593
30011W        W45628   3.623  17.213  15.577 -0.1132  0.0021 -0.0452
30012W        W45629  11.661   5.954  13.384  0.1060  0.0261  0.0961
30013W        W45630   3.442   1.254  11.860  0.1200  0.2016  0.1303
30014W        W45631   5.541  10.273  14.366  0.1411 -0.2694 -0.0959
30015W        W45632   4.147   3.200  13.371  0.1638 -0.0376 -0.0515
30016W        W45633  13.445  15.285   3.698 -0.2692  0.2887  0.1142
30017W        W45634   1.474   7.480  16.444  0.2535 -0.1792 -0.2353
30018W        W45635   9.230  15.413   4.610  0.2331 -0.2100  0.5359
30019W        W45636  10.304   4.544   1.285  0.0927  0.2567  0.0690
30020W        W45637   5.156  11.965  12.548  0.0196  0.2156  0.1115
30021W        W45638   8.541   6.143  10.691  0.0069  0.1082 -0.2516
30022W        W45639  16.065   7.908   1.251 -0.0750 -0.1016 -0.0302
30023W        W45640   6.926   5.422   5.518 -0.0636  0.3386  0.1382
30024W        W45641  17.324   8.224  15.016  0.0766 -0.0447  0.0332
30025W        W45642   5.072   2.613   5.676  0.0073  0.1072 -0.2284
30026W        W45643  15.835   4.509   3.465 -0.0906  0.1182 -0.0517
30027W        W45644   8.714  15.033  12.157 -0.1133  0.2388  0.1719
30028W        W45645   8.876   9.330  15.457 -0.1781  0.1228 -0.0287
30029W        W45646  17.174  17.824   5.008 -0.0799  0.1298  0.0304
30030W        W45647   1.191  15.749   1.551 -0.0046 -0.0783 -0.1406
30031W        W45648   7.100   0.725   1.791 -0.1533 -0.1084  0.0972
30032W        W45649  17.663   3.450  13.242 -0.0008  0.4117  0.1744
30033W        W45650   2.063   6.252  11.837  0.0663  0.0748  0.1326
30034W        W45651  11.573   9.788  12.931 -0.0518 -0.2105 -0.1810
30035W        W45652  10.974   0.179   3.673  0.0984  0.0194 -0.2045
30036W        W45653   9.068   5.497   4.298 -0.1240 -0.0328 -0.1169
30037W        W45654  14.506   7.273  12.445  0.2214 -0.6162  0.2844
30038W        W45655  14.185   8.329   1.079  0.0259 -0.0905 -0.0539
30039W        W45656  11.543  10.721   5.403 -0.3622 -0.0142 -0.1197
30040W        W45657  18.049   4.779   5.086  0.1555  0.0676 -0.1505
30041W        W45658   1.508  16.855   1.670 -0.1606  0.0124  0.0766
30042W        W45659   4.698  12.841  12.618  0.2745  0.1955 -0.1948
30043W        W45660   4.084  15.409  16.484  0.0044 -0.1794  0.1528
30044W        W45661  14.675  15.791  15.145  0.2816 -0.1414 -0.1931
30045W        W45662  15.469  16.715   5.105 -0.0888  0.1843 -0.0965
30046W        W45663  10.303  11.455  12.806  0.1201  0.2117  0.0388
30047W        W45664   8.677   7.167  10.239  0.0160 -0.0420 -0.0110
30048W        W45665  11.435   6.941   6.254 -0.0522  0.0818 -0.2196
30049W        W45666  11.074   8.846   2.964  0.4008  0.0340 -0.0156
30050W        W45667   9.950   7.476   1.610 -0.2625  0.0788  0.0964
30051W        W45668  17.484   3.527   0.838 -0.4171  0.0032  0.0084
30052W        W45669   8.959   6.770  16.384 -0.5905 -0.1728 -0.1148
30053W        W45670   9.409   8.567  15.951 -0.0396 -0.0364  0.0576
30054W        W45671   2.140   5.650  12.327  0.1084  0.0730  0.2560
30055W        W45672   3.606  10.962  12.727  0.0406 -0.1218 -0.0690
30056W        W45673  16.867   0.747   4.140  0.2093 -0.2749 -0.2593
30057W        W45674   1.419  12.733   4.699 -0.2031 -0.2340  0.1116
30058W        W45675   4.060   7.006  16.285 -0.2023  0.0228 -0.3357
30059W        W45676   7.572   1.740   5.160  0.0430  0.0331  0.1568
30060W        W45677  13.722   8.603   4.797 -0.1069 -0.0522 -0.0870
30061W        W45678   3.223   1.553  15.241  0.1238 -0.3740 -0.1864
30062W        W45679  15.544  17.244  16.038 -0.1342  0.1079  0.0215
30063W        W45680  14.089   0.425   4.898  0.0313 -0.0006 -0.0394
30064W        W45681   0.275   6.672  15.103 -0.2033  0.1339  0.4551
30065W        W45682   1.583   6.349   0.403  0.0617 -0.1000 -0.0337
30066W        W45683  11.050  11.582   1.691  0.0727 -0.4211  0.3182
30067W        W45684  10.667   3.465  13.805  0.2293  0.1162  0.0190
30068W        W45685   2.056  16.349   3.867 -0.2665 -0.2950 -0.0672
30069W        W45686   0.378   9.295   5.137 -0.2689  0.0661 -0.2580
30070W        W45687  16.987   3.756   3.271  0.0414  0.0958  0.2581
30071W        W45688  13.534   2.720  15.462  0.0981 -0.2142  0.0384
30072W        W45689  16.716   1.321   3.295  0.0089 -0.0977  0.0837
30073W        W45690  12.419  11.967   2.003 -0.0469 -0.3504  0.3701
30074W        W45691  10.168   1.761  14.631 -0.1509 -0.4039 -0.2603
30075W        W45692  15.525  14.528  15.520 -0.1836  0.0595  0.0231
30076W        W45693  12.539   7.606  15.288  0.0507 -0.1666  0.0910
30077W        W45694   0.117   8.609  12.961  0.0066 -0.1311  0.0099
30078W        W45695   9.883   7.455   6.484 -0.3187 -0.1099  0.0297
30079W        W45696  15.367  13.576  12.821  0.2627 -0.1386 -0.0708
30080W        W45697  11.090   0.955   4.223  0.5426  0.1580  0.3522
30081W        W45698  16.775   8.311   1.883 -0.2081 -0.0461 -0.0499
30082W        W45699  10.725  13.155   0.375 -0.1867  0.0129 -0.2171
30083W        W45700   5.507   5.687   5.413 -0.3480 -0.0430  0.1294
30084W        W45701   8.577  11.458   4.181 -0.1265 -0.2593  0.2250
30085W        W45702   1.998   3.143  15.055 -0.2065 -0.0130 -0.0409
30086W        W45703   9.803   2.152  11.795 -0.1992  0.2173  0.0691
30087W        W45704  14.779  16.138  15.543  0.2301  0.0655  0.0766
30088W        W45705   9.695  12.853  15.479  0.2337 -0.0842 -0.0376
30089W        W45706   8.939  17.118   1.233  0.0549 -0.1792  0.1075
30090W        W45707   8.807   7.088  14.264 -0.0561 -0.0513  0.2331
30091W        W45708   5.641   3.313  16.590 -0.1023 -0.1299 -0.1613
30092W        W45709   5.223   1.859   4.952 -0.1623  0.1041 -0.1416
30093W        W45710  16.468   0.563  13.638 -0.4257 -0.0640 -0.0060
30094W        W45711   1.738   3.025  15.597  0.3294 -0.0215  0.2471
30095W        W45712   3.289   3.407   3.854  0.0679  0.0659 -0.1061
30096W        W45713  17.531   0.566  11.723  0.1823 -0.0137  0.1068
30097W        W45714   2.404   6.521   2.844  0.5546  0.1570 -0.2048
30098W        W45715  11.407  12.383  11.969  0.0144  0.0402  0.2181
30099W        W45716  10.066  16.867   0.493 -0.2239  0.2043  0.2478
30100W        W45717  12.883   0.381  16.696 -0.2600  0.0248 -0.1199
30101W        W45718   6.597   0.757   3.532 -0.3177 -0.0962  0.0918
30102W        W45719   5.427   2.349  11.769 -0.0535 -0.1815  0.1810
30103W        W45720  16.678  15.442  13.666 -0.0030 -0.2620  0.1537
30104W        W45721  17.887   4.066   4.715  0.5194  0.3396  0.2627
30105W        W45722   1.307  11.987  12.965 -0.4365 -0.2650 -0.0194
30106W        W45723   4.060   8.835  12.731 -0.1755  0.3439  0.0836
30107W        W45724   0.056   4.559   2.805 -0.1461  0.1713  0.0295
30108W        W45725  13.854   3.546   2.870  0.0118 -0.0480 -0.1660
30109W        W45726   6.740  17.420   2.734 -0.0294 -0.2347 -0.2223
30110W        W45727  14.567   4.578  14.569  0.1399 -0.5191 -0.3140
30111W        W45728  14.276   8.106   4.004  0.1615  0.1634 -0.0691
30112W        W45729   7.822  17.286  10.112  0.3277 -0.1011 -0.0469
30113W        W45730  17.485  17.075   1.203  0.2348 -0.0031 -0.1756
30114W        W45731   8.287   1.988   5.544  0.4185 -0.0709  0.1691
30115W        W45732  10.446   4.247   1.726  0.2835  0.1270  0.1083
30116W        W45733  15.137  11.921   5.338 -0.1161 -0.2309  0.2678
30117W        W45734   4.531   1.789  12.349  0.1982  0.3395  0.0878
30118W        W45735  13.290  10.573  12.888 -0.2232  0.1096  0.1936
30119W        W45736   5.837   0.138   0.713 -0.1125  0.1483  0.2053
30120W        W45737   9.384  10.188  15.693 -0.0606  0.2292 -0.1416
30121W        W45738  15.657  10.710   1.034  0.0911 -0.2033 -0.2070
30122W        W45739   2.505   3.591   0.116  0.4406  0.2794 -0.1033
30123W        W45740  16.304  13.572  11.793 -0.0417  0.0519  0.1050
30124W        W45741  15.338   9.141   0.003  0.2466  0.0380 -0.0347
30125W        W45742  12.885   6.111   4.352 -0.0597  0.0648 -0.0513
30126W        W45743  12.810  11.110  11.234 -0.1801 -0.1055 -0.0834
30127W        W45744  13.172   2.778   5.951  0.2049 -0.2155  0.1272
30128W        W45745   8.027   3.373  12.326 -0.1172  0.1283 -0.0144
30129W        W45746   0.114   1.893   0.045  0.3500 -0.0334  0.3681
30130W        W45747   6.515   3.724  14.508  0.1262  0.3754  0.0959
30131W        W45748   2.433  11.624  11.785 -0.1488  0.1408 -0.2265
30132W        W45749  13.156   8.953   1.211 -0.3329 -0.2358  0.1038
30133W        W45750   9.288   3.784   4.544 -0.0498 -0.2344 -0.0861
30134W        W45751  12.821   0.214   3.986  0.0510 -0.3517 -0.2253
30135W        W45752  14.451   5.788   1.930  0.3396 -0.1014  0.1495
30136W        W45753   4.795   3.039  14.667 -0.0837  0.1745 -0.2279
30137W        W45754   1.548   2.269  13.046  0.1601 -0.2337  0.1404
30138W        W45755  16.264   6.274   3.193 -0.0619 -0.2886  0.1211
30139W        W45756   9.033   2.093   3.308  0.0051 -0.0262 -0.1913
30140W        W45757   7.297   5.172   5.867  0.1315 -0.1350  0.3537
30141W        W45758  14.488   8.409  15.022  0.0569 -0.2286  0.1082
30142W        W45759   2.694   8.725   5.287  0.3241 -0.0150  0.2325
30143W        W45760   0.024   0.313  15.181  0.0488  0.4156 -0.0386
30144W        W45761  12.519   2.764   1.845  0.0068  0.3206  0.0583
30145W        W45762  10.648  12.672   1.998 -0.4678 -0.2022  0.0200
30146W        W45763  11.303   3.311   1.187 -0.1489 -0.2319 -0.4147
30147W        W45764  14.161   1.647  14.660 -0.1178 -0.3068 -0.1603
30148W        W45765  17.451   3.644   3.013 -0.3296 -0.0286  0.3233
30149W        W45766  11.785   0.030  13.789  0.0133  0.3293  0.0443
30150W        W45767   4.423   0.883   3.326 -0.1205 -0.1646 -0.1536
30151W        W45768  10.669   6.986  13.907  0.0388  0.5514 -0.2004
30152W        W45769  10.645  15.575  13.402 -0.1623 -0.0825  0.1023
30153W        W45770   4.084   6.054  14.580  0.2714  0.2436  0.1068
30154W        W45771   5.433   4.808   5.109  0.0162  0.3647 -0.0277
30155W        W45772   5.842   9.572  10.281  0.4722  0.1018 -0.0247
30156W        W45773  17.599  15.259   2.149  0.0130 -0.1748  0.0906
30157W        W45774   5.973   9.937  14.881  0.5445 -0.3341  0.0374
30158W        W45775  16.662  13.328   5.366 -0.1979 -0.1819 -0.3524
30159W        W45776   2.533  16.622   2.867 -0.0986  0.0887 -0.1350
30160W        W45777   0.209   5.771   0.736 -0.1325 -0.2461 -0.4755
30161W        W45778   3.903  16.024   3.921 -0.4882 -0.0446 -0.0212
30162W        W45779   3.627  16.424  11.937  0.0902 -0.2007 -0.1145
30163W        W45780  15.806   3.359   1.398 -0.0152  0.3012 -0.1375
30164W        W45781  15.853  10.894  12.659  0.0648 -0.0521  0.0763
30165W        W45782   0.621  10.954  11.893 -0.1155 -0.1411 -0.0817
30166W        W45783  12.864  17.830  16.538  0.0962 -0.2463 -0.0612
30167W        W45784  17.561   3.489   4.723 -0.0873  0.0627 -0.0424
30168W        W45785   9.971  11.364   3.015 -0.0011 -0.4216 -0.0951
30169W        W45786   2.512   9.753   5.963  0.1734  0.0085 -0.3741
30170W        W45787   4.185  13.403  13.779 -0.3263  0.1562  0.2059
30171W        W45788   1.688   8.584  15.309  0.2694 -0.1131 -0.1232
30172W        W45789   5.870  16.497   4.898 -0.0630 -0.0593  0.0199
30173W        W45790   0.857   1.032   3.496  0.0574 -0.1353  0.0131
30174W        W45791   0.866   8.441  13.385  0.4699 -0.1726 -0.1061
30175W        W45792   6.464   9.063  11.565 -0.0684  0.4170 -0.1887
30176W        W45793   2.650  10.600   3.178 -0.2214  0.2372  0.2737
30177W        W45794   7.308  17.195  15.663  0.3219  0.0083  0.0102
30178W        W45795   6.562  16.741   6.211 -0.2179 -0.3642  0.0915
30179W        W45796  11.011  16.961   5.857 -0.3191 -0.1837  0.0126
30180W        W45797   5.947  14.011   1.955 -0.1443  0.2531 -0.0603
30181W        W45798   6.380   9.608  11.825  0.2805 -0.0633 -0.0250
30182W        W45799  10.585  14.066   3.772  0.2282 -0.0111  0.0262
30183W        W45800   6.776  17.285   3.657 -0.1606 -0.0749 -0.2776
30184W        W45801  16.445   7.240  11.860 -0.1081  0.2406 -0.2673
30185W        W45802   9.790   2.747  12.051  0.1632 -0.0527 -0.1471
30186W        W45803   5.659   2.882   3.398  0.1085 -0.1506  0.3319
30187W        W45804   3.749  10.463  15.227  0.0736 -0.1458 -0.3045
30188W        W45805   4.032   4.796   3.900  0.5048 -0.1362  0.0212
30189W        W45806  12.731  13.567  15.740  0.2515  0.3368 -0.1980
30190W        W45807   9.138  15.575  16.503 -0.0540  0.2141  0.4660
30191W        W45808  16.745  15.516   2.175 -0.1985 -0.1768 -0.2312
30192W        W45809   8.921   9.982   3.608 -0.3760  0.2376  0.1949
30193W        W45810   7.408  12.694  15.821  0.0020 -0.5781 -0.0234
30194W        W45811  16.363   7.997   2.628 -0.3684 -0.2435 -0.2635
30195W        W45812   1.262  11.869  16.572  0.0420 -0.2443  0.1114
30196W        W45813  17.099  13.740  16.292  0.1347  0.1854 -0.0304
30197W        W45814  15.377   1.943  15.356 -0.1291  0.0889 -0.2279
30198W        W45815   6.858   3.194   1.094 -0.4549 -0.1713 -0.3386
30199W        W45816   2.614  14.587   5.334  0.3011 -0.3024 -0.2037
30200W        W45817  16.056   6.125   3.858 -0.1109  0.1691  0.0119
30201W        W45818  13.986  11.305  15.895 -0.2898 -0.1676  0.0910
30202W        W45819   5.372   6.747  11.818  0.0504  0.4451 -0.0430
30203W        W45820  10.041   7.708   0.338  0.0155  0.2112 -0.0252
30204W        W45821   2.420   0.724   2.089 -0.1174 -0.1391 -0.0456
30205W        W45822  13.432   5.565  11.946  0.1237  0.1970 -0.0442
30206W        W45823   4.698   7.466   1.235  0.0504  0.0349 -0.1752
30207W        W45824   4.767  14.068   0.500 -0.1450 -0.1492 -0.3111
30208W        W45825   2.781   4.355   6.526 -0.0886  0.1240 -0.0556
30209W        W45826  14.461   9.699   5.113  0.2484  0.2290 -0.1259
30210W        W45827   8.933   7.091   3.437  0.3428  0.0659  0.2667
30211W        W45828  13.427   6.353  12.661  0.0466 -0.0940  0.0687
30212W        W45829  11.535   6.900  13.814  0.2737 -0.0004  0.0427
30213W        W45830   5.905  12.665  13.087  0.0813 -0.2181  0.1190
30214W        W45831   7.822   3.839  12.438  0.1616  0.0675  0.1883
30215W        W45832   6.649  11.537   0.137 -0.2618 -0.2398  0.2078
30216W        W45833   1.822  12.944   5.175  0.0208 -0.1067 -0.1268
30217W        W45834   7.509   6.529  14.195 -0.1614  0.1939 -0.3374
30218W        W45835   5.311   8.813   4.510  0.2456  0.0758  0.1008
30219W        W45836  13.549   7.988   1.451  0.0641 -0.2406 -0.0148
30220W        W45837  11.485   8.714  11.162  0.1837 -0.1058  0.2502
30221W        W45838   4.482   2.842   4.982  0.2240 -0.0050 -0.1188
30222W        W45839  11.099   9.075   4.105 -0.0012  0.2896  0.3592
30223W        W45840  15.134  10.666   0.972  0.0037  0.3344  0.3235
30224W        W45841  16.208   4.342  12.292 -0.2308  0.0180 -0.0716
30225W        W45842  11.456   8.023   3.167  0.1968 -0.0969  0.0533
30226W        W45843   5.479   2.433  14.240  0.1668  0.0560 -0.2221
30227W        W45844  17.848   9.124   4.234  0.1496 -0.0160 -0.2594
30228W        W45845   5.419   9.565  15.639  0.1766 -0.0307  0.0633
30229W        W45846  11.714   6.720  15.690 -0.4044 -0.0684 -0.2244
30230W        W45847  12.173  10.412  13.076 -0.0707 -0.0706  0.4525
30231W        W45848  12.426   4.644  12.664  0.2364  0.1683 -0.3492
30232W        W45849   6.363  10.099   1.930  0.0541 -0.1054 -0.0537
30233W        W45850   6.763   6.414  13.979  0.1320 -0.0873  0.4650
30234W        W45851   9.063   6.340   1.552  0.0334  0.1185  0.1685
30235W        W45852   9.625   2.571  11.358 -0.2190 -0.0868 -0.0421
30236W        W45853   7.709   0.556  14.633 -0.0363 -0.0329 -0.1390
30237W        W45854  11.908   9.297   0.250  0.4098  0.1466 -0.1005
30238W        W45855  17.603  10.399   5.084 -0.0822 -0.1820 -0.0311
30239W        W45856   2.617   0.619   3.721 -0.0411 -0.2571  0.1360
30240W        W45857  12.293   3.253   3.023 -0.1150 -0.0216  0.3121
30241W        W45858  13.672   3.774  14.406  0.0874 -0.0544  0.2452
30242W        W45859   9.784  16.148   0.627 -0.0052  0.0852  0.0035
30243W        W45860  10.405  12.386  11.773  0.1518  0.2147  0.0887
30244W        W45861   2.333  16.535   1.814 -0.4509 -0.0795 -0.2119
30245W        W45862  17.799   2.531   3.856  0.3835  0.1305  0.3251
30246W        W45863   7.926   5.515   0.275  0.0237  0.1581 -0.1884
30247W        W45864   8.666   7.565   1.062  0.3696  0.1137  0.2057
30248W        W45865  10.727  11.412  12.311  0.0569  0.0111  0.0773
30249W        W45866   1.589  11.256  11.956 -0.1942 -0.0715  0.4861
30250W        W45867   5.164   3.413   2.854 -0.1192 -0.4242  0.1599
30251W        W45868  10.041  11.759   4.364  0.0116  0.2586  0.1498
30252W        W45869   3.526  12.861   3.134 -0.0342 -0.0164 -0.0714
30253W        W45870   3.433   8.857   5.172  0.1372  0.0857 -0.0546
30254W        W45871  13.962   1.805   5.225  0.1718 -0.2698  0.0232
30255W        W45872   0.344   9.921   2.818 -0.0820 -0.1035  0.3859
30256W        W45873  17.780   8.551  16.638  0.1352 -0.1743  0.1228
30257W        W45874  13.529  17.075  12.417  0.1476  0.2325  0.0961
30258W        W45875  10.408   1.805   1.645  0.2507  0.2891  0.2426
30259W        W45876   6.638  14.293  11.420 -0.1573  0.3548  0.2063
30260W        W45877  17.773   0.834  12.915  0.1773  0.1292  0.1916
30261W        W45878  10.528   3.438  16.239 -0.1817 -0.3556 -0.0471
30262W        W45879   6.196   2.516   4.885  0.4209  0.1150 -0.2816
30263W        W45880   0.714   4.861   0.112 -0.0306  0.0018  0.0454
30264W        W45881   3.264   8.267  15.630 -0.2064  0.1234 -0.0849
30265W        W45882  14.198  14.099   2.582  0.2290  0.0708 -0.1202
30266W        W45883   7.362   9.653  16.367  0.1507 -0.0238  0.3859
30267W        W45884   8.363  14.737   1.302 -0.1343 -0.2689  0.0193
30268W        W45885  10.267   2.840   2.294 -0.2586  0.2296 -0.5021
30269W        W45886   4.616  11.981  11.333 -0.4380  0.0914 -0.0241
30270W        W45887  12.873   0.994   4.484  0.2593  0.5533 -0.2926
30271W        W45888   1.447  13.775   0.869  0.1248  0.1587  0.4112
30272W        W45889  11.196   8.396   2.867 -0.0830  0.1261  0.1168
30273W        W45890   3.302  12.458   2.220  0.0365 -0.2192  0.1127
30274W        W45891  13.036   9.800   3.532 -0.1565 -0.0436 -0.4346
30275W        W45892   7.628   6.355  13.736 -0.1547 -0.0106  0.1721
30276W        W45893  11.801   4.395  13.797 -0.2813 -0.3216  0.0924
30277W        W45894   3.021   7.638  11.544  0.2271  0.1463  0.4827
30278W        W45895  17.816   1.515  15.319 -0.0867 -0.0614 -0.1420
30279W        W45896  17.730   8.939   0.355 -0.4462 -0.1940 -0.3985
30280W        W45897   0.146  12.786   1.930 -0.0549  0.1275  0.2847
30281W        W45898   3.338   2.058   0.045 -0.0750  0.0393 -0.0897
30282W        W45899   8.486  14.619  16.145 -0.1408 -0.0287 -0.1445
30283W        W45900  10.902  14.853   2.769 -0.0485  0.2936  0.1731
30284W        W45901   1.347   7.616  14.680  0.1723 -0.0134 -0.3072
30285W        W45902  13.673   7.060   3.278 -0.0203 -0.0439  0.0664
30286W        W45903  13.129   6.570   6.569 -0.5408 -0.1700  0.3012
30287W        W45904  14.263  10.012   3.397  0.5251  0.2396 -0.2426
30288W        W45905  12.524   3.937   4.632 -0.1277  0.0665  0.0366
30289W        W45906   9.843   3.841   5.426  0.0113 -0.0854  0.0936
30290W        W45907  16.287   2.864  14.491  0.0103  0.2305 -0.0903
30291W        W45908   0.602  14.333   3.511 -0.0700  0.1948  0.0566
30292W        W45909  13.307   1.964  13.738 -0.2762  0.3304 -0.0867
30293W        W45910   6.851   1.759   0.647  0.1788  0.0064 -0.0636
30294W        W45911   6.310   5.414   4.307 -0.2482  0.0193 -0.1409
30295W        W45912   6.140   3.386   4.845 -0.4715 -0.0939 -0.4700
30296W        W45913   9.203   8.444   3.192  0.1810  0.2055 -0.0133
30297W        W45914  15.822   3.014   2.397  0.0249 -0.0015  0.1639
30298W        W45915  11.139  15.929   2.462 -0.1938  0.1524  0.0284
30299W        W45916   0.292  17.887   4.112  0.1362  0.0628  0.1767
30300W        W45917  11.295   8.141  15.594 -0.2788  0.2459 -0.0835
30301W        W45918   3.616   7.538   1.052 -0.2918 -0.1508  0.0604
30302W        W45919  17.228   2.686   6.745  0.0322 -0.2384 -0.0657
30303W        W45920   0.909  11.140  12.289  0.0800 -0.1036 -0.2672
30304W        W45921   6.113  15.814  14.786 -0.2067  0.1081 -0.3183
30305W        W45922  10.490   1.160  12.778 -0.2208 -0.4543  0.2435
30306W        W45923   4.144   4.713   5.314  0.1290 -0.1015  0.2084
30307W        W45924   5.424  10.474  12.047  0.2640 -0.0967  0.1035
30308W        W45925  13.492  14.849  11.144  0.2929  0.0374 -0.0488
30309W        W45926   8.430   1.118  16.676  0.0829 -0.1632  0.1590
30310W        W45927  14.813   6.595  13.520 -0.0652  0.3512 -0.0847
30311W        W45928  11.982   9.658  12.631 -0.1780 -0.2005  0.2307
30312W        W45929   2.024   8.912  12.492  0.0163  0.2399  0.3342
30313W        W45930  14.713   4.987   3.262 -0.3725 -0.3205  0.3200
30314W        W45931   0.532  16.323  14.772 -0.0977 -0.3158  0.0768
30315W        W45932   7.244   4.919  11.975  0.1467  0.2366  0.0924
30316W        W45933  15.305   7.801  13.227  0.1702 -0.2530  0.2695
30317W        W45934   5.039   5.474  16.730  0.2488  0.0985  0.2438
30318W        W45935  10.010   5.068  15.769 -0.0526  0.0151  0.3234
30319W        W45936   6.475   6.838  16.508  0.2319 -0.0580 -0.3683
30320W        W45937   9.945   0.026  12.521  0.0277  0.2275  0.2795
30321W        W45938   4.457  16.959   4.644 -0.1353  0.0087  0.2438
30322W        W45939  13.663   9.643  15.166 -0.0875  0.3057  0.2471
30323W        W45940   8.040   9.809   3.866 -0.3363 -0.3366  0.0139
30324W        W45941  13.355   8.070   3.871  0.1676 -0.1888 -0.2361
30325W        W45942   0.822  15.041   4.824 -0.2113 -0.0494  0.0222
30326W        W45943   5.230  13.915   1.878  0.1865  0.3340 -0.2752
30327W        W45944  13.301  14.504  13.059  0.0966 -0.3765 -0.1124
30328W        W45945  15.212  11.771  16.203 -0.0015  0.1220 -0.1860
30329W        W45946   9.102  12.087   4.013 -0.4278 -0.1056  0.0280
30330W        W45947   9.146   6.005  12.855  0.4293  0.1458  0.0261
30331W        W45948   3.125   4.233  15.298  0.2258 -0.2570  0.3148
30332W        W45949  17.794   4.105  16.210  0.2448 -0.0241  0.2112
30333W        W45950   5.823  12.807   3.624  0.1179  0.0938 -0.2002
30334W        W45951   6.978   1.829  16.106  0.2257 -0.0582  0.2466
30335W        W45952  17.680   9.234  14.922 -0.0965  0.0197 -0.1339
30336W        W45953  10.678  17.963   1.445  0.2358  0.1991  0.1931
30337W        W45954   3.241   3.613  13.109  0.0498 -0.0377 -0.1359
30338W        W45955  15.553  11.259  14.470  0.0850 -0.1067  0.1334
30339W        W45956  10.101   0.147   5.658  0.0743 -0.3477  0.0674
30340W        W45957   5.391  13.387   4.384  0.0877 -0.4558  0.1312
30341W        W45958   5.728  10.053  12.842 -0.0312  0.2394  0.2106
30342W        W45959   5.253   9.649   4.996  0.3545  0.4292 -0.1997
30343W        W45960   9.204  11.018  15.310  0.3271 -0.1340  0.0888
30344W        W45961  11.832  13.143  15.347  0.0910  0.0020  0.0339
30345W        W45962   4.526   6.748   0.788 -0.0678  0.1268 -0.1427
30346W        W45963   5.895   3.623  13.777 -0.0329 -0.1812  0.1290
30347W        W45964   4.299  12.655  16.257 -0.0157  0.1823 -0.1892
30348W        W45965  12.587  15.717  15.605 -0.1895  0.0193 -0.1338
30349W        W45966  11.412  14.280   0.530  0.0544 -0.1701 -0.0372
30350W        W45967  17.443  11.602   4.481  0.3323 -0.0381  0.2199
30351W        W45968   2.093   2.169   0.977 -0.0239  0.1719 -0.1030
30352W        W45969  10.706   7.609   4.706 -0.0693  0.1388 -0.2667
30353W        W45970   9.515  16.000   1.024 -0.0793  0.1226  0.2826
30354W        W45971   2.586  12.761   0.854  0.1388  0.2298 -0.0759
30355W        W45972  17.778   6.355   0.225 -0.0091  0.2742  0.2717
30356W        W45973  12.371   2.613  13.069 -0.0029 -0.1554  0.0301
30357W        W45974  10.437   4.353   3.224 -0.0509 -0.3718 -0.1183
30358W        W45975   1.213  15.637   5.752  0.0993  0.0371  0.0023
30359W        W45976   7.255  10.761   0.446  0.2027  0.0025  0.1101
30360W        W45977   0.225  11.063   5.575 -0.1782 -0.1512 -0.0617
30361W        W45978  15.055  17.978   4.761  0.3068 -0.5654  0.0751
30362W        W45979   2.588  13.895  15.179  0.1327 -0.0259 -0.1666
30363W        W45980  11.187   4.859  14.427 -0.2009 -0.1678  0.0220
30364W        W45981   6.828   7.439   1.678  0.0190  0.1958 -0.0198
30365W        W45982  10.021   2.945   3.253 -0.0114  0.0160 -0.4187
30366W        W45983  14.061   7.394  14.320  0.0690  0.0986 -0.0285
30367W        W45984  13.973   0.460   3.470  0.2029  0.3665  0.3279
30368W        W45985   4.931   9.413   3.151 -0.0700 -0.2858  0.1607
30369W        W45986  16.036   8.775  11.723 -0.0356  0.0400  0.1822
30370W        W45987  12.270   2.178  13.412  0.1223  0.0664 -0.1777
30371W        W45988   5.800   0.120  12.740 -0.1366  0.1168  0.0049
30372W        W45989   8.698  12.285  15.552 -0.3971 -0.1463 -0.3226
30373W        W45990  13.429  13.488   0.365  0.0779 -0.0102 -0.1031
30374W        W45991  16.544   0.922  16.604 -0.0525 -0.1494  0.1233
30375W        W45992   0.937   1.723  15.649  0.1425 -0.2047 -0.0495
30376W        W45993   8.424  15.525  16.374 -0.5366 -0.1895 -0.2511
30377W        W45994   5.448   5.514   1.639 -0.1863  0.0105  0.3211
30378W        W45995  16.354   5.188   6.018 -0.0316  0.0156  0.1075
30379W        W45996   1.881  17.838  13.367  0.2902  0.0891 -0.1952
30380W        W45997  14.363  16.127   0.103  0.0730  0.2520  0.0916
30381W        W45998  16.758  12.156   0.193 -0.1967 -0.0532  0.1160
30382W        W45999   7.376  13.999   5.336  0.0821 -0.1149 -0.0661
30383W        W46000   6.572   2.059  16.463 -0.0693 -0.1166  0.1250
30384W        W46001  16.435  15.009   0.475  0.1629 -0.2249 -0.2562
30385W        W46002   7.111   6.617  12.067 -0.3595  0.0608 -0.0707
30386W        W46003   3.923  14.041   4.218  0.0536  0.0046  0.3604
30387W        W46004  16.899   1.454  13.907 -0.0005  0.1230  0.3044
30388W        W46005  13.397   0.512  14.423  0.1197 -0.0413 -0.3383
30389W        W46006   2.381  12.607   4.086 -0.3349 -0.0225  0.1570
30390W        W46007  14.898  11.642   0.059 -0.5467  0.0910  0.0472
30391W        W46008  15.777  12.180  12.929 -0.1075 -0.2470 -0.2211
30392W        W46009  14.659   0.332  16.690 -0.1108 -0.2483  0.0389
30393W        W46010   7.227  16.767   4.322  0.1645  0.2081 -0.2600
30394W        W46011  16.315  14.049   4.500 -0.0338 -0.4350  0.2420
30395W        W46012  15.306   1.791   3.706  0.3643 -0.0999  0.0649
30396W        W46013   6.533   5.283   4.695 -0.1202  0.0715 -0.0710
30397W        W46014  13.400   2.559   2.578 -0.1920  0.3375 -0.1110
30398W        W46015  11.234  16.680   1.661  0.0604 -0.2864 -0.0854
30399W        W46016   0.750  10.641   1.705  0.0124 -0.1026 -0.0104
30400W        W46017   0.473  11.784  13.959 -0.3177  0.0639 -0.0908
30401W        W46018   0.746   7.313  13.263 -0.2067 -0.1419  0.1141
30402W        W46019   5.747   6.328   5.216 -0.1718 -0.1220 -0.0073
30403W        W46020  13.893  13.089  15.175  0.1616  0.1655 -0.2529
30404W        W46021  16.970  13.776  13.782  0.1330  0.0595 -0.0317
30405W        W46022   2.849   7.538   1.353 -0.1629 -0.0788 -0.0270
30406W        W46023   9.496   1.227  12.263  0.2000 -0.1107  0.0093
30407W        W46024  12.576  15.038  16.381  0.0317 -0.2378 -0.0066
30408W        W46025   5.391  11.468   2.395 -0.4010  0.1194 -0.2478
30409W        W46026   3.288  14.888  10.590 -0.0259 -0.1524  0.1096
30410W        W46027   0.034   6.541  12.257  0.0818 -0.0813  0.0121
30411W        W46028   6.484  15.843   2.899 -0.2701 -0.1914  0.0741
30412W        W46029   6.932   8.569  12.771 -0.3188 -0.1843 -0.0143
30413W        W46030   0.502   1.791  14.724  0.0409  0.1068  0.1777
30414W        W46031   4.489   8.342   5.522 -0.2116  0.0614  0.2050
30415W        W46032   0.865   9.749  13.162 -0.1240  0.0095 -0.0682
30416W        W46033  13.013  12.287  14.386 -0.1463  0.1738  0.1575
30417W        W46034   6.026  17.120   3.132 -0.4324  0.1771 -0.2601
30418W        W46035   1.778   9.315  13.872  0.1873  0.2727  0.1030
30419W        W46036   6.284   5.892  12.385 -0.0181  0.0419 -0.0001
30420W        W46037   6.277  12.798  15.225  0.1405  0.1145  0.1417
30421W        W46038  11.931  17.608  13.698 -0.0527  0.1355 -0.2132
30422W        W46039  13.214  11.138   4.661  0.2830 -0.0104  0.1787
30423W        W46040   7.321   7.596  13.850 -0.1468  0.0756  0.2801
30424W        W46041  13.414  10.109   1.397  0.0766  0.4164  0.1834
30425W        W46042   6.986   8.809  13.281  0.1464 -0.1028 -0.1989
30426W        W46043  17.220  13.103   3.423 -0.1713 -0.2674 -0.3062
30427W        W46044   1.556   8.448  14.818  0.0021 -0.3549 -0.3010
30428W        W46045   3.066  14.090   0.015  0.0824  0.0234  0.0261
30429W        W46046   8.251  13.267   2.640 -0.1222  0.2881  0.2143
30430W        W46047  12.894  17.713   3.055  0.1247 -0.0342  0.0774
30431W        W46048  11.860   5.623   1.869 -0.0159  0.3305  0.1204
30432W        W46049  13.684   6.195   3.445  0.1507  0.0006  0.2810
30433W        W46050  16.790   3.233   0.114 -0.0493  0.2076 -0.2675
30434W        W46051   0.821   9.939   3.142 -0.0795 -0.2831 -0.0208
30435W        W46052  17.329   7.694   5.182 -0.4539  0.1018 -0.1791
30436W        W46053   5.267   7.060   3.938  0.0668 -0.3832 -0.0948
30437W        W46054   9.392  14.847  14.355 -0.2426 -0.1446 -0.0325
30438W        W46055   7.979   7.385   4.428  0.0995  0.4115  0.1069
30439W        W46056  16.237   4.302   2.503 -0.1384 -0.0366 -0.2146
30440W        W46057  10.013   4.714   2.519  0.2063 -0.1768  0.0458
30441W        W46058  13.616   9.110   1.143  0.1591 -0.1733 -0.0396
30442W        W46059   5.151   7.872  14.512 -0.5831  0.1787  0.1117
30443W        W46060   4.952   6.863   4.409 -0.1557  0.0457 -0.0146
30444W        W46061   6.452   2.885  14.160  0.0536  0.2015  0.2708
30445W        W46062   9.925  11.361   1.028  0.3751  0.0449  0.1011
30446W        W46063   2.989  10.875  15.236 -0.2615 -0.0318  0.1042
30447W        W46064  16.988   6.689   4.608 -0.0944  0.0274 -0.2224
30448W        W46065  10.506   3.154  16.752 -0.1023 -0.2201 -0.2993
30449W        W46066   2.980  10.939   1.608  0.1355  0.0401  0.1297
30450W        W46067   5.386   8.078  11.819  0.0065 -0.0811  0.0235
30451W        W46068   3.590  12.210  14.062 -0.1329  0.4359  0.1621
30452W        W46069   5.294  17.167  15.848  0.1490  0.1292 -0.2067
30453W        W46070  16.467   8.563  11.539  0.0505 -0.2110  0.1444
30454W        W46071   4.279  14.596  14.841 -0.0276  0.0017 -0.0927
30455W        W46072  11.002  13.619   0.215  0.0714  0.0080 -0.0766
30456W        W46073   6.111   3.644  11.890 -0.0835  0.0988  0.0666
30457W        W46074   7.539  15.840   0.059 -0.0703 -0.0496 -0.1697
30458W        W46075  17.630  17.518  13.545 -0.0770 -0.0324 -0.0620
30459W        W46076  15.380   6.011   2.191 -0.1338 -0.1337  0.0523
30460W        W46077  15.484   4.332   5.246 -0.3490  0.0141  0.1150
30461W        W46078   0.895   8.790   4.749 -0.0021 -0.0242  0.1310
30462W        W46079   8.941   8.385  13.260  0.1295 -0.5284  0.0854
30463W        W46080   3.031   6.058  12.352 -0.1022  0.0567 -0.1192
30464W        W46081   3.483   6.141  16.587  0.1834 -0.0184  0.0471
30465W        W46082  17.316  14.128  14.020  0.2458 -0.0393  0.2683
30466W        W46083   7.508   6.946   5.157  0.0200 -0.2653  0.0199
30467W        W46084   9.779   3.950   0.542 -0.1497  0.0022  0.0895
30468W        W46085  14.538   5.587   0.134  0.0735  0.0231 -0.0460
30469W        W46086   7.567  16.581  15.588 -0.0605  0.4119 -0.0679
30470W        W46087   2.498  17.396  15.056  0.3181  0.2269 -0.1034
30471W        W46088  17.565  12.955  13.279 -0.3495 -0.1252 -0.1094
30472W        W46089   9.452  17.222   0.084 -0.0697  0.3341 -0.0702
30473W        W46090   0.426   3.700   5.111  0.2377 -0.1204  0.1476
30474W        W46091   1.785   5.383  15.459  0.1576 -0.0250  0.2200
30475W        W46092  16.541  17.610  11.763  0.1490 -0.0763 -0.1510
30476W        W46093   6.355  16.963   0.320  0.1333 -0.2321 -0.0857
30477W        W46094  16.964   5.337  14.360  0.0331  0.0914  0.0626
30478W        W46095   6.499   4.659  11.566 -0.0234 -0.0024  0.1280
30479W        W46096   0.613   2.901   5.738 -0.1988 -0.3095  0.0375
30480W        W46097   1.789   9.024   5.085 -0.3328 -0.2130 -0.1959
30481W        W46098   2.238  16.530   4.242 -0.0841  0.0220 -0.0839
30482W        W46099  10.297   4.768  11.167  0.3910 -0.5058  0.2356
30483W        W46100  12.249   6.709  15.452  0.0007  0.2060  0.0867
30484W        W46101   0.630   7.563   2.551 -0.0363 -0.1237  0.1684
30485W        W46102  11.134   4.972   4.660  0.4119 -0.1401  0.3497
30486W        W46103  14.472   7.335   3.561 -0.0785 -0.3891 -0.0904
30487W        W46104   5.387  17.159   5.549  0.0912 -0.0030  0.0597
30488W        W46105   1.241  17.748   4.946 -0.0763  0.5373 -0.0261
30489W        W46106   9.702  14.257   4.007  0.1350 -0.1376 -0.1914
30490W        W46107   5.275  13.415  13.279 -0.1391  0.0405 -0.0113
30491W        W46108  16.120   9.914   2.862 -0.1662  0.2175 -0.1578
30492W        W46109   3.313   7.925  14.975  0.0604 -0.1741 -0.3376
30493W        W46110   8.603   0.950  11.743  0.0650 -0.2048  0.0363
30494W        W46111  15.164  13.937   4.609  0.0204 -0.1584 -0.1188
30495W        W46112   1.721  14.972  16.488 -0.1974 -0.1154  0.2165
30496W        W46113   0.862   9.772   4.554  0.1220 -0.1742 -0.1309
30497W        W46114   7.201  16.585  16.516  0.1226 -0.1753 -0.1544
30498W        W46115  14.497  14.090   5.308  0.0378 -0.0616  0.6454
30499W        W46116   7.146  10.679  11.250 -0.0980 -0.1190 -0.1123
30500W        W46117   5.759   7.948  15.768 -0.1005 -0.0605  0.3030
30501W        W46118  14.557  14.188   4.784  0.1360 -0.0779  0.1408
30502W        W46119  15.616   5.385  13.916  0.0087 -0.1378  0.3685
30503W        W46120  14.672   5.755   4.862 -0.2111  0.0527 -0.2346
30504W        W46121  10.477  17.013   5.051  0.2821  0.0972  0.0171
30505W        W46122  13.801  11.645   1.864 -0.1675  0.4964 -0.1062
30506W        W46123   1.929   4.998   1.834 -0.1603 -0.3019 -0.1946
30507W        W46124  11.121  14.699  14.288 -0.1492  0.3060  0.0351
30508W        W46125   3.772  11.992  15.279 -0.3042  0.0550  0.0955
30509W        W46126   5.308   3.614  12.326  0.0904 -0.1370 -0.3760
30510W        W46127  10.370  10.388   4.098 -0.1884 -0.2238 -0.2559
30511W        W46128   8.159  16.597  14.659  0.1093 -0.2376  0.2335
30512W        W46129  16.376   2.778   2.998  0.2415 -0.0078 -0.1605
30513W        W46130   6.127   7.394   5.659 -0.2232  0.0419  0.0767
30514W        W46131   4.430  10.898   0.527 -0.1058 -0.0680 -0.0190
30515W        W46132  15.030  12.417   4.260  0.1557 -0.4403  0.2389
30516W        W46133   0.471   3.403  13.391  0.3648 -0.1161  0.2677
30517W        W46134  13.280   9.943   4.221  0.1308 -0.1800 -0.2653
30518W        W46135   1.114   3.777   3.303 -0.0577 -0.0888 -0.0640
30519W        W46136   5.955  11.142   3.918  0.0948  0.0308  0.4592
30520W        W46137   8.243   8.227  16.256 -0.3537 -0.0639  0.0557
30521W        W46138   7.694   4.195  15.067 -0.1719  0.2410  0.1750
30522W        W46139   7.161   9.858  15.623 -0.3431 -0.1520  0.2497
30523W        W46140   9.677  16.337   5.816  0.0188  0.0684  0.0175
30524W        W46141  13.808  12.827  16.677  0.1895 -0.1164  0.1070
30525W        W46142   5.424  14.996  12.476 -0.2263  0.1412  0.0678
30526W        W46143   5.887   7.035   4.011  0.1290 -0.2189 -0.3863
30527W        W46144   8.790  18.035   3.414  0.0137  0.1050  0.1623
30528W        W46145   4.028   1.473  13.433 -0.0942 -0.0883  0.1388
30529W        W46146   6.940   4.365   2.175  0.1295 -0.1087  0.0165
30530W        W46147   7.947   8.876  13.975 -0.0735 -0.0478  0.4080
30531W        W46148   1.798   1.500   5.896  0.1005  0.3185 -0.0574
30532W        W46149  10.066  16.537  13.171 -0.1601 -0.0262  0.0100
30533W        W46150   1.375   6.617   1.696  0.0505 -0.0004 -0.0433
30534W        W46151   0.452   4.582   5.821  0.2113  0.2212  0.2156
30535W        W46152  11.929   3.378   3.469 -0.0959  0.1145  0.0485
30536W        W46153  15.627  13.552  14.763 -0.0624 -0.4268  0.0072
30537W        W46154  16.615  16.558   1.624  0.2524  0.0580 -0.2385
30538W        W46155   1.765  12.644   2.645 -0.0781 -0.2175 -0.3491
30539W        W46156   1.936  11.951  10.736 -0.0254  0.0915  0.0282
30540W        W46157  17.538  17.873   6.430  0.0921  0.0505  0.1478
30541W        W46158   4.155   6.409   0.255  0.0080  0.0216 -0.0302
30542W        W46159  11.701   3.192  16.076 -0.0880  0.0551  0.1552
30543W        W46160  16.111   0.219   0.509 -0.0215 -0.1936 -0.0683
30544W        W46161   0.578   4.186   2.890  0.2907 -0.2896  0.0522
30545W        W46162   7.397  14.113  12.515 -0.3601 -0.3217 -0.0601
30546W        W46163   6.590  16.010  16.104  0.0537 -0.2526  0.2036
30547W        W46164   8.936  11.004  14.878 -0.0711  0.0134 -0.1043
30548W        W46165   9.471  12.577   2.749  0.4447 -0.1770  0.1653
30549W        W46166   8.367   2.444  15.156  0.0320 -0.0482  0.2817
30550W        W46167   5.021  17.251   2.098  0.1021 -0.0978  0.1775
30551W        W46168  11.589  12.556  14.639 -0.1399  0.1844 -0.1599
30552W        W46169  10.371  13.652   2.468 -0.1448  0.1950 -0.1727
30553W        W46170   7.324   1.335   2.554 -0.0772 -0.0843 -0.0397
30554W        W46171   5.038  11.605  14.441 -0.1670  0.0278 -0.1599
30555W        W46172   1.517   1.993   5.091  0.0792  0.2998 -0.2691
30556W        W46173   7.930   4.897  15.769  0.0896  0.1653  0.0236
30557W        W46174  12.830  16.140   0.948  0.0412  0.0692  0.2202
30558W        W46175   7.496   9.520   4.575  0.2094 -0.0023  0.2269
30559W        W46176  11.267   5.149  12.715  0.1549  0.0549 -0.1259
30560W        W46177   5.195  11.285   1.713  0.0960 -0.0991 -0.0518
30561W        W46178   8.842  13.325   3.859 -0.2059 -0.0795 -0.1022
30562W        W46179   2.589  12.499   5.444  0.1225  0.2269 -0.3071
30563W        W46180   4.029  11.503   5.004 -0.2776  0.0210  0.0467
30564W        W46181  12.347  17.175  16.619 -0.0481  0.1329  0.1329
30565W        W46182  14.657   6.447  14.777  0.1311  0.0937 -0.1400
30566W        W46183   7.538   7.472  16.403 -0.1998  0.1563 -0.3567
30567W        W46184   9.841  14.116   0.913 -0.0513  0.0230 -0.2503
30568W        W46185   4.117  15.729   4.667  0.0470  0.0932 -0.2504
30569W        W46186  17.494  16.977  12.375  0.1095 -0.0869 -0.0453
30570W        W46187  11.997  17.499   2.535 -0.1871  0.3221  0.0816
30571W        W46188   4.048   1.967   1.568 -0.0655  0.2530 -0.1114
30572W        W46189  16.953  14.470   6.037 -0.0604  0.4535 -0.1238
30573W        W46190  10.413  13.212   3.535 -0.1043  0.2154 -0.0318
30574W        W46191   5.086  12.727  11.910 -0.1322  0.1023  0.1929
30575W        W46192   6.990   6.996   5.111  0.0057  0.3025 -0.1300
30576W        W46193   3.407  16.171   0.038 -0.0739 -0.2377 -0.0365
30577W        W46194   2.954   1.635   6.256  0.3884  0.1198 -0.1229
30578W        W46195   1.865  17.813  11.134 -0.2954  0.0287 -0.0167
30579W        W46196  13.451  13.343  15.133  0.0814 -0.1518  0.1382
30580W        W46197   8.749  11.504   1.687 -0.1046  0.2959  0.0795
30581W        W46198  14.511   7.526  11.104  0.0662 -0.0675 -0.0087
30582W        W46199   3.735   0.321   2.293 -0.2009 -0.3937  0.1255
30583W        W46200  15.419   0.319  15.282  0.2565  0.0442  0.0941
30584W        W46201   6.862  12.824  14.347 -0.1681 -0.0811 -0.0007
30585W        W46202   5.084   0.419  15.985  0.1218  0.0812  0.0678
30586W        W46203   6.563   2.372   2.300 -0.0417  0.1537 -0.3414
30587W        W46204   7.925  11.091   4.865  0.0064 -0.2986  0.2309
30588W        W46205  12.081  14.721   4.475  0.0010 -0.1869  0.1460
30589W        W46206   9.967   9.084  14.931  0.1794 -0.1676  0.0688
30590W        W46207  13.263   7.765   1.113 -0.0265  0.1007 -0.1209
30591W        W46208   9.625   3.464  12.973  0.3832 -0.0355 -0.2579
30592W        W46209  17.358   6.567   5.071  0.1726  0.0339 -0.0893
30593W        W46210   1.879  15.074  11.979  0.0427 -0.1264 -0.0220
30594W        W46211   0.608  15.525   4.762  0.1121  0.0179  0.2251
30595W        W46212  12.090  15.881   2.258 -0.1756  0.0412  0.2345
30596W        W46213   7.737   1.413  12.033  0.1533 -0.0823  0.2240
30597W        W46214   1.164  13.525  15.587  0.2172 -0.1524  0.1908
30598W        W46215   9.308  17.331   5.792 -0.0272 -0.1345 -0.2093
30599W        W46216  16.535  13.742   1.421 -0.0485 -0.1990 -0.0848
30600W        W46217  15.102   3.241  16.363  0.0274  0.1323  0.0602
30601W        W46218  17.139   3.278  14.342 -0.0544 -0.1056 -0.0970
30602W        W46219  14.320  16.743   1.424  0.0479 -0.1112  0.1060
30603W        W46220   5.483  15.768   4.959 -0.2351  0.0097 -0.1237
30604W        W46221  16.347   4.469   3.207  0.0474  0.1932  0.1602
30605W        W46222   2.268  11.707  15.100  0.0065  0.0077  0.0215
30606W        W46223  16.181   1.131  12.966 -0.0764  0.0823 -0.3702
30607W        W46224  10.476  14.682   2.494 -0.0171 -0.0161  0.1558
30608W        W46225   3.363   7.114  13.776 -0.1330  0.0047 -0.0033
30609W        W46226  10.049   7.820  15.671 -0.0550  0.4459 -0.0065
30610W        W46227  10.892  12.697   4.231 -0.0580  0.1225 -0.0916
30611W        W46228  15.354   9.030   1.482 -0.1084  0.0113 -0.5189
30612W        W46229   4.646  13.214   2.243  0.0849  0.0889 -0.0322
30613W        W46230   8.549   0.995   3.461 -0.1173  0.0992  0.0618
30614W        W46231  10.234   3.801  16.033 -0.1584  0.3592 -0.0570
30615W        W46232   6.950   2.897   4.770 -0.1684 -0.0163 -0.0547
30616W        W46233   3.099   2.049   6.671 -0.0200  0.1681  0.1624
30617W        W46234  12.080   8.711   5.974 -0.0123  0.1682  0.0953
30618W        W46235  11.639  11.696  10.639 -0.0328  0.2609 -0.0377
30619W        W46236  10.756  14.466   1.295  0.3199  0.2495 -0.0398
30620W        W46237  17.689   1.604  14.816  0.3656 -0.0012 -0.1137
30621W        W46238  12.050   5.841   1.172  0.0828 -0.5015 -0.1347
30622W        W46239   5.713  13.299   1.372  0.0129 -0.1347 -0.1273
30623W        W46240  15.398   6.440   0.458  0.1024  0.0049 -0.5859
30624W        W46241   3.464   1.029   1.266  0.1033 -0.0329  0.0331
30625W        W46242   2.933  16.917  16.110 -0.0227  0.0650 -0.2641
30626W        W46243   6.567   3.046  11.008 -0.1353 -0.1722  0.1664
30627W        W46244  13.683  11.974   4.983 -0.2871 -0.1391 -0.2739
30628W        W46245  10.531  17.684   3.035  0.0165  0.2955  0.0130
30629W        W46246  16.774  12.268  12.372 -0.1361 -0.1559  0.0230
30630W        W46247   4.374  17.940  13.384 -0.0555  0.0116 -0.5365
30631W        W46248   5.529   8.483  14.957 -0.0859  0.2488  0.2997
30632W        W46249   6.136  11.617   4.853  0.1130  0.2242  0.3543
30633W        W46250   9.404  13.406   3.598  0.1893 -0.1330 -0.0378
30634W        W46251   8.965   1.067  15.776  0.2647  0.2139 -0.0494
30635W        W46252  17.086  16.727  16.458  0.0270 -0.1529  0.2280
30636W        W46253  17.269   2.531  12.684 -0.1094  0.0212 -0.1214
30637W        W46254   1.737   0.392   4.051  0.0659  0.2778 -0.1368
30638W        W46255  13.263  11.826  15.588 -0.0178  0.0468  0.1346
30639W        W46256  10.047   9.064  15.762 -0.1617 -0.2985 -0.0209
30640W        W46257   1.759   4.254   4.219  0.2932 -0.0780 -0.3082
30641W        W46258   2.658   8.299  16.296  0.1297 -0.1164  0.1697
30642W        W46259   3.192   0.399  15.424 -0.2613 -0.0670  0.0069
30643W        W46260   3.950  10.772   4.676 -0.0675  0.1298 -0.0158
30644W        W46261  17.560  14.925   1.178  0.1569 -0.0602  0.1911
30645W        W46262   0.703  16.452  15.888 -0.1206  0.0437  0.0948
30646W        W46263  11.910   9.700   1.036  0.1501 -0.0335  0.0172
30647W        W46264  13.813   3.905  11.703 -0.1533 -0.0234  0.3166
30648W        W46265   1.169  11.447  15.004 -0.1506  0.0647 -0.0865
30649W        W46266  16.023   3.786   3.981 -0.0625 -0.2151  0.1708
30650W        W46267   9.594   0.996  12.761 -0.1912  0.0235 -0.2256
30651W        W46268   8.620   6.007  16.411  0.1108  0.0910  0.1463
30652W        W46269  16.632  11.965  15.131  0.1602 -0.2200 -0.0067
30653W        W46270   1.788  12.409   5.459  0.2727 -0.1491 -0.0379
30654W        W46271  10.093  15.285  12.765 -0.5305 -0.0492  0.2617
30655W        W46272  16.347  14.945  15.591 -0.0709 -0.3397 -0.2041
30656W        W46273   2.178  15.960   3.596 -0.0715 -0.0244  0.0521
30657W        W46274   3.918   9.314  13.055  0.2029  0.0719 -0.0054
30658W        W46275  13.641   2.903   0.965 -0.0322 -0.0817  0.0485
30659W        W46276   0.757  17.380  14.897 -0.1430 -0.0124 -0.1243
30660W        W46277   1.931  13.143  11.287 -0.0521  0.4314  0.3020
30661W        W46278  16.792   1.566  12.382  0.1321  0.0100  0.1799
30662W        W46279   7.817   4.075   2.226  0.4139  0.2392 -0.1207
30663W        W46280   3.367  13.043  13.094 -0.1131  0.2731  0.0594
30664W        W46281   7.196  15.239   1.984 -0.1206 -0.0940 -0.0079
30665W        W46282   5.658  11.130  11.380  0.0663  0.1231 -0.4030
30666W        W46283   1.220  17.001  14.630  0.1109 -0.0649 -0.4907
30667W        W46284   8.091   3.843  16.769 -0.0521  0.0928 -0.0626
30668W        W46285   2.987   3.321  15.709 -0.0963 -0.0225  0.1751
30669W        W46286  10.695   8.665   3.262 -0.0930 -0.1701  0.0376
30670W        W46287  14.949  10.310   3.513 -0.0728  0.2328 -0.6580
30671W        W46288   0.056  11.976  16.470  0.0813 -0.3622  0.2679
30672W        W46289   4.486  17.542   3.913 -0.2720  0.0309  0.0922
30673W        W46290  14.213   5.082  13.125  0.0161 -0.3984  0.0343
30674W        W46291  11.777  17.264  15.101  0.4934 -0.1635 -0.1512
30675W        W46292  14.079   0.155  15.017  0.0581 -0.2729  0.2441
30676W        W46293   6.754  15.125   5.327 -0.0228  0.2189 -0.1545
30677W        W46294  17.371  16.744   1.582  0.1875  0.0871 -0.1431
30678W        W46295  11.906   7.216   2.139 -0.0091 -0.0903 -0.0018
30679W        W46296  17.738  15.010   5.740  0.0357  0.1002  0.1012
30680W        W46297   9.423   2.163   5.471 -0.0505 -0.0333  0.0039
30681W        W46298   3.917   2.516   4.805 -0.0602 -0.2852 -0.0733
30682W        W46299   8.271  15.604  14.507 -0.1611 -0.1093 -0.1542
30683W        W46300   4.792   7.532   5.361 -0.4949 -0.3287 -0.1214
30684W        W46301  15.657   9.854   4.090 -0.0059 -0.0510 -0.1567
30685W        W46302  11.584  11.534   3.393  0.0333 -0.0316  0.1121
30686W        W46303   6.954  11.173   1.299  0.0602 -0.2747 -0.0852
30687W        W46304   5.225  12.416   2.429  0.0711  0.0371 -0.3563
30688W        W46305  11.073  17.930   2.365  0.1782  0.0217  0.2226
30689W        W46306  15.267  17.777  13.387  0.1394 -0.0495 -0.2222
30690W        W46307   8.418  15.680   5.078  0.0983  0.0526  0.3240
30691W        W46308   2.660   3.497   3.529  0.1139  0.0885  0.2381
30692W        W46309  17.394  14.386   3.731  0.2694  0.1353  0.1038
30693W        W46310   6.752   5.704  15.420  0.0314  0.0622  0.3065
30694W        W46311   9.495   2.588  12.515  0.2933 -0.0847 -0.4885
30695W        W46312   9.874  14.530   4.505 -0.2229 -0.0858 -0.0964
30696W        W46313  17.761  16.648   1.293  0.3058  0.0574  0.0149
30697W        W46314  14.247   0.539  12.647 -0.1284  0.2088  0.0796
30698W        W46315   1.233   8.747  14.538 -0.5831  0.0818  0.2436
30699W        W46316  14.315  17.490  11.955  0.0693  0.2159 -0.2770
30700W        W46317  14.389  16.860  13.171 -0.0238 -0.3058  0.0981
30701W        W46318  17.770   2.340   2.130  0.3946  0.0903 -0.2722
30702W        W46319   5.980  15.275  11.089 -0.2919 -0.0131 -0.5305
30703W        W46320   6.552   9.286   3.702  0.2393 -0.3383 -0.1025
30704W        W46321   5.217  10.663  14.785  0.3317  0.1715  0.2793
30705W        W46322   9.484   6.358   0.643 -0.0746  0.0545 -0.0072
30706W        W46323  12.588  17.866  12.048  0.1581 -0.0055 -0.0311
30707W        W46324  15.763   7.679  11.912 -0.2264  0.1465 -0.1661
30708W        W46325  10.535   5.745   2.153  0.2650  0.0010  0.1597
30709W        W46326   6.137  10.932  14.168  0.0383 -0.0131 -0.5736
30710W        W46327   8.878   7.293   5.027  0.3096 -0.2341 -0.3991
30711W        W46328   4.771  16.187  16.637  0.3002 -0.5300  0.0089
30712W        W46329  16.909   8.639  16.793 -0.0209 -0.1510  0.0479
30713W        W46330  16.102  15.839  14.117 -0.1251  0.5078  0.0873
30714W        W46331   1.815   1.943  11.754 -0.1641 -0.0960 -0.0409
30715W        W46332  11.596  16.933  13.295 -0.1151 -0.0121  0.0304
30716W        W46333   8.384   1.193   0.464 -0.0244  0.1981  0.0395
30717W        W46334  11.883   7.717  12.044 -0.2820 -0.2516 -0.0436
30718W        W46335   7.226   9.935   5.086 -0.1570 -0.0100  0.2589
30719W        W46336   6.867   7.586   5.445  0.0651 -0.1463  0.0351
30720W        W46337   9.526  10.541  12.470  0.1453  0.1185  0.1703
30721W        W46338  15.903   5.441   2.987 -0.1998 -0.1882 -0.1767
30722W        W46339  11.568  13.489  11.774 -0.2020  0.1066  0.0976
30723W        W46340  15.385   9.573   5.274  0.0033 -0.0952 -0.0612
30724W        W46341   9.925   3.062   2.584  0.0415 -0.3723  0.3208
30725W        W46342   7.421  15.721   4.124 -0.2029 -0.1517 -0.0724
30726W        W46343   6.412   3.815   2.389 -0.0967  0.0920 -0.1249
30727W        W46344  11.421  15.748   5.596  0.1744  0.4326  0.1808
30728W        W46345   5.802   1.118  12.340  0.1167  0.1284 -0.1272
30729W        W46346   7.058   7.314   2.737 -0.0885  0.1939 -0.0842
30730W        W46347   0.652   6.959  15.335  0.0013 -0.0878  0.2558
30731W        W46348   6.736   8.830   1.806  0.0632  0.2546  0.1520
30732W        W46349   3.735  17.331   3.876 -0.0075  0.1996 -0.3039
30733W        W46350  11.154  11.899  15.231  0.2859  0.2119 -0.3254
30734W        W46351   8.395  12.610  11.035  0.3646  0.0966 -0.0248
30735W        W46352   2.940  12.300  15.426  0.1754  0.1828 -0.1823
30736W        W46353  12.780   3.759   1.706  0.1042  0.1066  0.1210
30737W        W46354   7.529  10.413   0.711 -0.1491 -0.2947 -0.0477
30738W        W46355   4.119   4.415   4.851 -0.1754  0.2217  0.4879
30739W        W46356  10.350   8.626  15.969  0.0326 -0.2174  0.0828
30740W        W46357  15.819   1.041  15.742 -0.1923 -0.1648 -0.4118
30741W        W46358   0.426   0.585   0.467 -0.3743  0.1224 -0.0081
30742W        W46359  16.072   8.401  16.245 -0.0356  0.0723  0.0833
30743W        W46360   1.070  17.279   0.417  0.3533  0.1222  0.1080
30744W        W46361  16.298   7.672   1.585 -0.1577  0.1596  0.0354
30745W        W46362  17.207  16.255   4.092 -0.1634  0.0093 -0.0245
30746W        W46363   7.736  11.413  11.424 -0.2855 -0.0194  0.0986
30747W        W46364   9.182   8.264   1.324  0.2590 -0.0458 -0.1974
30748W        W46365  15.390   5.257  14.458 -0.0116 -0.2995  0.2150
30749W        W46366   2.543   6.017   3.211  0.2408 -0.1464 -0.1697
30750W        W46367   0.432  10.991  12.389  0.1046  0.0592  0.0444
30751W        W46368   0.884  17.269   3.635 -0.0960 -0.5678  0.0389
30752W        W46369  14.475   5.007  12.603  0.0697  0.1076  0.0143
30753W        W46370   6.677  11.045   2.663 -0.0396  0.1195 -0.1205
30754W        W46371   6.951   1.902   1.560  0.1875  0.2579  0.4370
30755W        W46372   4.481  12.957   4.528 -0.2470 -0.2161 -0.0181
30756W        W46373  13.819  12.643  14.837 -0.0964 -0.1344  0.1619
30757W        W46374   6.946   5.434   4.141 -0.0367  0.2699  0.0892
30758W        W46375   0.893  13.847  12.309  0.4244 -0.1477  0.0102
30759W        W46376  12.406  13.824   0.729  0.0828 -0.0489 -0.7400
30760W        W46377   2.622   1.005   1.549  0.2155  0.2719 -0.0153
30761W        W46378  17.886   4.468  11.366 -0.0853 -0.1173  0.3279
30762W        W46379  17.021   9.747  15.559 -0.0175 -0.0754  0.2671
30763W        W46380   2.946   1.191  11.637  0.0607  0.1162  0.3923
30764W        W46381  16.052  14.505  14.693  0.2577 -0.1851  0.4749
30765W        W46382   7.442  16.961   2.745  0.2752  0.0752 -0.1364
30766W        W46383   3.159  10.939  12.370 -0.0743 -0.0490  0.0426
30767W        W46384  14.182   5.746   5.588  0.1360  0.1644  0.0832
30768W        W46385   5.443  16.271   2.553 -0.3145  0.0317  0.1155
30769W        W46386  16.842   8.321  14.836  0.3323 -0.2194  0.1105
30770W        W46387   9.826  15.707   1.907 -0.1586 -0.0173 -0.0145
30771W        W46388   7.837   3.319  11.384  0.1119 -0.2237  0.0490
30772W        W46389  15.028   5.920   0.133 -0.1099 -0.0616  0.0753
30773W        W46390  13.109   0.562   5.479 -0.1846 -0.1166  0.3586
30774W        W46391  17.355   2.191   1.747 -0.2598 -0.1692  0.0795
30775W        W46392   7.735   6.086   4.024 -0.0175 -0.1546 -0.0457
30776W        W46393   0.970  13.834   1.305  0.1197 -0.0391 -0.0326
30777W        W46394  11.817   8.661  12.280 -0.1845 -0.3010 -0.0451
30778W        W46395   7.446   9.054   3.008  0.1792  0.0968 -0.3299
30779W        W46396   8.933   0.828   3.149  0.4984  0.0435  0.2181
30780W        W46397   0.161   1.306   5.148  0.2515 -0.4724 -0.0163
30781W        W46398  17.963  17.324  13.941 -0.0832 -0.1429 -0.0900
30782W        W46399   9.181  13.437  13.730  0.2082 -0.2286  0.1226
30783W        W46400   7.531  17.812   5.390  0.0944  0.1430  0.1890
30784W        W46401   5.027  15.455  11.826  0.2702 -0.0734  0.0357
30785W        W46402   1.752  17.840  15.498  0.0296  0.4383  0.1096
30786W        W46403  16.396  18.041   2.059 -0.0438  0.0516  0.1776
30787W        W46404   6.171  17.296   1.256 -0.0011  0.3588 -0.3282
30788W        W46405  13.910  11.498   2.318  0.0958 -0.0201  0.2232
30789W        W46406   2.284   6.941  14.749 -0.4724 -0.1498 -0.0896
30790W        W46407   6.760   9.620   5.731 -0.1271 -0.1457  0.0042
30791W        W46408   9.333  12.078  16.617 -0.2781  0.0547  0.1049
30792W        W46409  15.743  12.133   3.209  0.1649  0.0511  0.2521
30793W        W46410  17.533   4.094   5.508  0.2040  0.3089 -0.0946
30794W        W46411  17.235   7.050  12.102 -0.0112 -0.0546  0.1949
30795W        W46412   9.333   6.626  15.498 -0.0532  0.0020 -0.1087
30796W        W46413  13.570  12.874   3.080 -0.2480 -0.1755  0.0959
30797W        W46414   7.891  11.575   4.534 -0.0684 -0.0938  0.0880
30798W        W46415   6.868  15.650  14.653 -0.0835  0.2256  0.4078
30799W        W46416   6.600   4.831  15.160  0.0850  0.0422 -0.1164
30800W        W46417  12.176   3.684  12.533 -0.4604  0.1864 -0.1564
30801W        W46418   9.978  11.274  13.125  0.2035  0.5296  0.0536
30802W        W46419  13.952  15.075  12.486  0.0590 -0.1054  0.1355
30803W        W46420   0.892   1.951  13.789 -0.4743  0.0756  0.1273
30804W        W46421  12.259   7.323   4.254 -0.0042 -0.3716  0.0308
30805W        W46422   4.877   9.514   5.285  0.0530 -0.1057  0.1372
30806W        W46423  11.068  13.853  12.390 -0.1316  0.0248 -0.0423
30807W        W46424   1.423   4.897   0.513 -0.0780  0.0668 -0.1012
30808W        W46425   4.325  16.078   1.582 -0.0750  0.0657 -0.3740
30809W        W46426   7.148   0.931  16.760  0.1432  0.2341  0.2045
30810W        W46427  14.687  17.199   1.584 -0.2171  0.2047  0.4268
30811W        W46428  12.143   4.073  15.229  0.1197  0.3269  0.5460
30812W        W46429   9.572  17.657  12.950 -0.0795  0.2489 -0.1520
30813W        W46430   3.377  17.586   0.502 -0.2170  0.0731  0.0748
30814W        W46431   8.423  14.054  15.489 -0.3813  0.0091 -0.2281
30815W        W46432  10.186  12.842  14.610 -0.1728 -0.1526 -0.0934
30816W        W46433   9.742   9.031   3.565 -0.1450 -0.0216  0.1310
30817W        W46434   5.825  13.444   2.556 -0.1788  0.1267 -0.0618
30818W        W46435  11.429   5.627   0.827 -0.0958  0.1987 -0.2402
30819W        W46436   6.302   9.613  14.578 -0.0719  0.1353  0.0542
30820W        W46437  12.194   0.462  12.423 -0.5106 -0.2025 -0.0270
30821W        W46438   7.574   8.389  11.744  0.1197 -0.0287  0.3245
30822W        W46439  13.820   0.260   5.371 -0.1305  0.1890  0.2767
30823W        W46440   8.751  14.122  12.282 -0.0689 -0.1254  0.1076
30824W        W46441   1.859  14.899  13.717  0.2628 -0.1790 -0.1567
30825W        W46442   5.496   2.920   5.336 -0.0561 -0.3707  0.0111
30826W        W46443   6.098   8.131   1.262  0.0724 -0.1014  0.1692
30827W        W46444   6.245  17.172  15.222 -0.1975 -0.2809 -0.0107
30828W        W46445  17.276  15.125  16.721  0.0172  0.0880 -0.1209
30829W        W46446   9.819   9.579  11.256  0.0495  0.4495 -0.4281
30830W        W46447  16.773  12.352  16.030  0.0305  0.1272  0.1559
30831W        W46448   0.633   8.837   0.614  0.1650  0.0185  0.0507
30832W        W46449  11.463  15.773   3.843 -0.1834 -0.2719 -0.1205
30833W        W46450   1.132   3.982  12.958  0.2936 -0.0650  0.1880
30834W        W46451   6.184  10.667   5.781  0.0408 -0.0479  0.1342
30835W        W46452  15.382   0.921  12.549  0.0667 -0.1779  0.1501
30836W        W46453   1.295  11.870  15.325 -0.2512 -0.2199 -0.0604
30837W        W46454   9.448  13.754   5.890 -0.0916  0.0007 -0.1718
30838W        W46455   5.192   4.576   4.786  0.1562 -0.2207 -0.2342
30839W        W46456  15.624  11.392   5.663 -0.1331  0.2728 -0.0350
30840W        W46457   5.222   0.319   3.322 -0.1124 -0.0177  0.0198
30841W        W46458  16.917  15.175   0.318 -0.0543  0.0502  0.3989
30842W        W46459   4.826   0.456  14.061  0.1378  0.3794  0.2772
30843W        W46460  13.836  11.966   3.693  0.1258 -0.0551 -0.1072
30844W        W46461   8.062  16.596   3.769  0.0489 -0.3292 -0.0483
30845W        W46462  12.415  12.220   5.100  0.2463  0.3188  0.0164
30846W        W46463   7.463  14.048  15.327 -0.3460  0.1782  0.0926
30847W        W46464  12.087   2.265   3.489 -0.1373 -0.1622 -0.2747
30848W        W46465   7.866   5.086  11.336 -0.2393 -0.0949 -0.0274
30849W        W46466  13.455   8.493  16.532 -0.0960  0.1294 -0.3244
30850W        W46467  10.364   0.153   5.223 -0.2675  0.1723 -0.0092
30851W        W46468   3.234   2.758  12.820 -0.4493  0.1788  0.1639
30852W        W46469   5.180   5.843  12.951 -0.0709 -0.0663 -0.1201
30853W        W46470  13.198   0.583  13.986 -0.3735 -0.1542 -0.4425
30854W        W46471   8.090   4.574   1.157 -0.1083  0.1776  0.2049
30855W        W46472  18.040   6.887  11.821 -0.0411 -0.2038 -0.0683
30856W        W46473  12.948   9.371   1.488  0.0029  0.1471  0.2067
30857W        W46474  14.110  10.894  15.069  0.0922 -0.1960  0.0716
30858W        W46475  10.907   4.545   4.651  0.1464 -0.2778  0.1622
30859W        W46476  13.695   1.942  12.328  0.0778 -0.0846 -0.1596
30860W        W46477   9.775  11.964  15.337  0.1719  0.1122  0.1360
30861W        W46478   1.005   9.458   1.406  0.1234 -0.1108 -0.3023
30862W        W46479  10.929   3.345   3.354 -0.2302 -0.0184 -0.2311
30863W        W46480  12.948   4.513  14.863  0.0103 -0.0533 -0.0126
30864W        W46481  13.260   2.018  16.518  0.1736 -0.2822  0.1221
30865W        W46482  12.704   7.081  13.132 -0.0113 -0.0264 -0.2815
30866W        W46483  17.431   4.632  10.944 -0.0471 -0.0598  0.0988
30867W        W46484   6.936   1.424   2.282  0.0854 -0.0418  0.0479
30868W        W46485   5.324   0.260   0.771 -0.0050  0.2690 -0.2230
30869W        W46486   5.133   9.408  11.326  0.1956  0.2939 -0.0237
30870W        W46487  10.500   3.597   0.943  0.0601 -0.1750 -0.2105
30871W        W46488   1.674  17.068  15.981  0.3198 -0.2103  0.1638
30872W        W46489   6.988   3.396   0.012  0.1013 -0.3601 -0.2020
30873W        W46490   4.400   4.357   0.133 -0.0048  0.2222 -0.2269
30874W        W46491  13.885   6.021   4.397 -0.0293  0.1063 -0.4222
30875W        W46492   2.212   9.461   4.432  0.0948  0.0522 -0.0641
30876W        W46493   3.684   6.603   0.188  0.0676 -0.0740 -0.0884
30877W        W46494   8.412   9.146   0.621 -0.0379  0.4157  0.1836
30878W        W46495   8.217   6.384  10.911  0.0692 -0.1868 -0.1611
30879W        W46496  12.791  13.919   5.449 -0.0148 -0.0388  0.2060
30880W        W46497   9.151   1.836  14.486  0.0336  0.2631  0.0219
30881W        W46498  11.112   3.185   3.829 -0.0321  0.0493 -0.0262
30882W        W46499  15.483   1.441  14.472  0.1310  0.3329  0.0590
30883W        W46500  14.909   2.123   1.221  0.3355  0.0955 -0.2161
30884W        W46501   2.290   1.587   5.931  0.2812 -0.3524  0.0887
30885W        W46502  12.298   2.170  16.736 -0.1203 -0.0220 -0.0703
30886W        W46503  17.221   2.068  12.615  0.0955  0.0351 -0.2888
30887W        W46504  15.689   9.708  15.046 -0.0528  0.0756 -0.0668
30888W        W46505  15.409  11.054   4.219 -0.2530 -0.0624 -0.1049
30889W        W46506  13.804  14.457  15.084 -0.1635  0.1578 -0.0006
30890W        W46507   5.108  15.736   1.081 -0.1734 -0.3406 -0.2574
30891W        W46508   4.866  16.547  11.298 -0.1005 -0.2422 -0.3122
30892W        W46509   8.079   4.407  11.108 -0.0342 -0.1289  0.1133
30893W        W46510   9.654  15.213   3.925 -0.2364  0.1406  0.1468
30894W        W46511   9.494   7.543  15.902 -0.1621  0.0063  0.0668
30895W        W46512   4.167   3.741   0.993 -0.1226 -0.1469 -0.3344
30896W        W46513  12.366  11.396  15.079  0.3075 -0.1299  0.0380
30897W        W46514   3.925   6.399  16.248 -0.0898  0.1445  0.1093
30898W        W46515  17.007   5.465  15.324 -0.2101 -0.0165 -0.1008
30899W        W46516   5.738  16.147  12.273 -0.1278  0.1754 -0.0981
30900W        W46517  14.621   3.369   2.556 -0.1639 -0.0787 -0.1321
30901W        W46518   9.662   3.780  13.828  0.1187  0.1838 -0.1528
30902W        W46519   4.527  17.082   2.031  0.1666 -0.0952 -0.0692
30903W        W46520   4.313   4.827  14.609  0.0390 -0.1028  0.0668
30904W        W46521   5.809   1.949  11.619  0.2528  0.0158  0.1844
30905W        W46522   5.070   1.584   5.318 -0.1128  0.0528  0.1168
30906W        W46523  17.705   4.624   5.522  0.1290 -0.0230 -0.2834
30907W        W46524  15.624   9.043   0.565  0.0457 -0.1033 -0.0380
30908W        W46525   8.287  16.831   5.044  0.0209  0.4352  0.4487
30909W        W46526  11.024   1.410  13.886  0.1576 -0.1644 -0.2444
30910W        W46527   8.940   9.214   0.687 -0.1133  0.1044  0.1055
30911W        W46528  10.024   8.752   4.382 -0.2667  0.2290 -0.1843
30912W        W46529  11.735  14.169  12.608 -0.1041 -0.2747 -0.1625
30913W        W46530  12.282   8.452   3.929 -0.0413  0.1183 -0.2863
30914W        W46531   9.258  16.351   3.347 -0.0672 -0.0705  0.0204
30915W        W46532   7.899  17.578   3.208 -0.0190  0.1882 -0.0430
30916W        W46533   8.038  14.725  10.751 -0.2213  0.0824  0.0287
30917W        W46534  10.984  13.106  15.204  0.0415  0.0044  0.1356
30918W        W46535   3.324   8.914   0.729  0.0434 -0.2100 -0.2964
30919W        W46536   2.984  10.118   2.299  0.0042 -0.0245 -0.1150
30920W        W46537  11.052   4.949   2.748 -0.0754  0.1746 -0.1767
30921W        W46538  15.667   5.862   1.402 -0.0400  0.1433  0.1513
30922W        W46539  15.057  17.050  16.636 -0.0147 -0.0794 -0.0929
30923W        W46540  10.388  15.499  10.919  0.1943 -0.2931 -0.0673
30924W        W46541   2.095  16.860   2.847  0.2184 -0.2256  0.1085
30925W        W46542   4.178   0.621   0.548 -0.2649  0.1119 -0.0857
30926W        W46543   5.930   9.701   1.129 -0.0509 -0.0801  0.0849
30927W        W46544   6.333   5.435  12.083 -0.0220 -0.2803 -0.3730
30928W        W46545   8.488  14.145  14.224 -0.0195 -0.1863 -0.0287
30929W        W46546   1.968   4.880   3.854  0.0110  0.3764  0.2473
30930W        W46547   3.325  13.009  14.467 -0.0122 -0.0324  0.2229
30931W        W46548   7.572   9.943  13.730  0.2859 -0.2679  0.0644
30932W        W46549  17.938  17.579   2.520  0.1336 -0.0527 -0.1864
30933W        W46550  13.397  13.560   3.179 -0.0646 -0.0523 -0.0442
30934W        W46551  15.549   4.780  14.379 -0.0645  0.2528 -0.0408
30935W        W46552   5.662  11.983   0.559 -0.0503  0.2395 -0.1548
30936W        W46553  10.695   1.837  12.621 -0.1338 -0.2276  0.2314
30937W        W46554   4.035   8.132   3.411  0.0525 -0.0591 -0.2582
30938W        W46555   9.697  12.111   4.500 -0.1926 -0.0887 -0.3845
30939W        W46556  10.505  14.353   4.879 -0.0374 -0.1231 -0.0561
30940W        W46557   2.464   2.912   2.907 -0.0957  0.0444  0.0693
30941W        W46558  13.847  13.197  11.727  0.0650 -0.0200 -0.0612
30942W        W46559   6.764   5.967  13.650  0.2242 -0.1284 -0.0634
30943W        W46560   2.052  17.348   2.631 -0.6132 -0.0668 -0.1659
30944W        W46561   2.519  10.923   0.878 -0.1761  0.0318  0.1871
30945W        W46562  10.900   0.274  14.679  0.0973 -0.1445 -0.4282
30946W        W46563   9.852  10.492   4.050  0.0799  0.2825 -0.0590
30947W        W46564  15.253   7.779   3.170 -0.0288 -0.0424  0.0626
30948W        W46565   6.361  14.913   5.114 -0.3546  0.0155  0.1221
30949W        W46566   7.207  12.430  11.933  0.0536  0.2567 -0.1878
30950W        W46567  12.986   8.032  14.500 -0.0616 -0.1059  0.0425
30951W        W46568   8.732   4.184  13.410  0.0531 -0.1695  0.0324
30952W        W46569  13.102   0.519  16.276  0.1937 -0.1032 -0.1595
30953W        W46570   0.425  10.149  16.127 -0.3788  0.0048  0.1764
30954W        W46571   5.088   4.833  11.809  0.0787 -0.2284  0.3016
30955W        W46572   9.494  15.584   1.328  0.2249  0.2641  0.0390
30956W        W46573   8.615   3.113  15.845  0.0846  0.0341 -0.0304
30957W        W46574  10.439   1.281   2.467  0.5090 -0.1921 -0.1610
30958W        W46575   8.071   4.100   1.426  0.1555 -0.0656 -0.1197
30959W        W46576   5.173  12.265  10.805 -0.0458 -0.0310  0.0113
30960W        W46577   6.617   6.807   1.951 -0.1232  0.3131  0.2823
30961W        W46578  14.895  12.948  11.011  0.0557  0.0729 -0.0348
30962W        W46579  14.880  10.208  13.958  0.2087  0.0270  0.2144
30963W        W46580   0.461  14.670  12.874 -0.0534 -0.0595  0.1281
30964W        W46581   8.670   7.835   5.672  0.0629  0.3057 -0.2534
30965W        W46582  10.114   8.965   5.868  0.1479 -0.1699  0.1370
30966W        W46583   5.814   7.047   3.105  0.0389  0.0935  0.1436
30967W        W46584   2.599  16.301  13.053 -0.2858 -0.3568  0.1097
30968W        W46585  13.802  17.738   4.525  0.1051 -0.1137 -0.2772
30969W        W46586  16.369   7.862   3.869 -0.0470 -0.3604 -0.1434
30970W        W46587  12.017   1.018  13.721 -0.2354  0.0244 -0.3323
30971W        W46588   7.629   5.789  10.989 -0.2303 -0.1576  0.1912
30972W        W46589   8.535  14.221  12.722  0.1490  0.3168 -0.1705
30973W        W46590   3.645   6.002  10.774  0.2559  0.0083  0.1433
30974W        W46591  12.385  17.402  16.150 -0.1257  0.0934  0.1506
30975W        W46592  11.073   2.083   4.685  0.2175  0.2511 -0.3040
30976W        W46593   6.973   5.785  16.174  0.0793 -0.3002 -0.0182
30977W        W46594  15.597  12.019  16.425 -0.1001  0.0316 -0.1319
30978W        W46595   7.633   8.905  11.614  0.0816  0.1712 -0.5255
30979W        W46596   5.430  11.353  12.190 -0.5654  0.2528  0.1566
30980W        W46597   5.664   7.139  12.629  0.0692  0.2686 -0.2081
30981W        W46598  15.388  12.250  14.581 -0.0931  0.3636  0.1106
30982W        W46599  14.655   5.968  16.658  0.1840 -0.1824 -0.1253
30983W        W46600  11.386   2.288  11.686  0.1009  0.2138 -0.4211
30984W        W46601  17.832   1.590   5.001  0.0001  0.1178 -0.2403
30985W        W46602   5.091   3.672   0.654  0.0242  0.0192 -0.0049
30986W        W46603  15.673   7.194   1.627 -0.2764  0.2165 -0.1023
30987W        W46604  12.773  12.935  16.418  0.4308 -0.0904  0.0692
30988W        W46605   6.521  17.120  12.086  0.3246 -0.1815  0.1545
30989W        W46606  16.774  16.523  13.033  0.0549  0.0868  0.0753
30990W        W46607  13.373   2.904   2.279 -0.1108 -0.0583  0.0524
30991W        W46608   4.477   8.011  12.253  0.0541 -0.1486 -0.2779
30992W        W46609   5.484   7.649   1.860 -0.0412 -0.0056 -0.1929
30993W        W46610   5.871  17.462   4.912 -0.3454  0.0798  0.1263
30994W        W46611  11.711  13.872   1.002  0.3464 -0.0642 -0.2187
30995W        W46612   5.765   2.283   1.597 -0.0570 -0.1715 -0.0053
30996W        W46613   3.859   1.838   1.126 -0.4523 -0.1848  0.1085
30997W        W46614   2.751   4.760  11.884  0.1612  0.1629 -0.1736
30998W        W46615  13.308   8.555   1.972 -0.2548  0.1214 -0.1397
30999W        W46616   6.860   5.811   3.203 -0.1822 -0.2558  0.2589
31000W        W46617   5.319  12.714   1.915  0.0631  0.0763  0.0514
31001W        W46618  17.458  14.302   5.886 -0.0148  0.2495  0.3109
31002W        W46619   0.023   0.012   2.617  0.1399 -0.1233 -0.1366
31003W        W46620   3.538  15.291   4.509 -0.1529 -0.0291 -0.1323
31004W        W46621  14.858  15.294   2.798 -0.0220 -0.0092  0.0199
31005W        W46622   4.933  11.788   1.596  0.1080 -0.3133 -0.0294
31006W        W46623   1.393  14.885  14.353 -0.6038  0.2703 -0.1316
31007W        W46624  10.075  14.854   5.495  0.1258 -0.0368 -0.0651
31008W        W46625  11.660  14.375  15.718 -0.3020  0.1459  0.0305
31009W        W46626   5.487   7.030  14.076 -0.3789 -0.1174 -0.1673
31010W        W46627  14.890  13.340  15.241 -0.2398  0.0209  0.0663
31011W        W46628   6.005   2.988  14.953  0.1686  0.0943 -0.1861
31012W        W46629   6.572  10.973  13.251 -0.1715  0.1004  0.0013
31013W        W46630   8.727  13.935   4.815  0.0672  0.5573 -0.0156
31014W        W46631   0.815   7.838  13.423  0.3152 -0.1362  0.0340
31015W        W46632   2.058  12.928  15.651 -0.2319  0.2650  0.2967
31016W        W46633   8.650   5.773   2.951  0.1299  0.4807  0.3102
31017W        W46634   4.826   3.262  15.574  0.0182  0.2101  0.0731
31018W        W46635   2.021   8.471   0.325 -0.0227  0.0508 -0.0648
31019W        W46636   0.613  16.572   1.618  0.0055  0.1565 -0.1615
31020W        W46637  12.847  12.575  12.098 -0.0126 -0.1345  0.0134
31021W        W46638   6.759   2.199  12.337 -0.0408  0.0114  0.0582
31022W        W46639   8.047  10.497  13.984 -0.3027 -0.1046 -0.2359
31023W        W46640   7.732  13.520   4.616 -0.1732  0.1966 -0.0123
31024W        W46641   8.359  12.791  14.547 -0.2738 -0.0373  0.3331
31025W        W46642   5.552  16.547  14.615  0.1681 -0.0435 -0.0785
31026W        W46643   7.280   2.081  12.317  0.1322  0.0841  0.1473
31027W        W46644  12.690  15.828   2.309 -0.0780 -0.0977  0.1697
31028W        W46645   4.503   8.328   4.391  0.0292  0.0020  0.0634
31029W        W46646  11.691  10.785  12.737 -0.2490  0.0371  0.2412
31030W        W46647   9.120  16.143  12.233  0.0503  0.2178 -0.1366
31031W        W46648  10.978   3.605   5.271  0.1165 -0.0054 -0.2568
31032W        W46649   4.021  15.865   0.668  0.0985  0.1783  0.1701
31033W        W46650   7.071  17.686   5.498 -0.2486 -0.1454 -0.0815
31034W        W46651  15.566  10.326   0.614 -0.1863 -0.1404 -0.3740
31035W        W46652   3.267   3.483   1.139 -0.1570 -0.2548  0.1618
31036W        W46653  13.460   2.547  13.164 -0.2605  0.2902 -0.1825
31037W        W46654   2.566  12.753   2.952  0.3899  0.0399 -0.1638
31038W        W46655  14.527  12.464  15.243  0.3653  0.0985  0.1957
31039W        W46656  10.886  12.433  16.351 -0.1448 -0.1372  0.0313
31040W        W46657  15.061   9.002  11.641 -0.1618  0.1494 -0.1953
31041W        W46658  17.929   7.545   1.567  0.1597 -0.0185  0.2076
31042W        W46659  15.716   1.977   0.882 -0.0297 -0.1251  0.0916
31043W        W46660   4.020  11.296   0.274  0.2657  0.1505  0.3205
31044W        W46661   5.210   3.656  15.353 -0.0921 -0.2091 -0.5110
31045W        W46662   7.009  16.026  13.876  0.2458 -0.0103 -0.1428
31046W        W46663  14.245  13.074   5.218  0.0656  0.1523 -0.2496
31047W        W46664   1.338   3.157  15.320  0.1759 -0.1319  0.0892
31048W        W46665  10.281   0.303  13.826  0.1116 -0.0240 -0.0540
31049W        W46666   1.004  13.067   3.817 -0.3441 -0.2923  0.2726
31050W        W46667  10.268   1.582  16.746  0.3173 -0.3915  0.0453
31051W        W46668   9.616  14.693   5.381  0.0403  0.2471  0.3064
31052W        W46669   8.401   7.072  12.701  0.2279 -0.3127  0.1148
31053W        W46670  10.440  13.118  16.244 -0.3010  0.0237  0.2151
31054W        W46671  10.902  17.450   2.239  0.1493  0.1558 -0.1514
31055W        W46672   6.267   2.259  15.182 -0.3155 -0.1694 -0.1773
31056W        W46673   0.971  10.422  13.863 -0.0121 -0.4533  0.2521
31057W        W46674  16.586   9.073   5.682  0.1668  0.0865  0.2257
31058W        W46675  15.789  10.560   3.413  0.2389  0.2044  0.0328
31059W        W46676   5.946  15.177   3.263 -0.2065  0.1977  0.3377
31060W        W46677   9.878  12.110  16.568  0.1776 -0.0043  0.0185
31061W        W46678   6.922   8.591  15.545 -0.3353 -0.2292 -0.1985
31062W        W46679  17.418   5.657  11.674  0.0631 -0.0651  0.2249
31063W        W46680   4.193   2.895  11.937 -0.1530  0.0062  0.2479
31064W        W46681  17.189   4.176   6.250  0.0888  0.1165  0.1873
31065W        W46682   5.138  17.055  15.349 -0.2599 -0.2861 -0.1491
31066W        W46683   2.887   7.628  14.874  0.0203 -0.1057  0.1334
31067W        W46684  16.159   2.616  15.357 -0.2451 -0.0560  0.0179
31068W        W46685  12.692   5.255  16.717  0.2916  0.4317 -0.0177
31069W        W46686  15.753   3.751   0.117  0.0286  0.0598 -0.3334
31070W        W46687  11.790   6.035   2.660 -0.1768  0.2213 -0.2046
31071W        W46688   3.256  12.833   0.195  0.1238  0.1576  0.1734
31072W        W46689  17.376   9.997  15.780 -0.1436  0.1914 -0.2092
31073W        W46690  15.655   7.935  12.932  0.2419 -0.0485  0.1057
31074W        W46691  15.488  13.524   5.554  0.1635  0.1973 -0.0114
31075W        W46692  12.503  10.496   5.437 -0.2052 -0.0173 -0.2509
31076W        W46693   6.321   7.807   2.870 -0.5899 -0.0632  0.0471
31077W        W46694   7.964  17.192   2.839 -0.1326  0.1568 -0.1656
31078W        W46695   7.777   9.015  12.690 -0.2691  0.2152  0.0686
31079W        W46696   7.898  12.019   5.240  0.0402  0.0073 -0.0691
31080W        W46697   5.959  12.708   1.881 -0.0917  0.1392  0.0917
31081W        W46698   9.398  10.704  14.325  0.3330  0.0033 -0.0401
31082W        W46699   8.343   8.021   2.540 -0.0577  0.1382 -0.2004
31083W        W46700   3.928  10.219   1.793  0.1521 -0.2564 -0.3692
31084W        W46701  14.071  10.185  12.888  0.0094  0.0709 -0.1012
31085W        W46702   4.127   0.859   3.728 -0.2107 -0.1835  0.0990
31086W        W46703   2.495   2.525   0.128  0.0571  0.1834  0.1746
31087W        W46704   4.300   7.663  14.203  0.1824 -0.0242 -0.2012
31088W        W46705  13.864   7.494   5.225 -0.0524 -0.3051 -0.0944
31089W        W46706   3.931   0.957   3.224  0.2141 -0.3476 -0.0616
31090W        W46707   9.126  11.407  12.704  0.0128  0.2135 -0.0744
31091W        W46708   8.480  12.257   3.495 -0.0579 -0.2963  0.0438
31092W        W46709   2.759   6.705   3.912 -0.1334  0.0307  0.0990
31093W        W46710  15.701   8.005   6.048  0.2591 -0.0019 -0.0144
31094W        W46711   4.791  15.736  16.619 -0.4145 -0.2483 -0.2440
31095W        W46712   3.983   6.806   0.636 -0.0531  0.1665  0.0945
31096W        W46713   8.629   4.558  13.797  0.1104 -0.1348 -0.3287
31097W        W46714   7.285  11.798   3.249  0.0529 -0.1102 -0.2993
31098W        W46715   9.031   8.872   3.815 -0.0097 -0.1768  0.2509
31099W        W46716  16.012   9.841  15.438 -0.1044 -0.2567 -0.0007
31100W        W46717   5.909   8.199  11.924  0.0885 -0.0263  0.1567
31101W        W46718   4.791  15.037   6.221  0.1104 -0.0432  0.1320
31102W        W46719   9.832  13.804  15.316 -0.2025 -0.0271 -0.0173
31103W        W46720   3.981   2.956   3.930 -0.0064  0.0492  0.2748
31104W        W46721  16.824  13.170   4.296  0.0874 -0.1536 -0.0207
31105W        W46722   1.498  13.303   0.824  0.1756 -0.1942  0.0200
31106W        W46723   5.452  16.424   1.975  0.0774 -0.2053  0.2651
31107W        W46724  15.897  11.194   4.115  0.0480 -0.2096  0.2958
31108W        W46725  13.195  14.394  13.985  0.4191 -0.4656 -0.2951
31109W        W46726   5.519   9.940   2.168  0.1951  0.2585 -0.2531
31110W        W46727   6.634  13.263   1.934  0.0048  0.3252 -0.0275
31111W        W46728   5.022   4.645   0.737 -0.4944  0.0084 -0.1887
31112W        W46729   1.135  12.421   3.728  0.5183 -0.1468  0.1318
31113W        W46730   7.274  12.637  16.413 -0.2479 -0.0938  0.3084
31114W        W46731   2.084   9.196   6.114  0.2606 -0.0609 -0.0258
31115W        W46732  16.516  10.538  15.271 -0.2057 -0.0637 -0.1768
31116W        W46733  10.123  15.993   4.327 -0.3267 -0.1474 -0.1551
31117W        W46734  12.503  16.895   3.227 -0.0355  0.1206 -0.0792
31118W        W46735   1.476  13.953   1.326  0.3273 -0.3124 -0.2434
31119W        W46736  16.520   6.512   0.948  0.0430  0.1763 -0.2138
31120W        W46737   6.812   0.248  11.248 -0.1385 -0.1370 -0.1211
31121W        W46738   8.633   0.088  11.171 -0.1965 -0.0873 -0.0227
31122W        W46739   0.080  13.013  14.671 -0.0855 -0.2465  0.0139
31123W        W46740   3.404   7.626   2.238  0.0241  0.1499 -0.4116
31124W        W46741   1.218   1.846   2.396 -0.2106  0.2766 -0.1780
31125W        W46742  12.193  14.155  12.787  0.2969 -0.0823 -0.0278
31126W        W46743   2.235  10.695  12.603  0.2325  0.3466  0.0479
31127W        W46744  10.861   2.894   3.502  0.0626 -0.0328  0.1052
31128W        W46745  14.568   6.658   3.860 -0.2602 -0.0619 -0.1277
31129W        W46746  17.927   8.648   4.017 -0.2282 -0.1409  0.0965
31130W        W46747   0.281   3.533  12.534 -0.4381  0.1333 -0.1031
31131W        W46748   2.264  15.039   0.504 -0.0159 -0.1929  0.2638
31132W        W46749   1.711   0.357  15.285  0.4216  0.0433 -0.0010
31133W        W46750   2.616  12.438   2.439 -0.0441 -0.0590 -0.1875
31134W        W46751  10.794  16.405  15.949  0.0958 -0.2028  0.1006
31135W        W46752   9.971   8.903  16.805 -0.1154  0.0898 -0.0284
31136W        W46753   0.555   5.327   0.105  0.4110 -0.0816  0.1570
31137W        W46754   9.543   8.568  16.485 -0.2080 -0.0740  0.0815
31138W        W46755   8.097   1.631   1.237  0.0213  0.1203 -0.1592
31139W        W46756  15.155  17.304  15.277  0.1723 -0.0495 -0.1777
31140W        W46757   8.578  17.503  14.465  0.0520 -0.1080  0.4505
31141W        W46758  16.463   4.793  12.192  0.1464  0.1732 -0.0016
31142W        W46759  15.086   1.536  15.591 -0.0703  0.1294  0.1640
31143W        W46760  11.905  11.869   4.197 -0.1756  0.0760  0.1671
31144W        W46761  12.157   0.599   0.425 -0.1857  0.0281 -0.0018
31145W        W46762  13.223   4.457  13.846 -0.2213 -0.2444  0.0286
31146W        W46763  14.892  14.050   1.744  0.1172 -0.1429 -0.1711
31147W        W46764   8.573   4.012   1.106  0.0729 -0.0393  0.2846
31148W        W46765   3.033  11.770  13.265 -0.0802  0.3424 -0.0751
31149W        W46766   9.058  12.525   1.011  0.0250  0.1222 -0.1600
31150W        W46767  16.678   2.696   3.534 -0.1931  0.1036  0.3603
31151W        W46768  16.043   3.802   1.456  0.2907  0.1439 -0.2558
31152W        W46769  11.611   6.471   1.070 -0.2020  0.1035  0.2672
31153W        W46770   0.125  10.279  13.888  0.1162  0.1852 -0.2002
31154W        W46771  13.376   6.914  13.392 -0.0371  0.2234  0.1213
31155W        W46772   1.212  11.736  14.100 -0.2336 -0.2148 -0.1250
31156W        W46773  16.776  11.296  11.307 -0.1465 -0.0032 -0.0054
31157W        W46774   8.977   2.351   0.471  0.0910  0.0595  0.1965
31158W        W46775   2.592   2.549   2.284 -0.2252 -0.0249 -0.2318
31159W        W46776  14.792   6.968  14.568 -0.1635 -0.0170 -0.0537
31160W        W46777  11.408   9.674   0.103  0.2168  0.0450 -0.1489
31161W        W46778   2.092  10.510   4.296 -0.1504  0.0093  0.1818
31162W        W46779   4.536   9.371  12.310 -0.2208  0.1212 -0.1025
31163W        W46780   7.598   2.915  12.191  0.0805 -0.0194 -0.2591
31164W        W46781  10.552  15.527   4.310  0.1708  0.1867  0.1657
31165W        W46782   6.265   4.346   4.810  0.1593  0.3101 -0.3504
31166W        W46783   1.028   2.515  12.065 -0.4422  0.1355  0.0534
31167W        W46784   3.314   7.390  16.748  0.1800 -0.1593 -0.0566
31168W        W46785   5.878   4.443  14.922  0.0648 -0.0622  0.1712
31169W        W46786  14.523   5.146   0.877 -0.2167  0.0228 -0.3877
31170W        W46787  14.233   0.104  15.671 -0.3217 -0.1222 -0.3398
31171W        W46788   8.245   3.604  12.710 -0.1974  0.0114 -0.2692
31172W        W46789  14.314  12.600  14.742 -0.1542  0.1423 -0.2374
31173W        W46790   7.977  13.008   5.258 -0.0057 -0.0409 -0.2100
31174W        W46791   5.600  10.137   4.010  0.1382 -0.2904 -0.3797
31175W        W46792  16.141   1.716   4.094 -0.3258 -0.3337  0.1172
31176W        W46793  11.452  15.088  14.255 -0.0053 -0.0424  0.1471
31177W        W46794  10.542   4.385  13.454 -0.2709 -0.3153 -0.0700
31178W        W46795   8.174   7.253  11.408 -0.2914  0.0822  0.2017
31179W        W46796   9.915  14.457  12.864  0.0012  0.0649  0.3121
31180W        W46797   7.869   9.486  12.463 -0.3406 -0.1642  0.2049
31181W        W46798  14.811   2.659   5.021 -0.1260  0.1008  0.1064
31182W        W46799   6.238   2.463  13.745 -0.0970 -0.4582 -0.3761
31183W        W46800   2.913  13.978   0.494  0.1328  0.0399  0.0141
31184W        W46801   1.910   9.826   4.332  0.3834  0.1275  0.2393
31185W        W46802  17.921  16.495   5.746  0.1746 -0.1882 -0.2616
31186W        W46803  15.677   9.169  14.933 -0.5685  0.0681 -0.0220
31187W        W46804  11.602  13.198  13.402 -0.3064 -0.0252 -0.0487
31188W        W46805  17.639   0.632   3.487 -0.1928  0.0044 -0.0997
31189W        W46806  12.992  17.466  14.038 -0.1631 -0.2448 -0.1033
31190W        W46807   2.896   3.115   3.852  0.0392 -0.0411 -0.2101
31191W        W46808   2.589  12.050  11.975  0.0713 -0.3464  0.0184
31192W        W46809  12.981   2.272   4.994 -0.0048 -0.1586  0.0828
31193W        W46810   3.078  15.827  12.173  0.0464 -0.1353 -0.3270
31194W        W46811   7.278  14.203   4.885  0.1375  0.1615  0.2494
31195W        W46812   5.853   2.721  12.694 -0.2138 -0.0349  0.2054
31196W        W46813   6.779  15.918   5.922  0.0334  0.2125  0.0693
31197W        W46814  13.886   8.789   3.733 -0.0781  0.0660  0.1050
31198W        W46815   5.826   6.582  12.063  0.0086 -0.0532 -0.2012
31199W        W46816   2.353   3.253  14.706 -0.0375  0.0602 -0.0922
31200W        W46817  13.003   8.470   1.140  0.0681 -0.1142 -0.0468
31201W        W46818  10.713   6.679  14.817  0.1456 -0.0752 -0.3426
31202W        W46819   9.846  10.254  14.642 -0.1533  0.1793 -0.1103
31203W        W46820   4.723   8.550  13.837  0.0691  0.2080  0.2105
31204W        W46821  12.306   8.498   4.449 -0.1057  0.2015 -0.0420
31205W        W46822   6.877   7.064   0.067  0.0101  0.1840  0.1420
31206W        W46823   4.406  11.297   3.337  0.2592 -0.3709 -0.1502
31207W        W46824  17.100  15.119   1.217 -0.1156  0.2102 -0.2800
31208W        W46825   8.928  11.930  14.686 -0.0114 -0.1756  0.1312
31209W        W46826   1.715  16.071   0.833  0.2857 -0.0666  0.0539
31210W        W46827   3.202   0.994  13.172 -0.1193 -0.0566 -0.1977
31211W        W46828   9.091  16.344  13.803  0.0074 -0.2584 -0.0596
31212W        W46829   8.593  13.405   4.829  0.0489 -0.4966  0.3502
31213W        W46830  14.091   5.516   2.211 -0.0847  0.1708  0.3663
31214W        W46831   0.972   7.780   2.217  0.0233  0.0349  0.1323
31215W        W46832  11.088   3.589   4.265  0.0117 -0.0706 -0.3762
31216W        W46833   0.238  10.945   1.545 -0.1068 -0.0594  0.1463
31217W        W46834  13.299  16.232  14.011  0.0390 -0.1189  0.0128
31218W        W46835   3.047  13.573   3.917  0.0132 -0.1289 -0.2750
31219W        W46836  13.071  16.856   2.551 -0.2112  0.1432 -0.1752
31220W        W46837   0.585   2.712  12.946 -0.4555 -0.0374  0.1226
31221W        W46838   7.784   6.657  16.360  0.2529 -0.0661 -0.0391
31222W        W46839   0.895   9.567  12.538 -0.0775 -0.1118 -0.1478
31223W        W46840   7.928  12.137   0.874  0.0736  0.0999 -0.2284
31224W        W46841   3.361  11.347   5.717  0.1307  0.0272  0.0511
31225W        W46842  10.553   2.305   1.366 -0.1926 -0.0389 -0.4058
31226W        W46843   7.832   0.450  13.769 -0.3065  0.3767  0.1426
31227W        W46844  14.862   3.203   0.061 -0.2385 -0.0517 -0.0436
31228W        W46845   6.642   7.991   4.864  0.4800 -0.0738  0.1260
31229W        W46846   6.175   6.565   5.407  0.0508 -0.1048  0.1008
31230W        W46847   8.846  14.358   0.163 -0.0839  0.1909  0.0314
31231W        W46848  13.442   5.625   5.808  0.0921  0.0450  0.0192
31232W        W46849   8.634   9.908   2.718 -0.0360  0.1701 -0.2419
31233W        W46850   4.776  16.097  14.425  0.1056 -0.1120  0.1609
31234W        W46851  14.303  13.680   2.857  0.0136 -0.1455 -0.0335
31235W        W46852   1.419   6.659  14.758 -0.0297 -0.0544 -0.0475
31236W        W46853  12.744  10.436   0.261  0.1923 -0.1015  0.1986
31237W        W46854  12.310  11.695   0.353 -0.0017  0.1009 -0.2388
31238W        W46855   3.416   5.032   0.618 -0.3198  0.1316 -0.1369
31239W        W46856  12.092   9.897  11.466  0.0960 -0.0362 -0.2391
31240W        W46857   5.538  17.675  13.508  0.0267  0.1891  0.0484
31241W        W46858   3.821  12.448   1.494 -0.1540 -0.2811  0.2372
31242W        W46859   4.332  16.975  16.380 -0.1247 -0.1603  0.2841
31243W        W46860  16.919   0.630   5.647  0.2486 -0.0757 -0.0865
31244W        W46861  10.557  13.364  12.764 -0.0718  0.0543  0.1199
31245W        W46862  11.429   3.271   5.281  0.2057  0.0490 -0.1017
31246W        W46863   1.682   3.637   3.306  0.0564  0.1171 -0.2914
31247W        W46864   3.776   4.926  15.714 -0.2214  0.3152 -0.0955
31248W        W46865  15.846   8.399   2.071 -0.0773 -0.1518  0.1225
31249W        W46866   1.948  16.732   1.509 -0.0455  0.1279 -0.0518
31250W        W46867  15.343   6.384   2.704  0.0780  0.1178  0.1740
31251W        W46868  15.698  14.018  14.127 -0.1939 -0.2484  0.0051
31252W        W46869   8.190   3.835   5.514  0.1763  0.1307  0.2175
31253W        W46870   0.119   8.842  12.524 -0.1256 -0.0883 -0.2641
31254W        W46871   6.091  13.437  15.731 -0.2594 -0.0848  0.0844
31255W        W46872  15.397   4.796   1.872 -0.1873 -0.3104  0.0550
31256W        W46873  16.948   8.210  12.759  0.3746  0.2809 -0.2583
31257W        W46874  14.506   5.957   1.131  0.2021 -0.1808  0.1878
31258W        W46875   3.135  17.444  14.218  0.1539  0.1531 -0.0159
31259W        W46876   0.099  14.756   0.999  0.3114  0.0336 -0.1668
31260W        W46877  12.157   1.058   0.029 -0.2224 -0.1356  0.1333
31261W        W46878   0.641   4.646  14.205  0.0683  0.4826  0.2354
31262W        W46879  15.716   1.306  12.979 -0.0777  0.0951 -0.1903
31263W        W46880   8.423  17.940   0.183 -0.1519 -0.4578  0.1294
31264W        W46881  16.560   3.200  11.833 -0.1980 -0.0393  0.1424
31265W        W46882  13.880  12.512  15.813  0.4722 -0.0223  0.0104
31266W        W46883   6.130   7.616  13.092  0.2038 -0.2671  0.0807
31267W        W46884   7.189  11.990  14.167  0.3741  0.1497  0.0875
31268W        W46885  13.092  13.795  15.181 -0.1108  0.2119 -0.2969
31269W        W46886  13.313   9.954   0.869 -0.1998 -0.1113  0.2054
31270W        W46887   1.153  12.057   5.214 -0.1870 -0.0995  0.2546
31271W        W46888  13.343   6.912  12.411 -0.0389 -0.4495 -0.0185
31272W        W46889  11.858   5.111  13.241 -0.0848 -0.1485 -0.1229
31273W        W46890   1.547  12.977   1.522  0.0182 -0.0695 -0.0219
31274W        W46891  10.048  12.430   4.354  0.1317  0.0540 -0.2916
31275W        W46892  17.165   2.512   0.848  0.1638 -0.3498 -0.2789
31276W        W46893   0.393   1.662   2.838 -0.0374 -0.1047  0.2275
31277W        W46894  17.348  17.360  12.101 -0.1864 -0.0822  0.0812
31278W        W46895   3.858   2.195   3.179 -0.0458 -0.0528  0.3013
31279W        W46896   4.593   2.892  13.487 -0.1056 -0.2485 -0.1863
31280W        W46897  16.656   0.706   3.504 -0.0360  0.0444 -0.2607
31281W        W46898   8.569   6.677   0.306  0.1681  0.2620 -0.0473
31282W        W46899   0.632  12.254   0.674 -0.0579  0.0702 -0.5027
31283W        W46900   7.707   7.896   5.725 -0.0497  0.4271  0.1308
31284W        W46901   7.151   5.058  14.501 -0.2668 -0.0959  0.2518
31285W        W46902  13.731  16.322   2.569  0.1214  0.0185 -0.1890
31286W        W46903   9.739   8.007  13.534  0.0850 -0.1288  0.2178
31287W        W46904   4.027   0.154  11.801 -0.2134  0.0160 -0.1169
31288W        W46905  13.033   6.536   0.858 -0.0463 -0.0758  0.3161
31289W        W46906   6.723  16.646   2.442 -0.1010 -0.1608  0.2058
31290W        W46907  12.063  15.801  14.065  0.1412 -0.1706  0.1741
31291W        W46908   7.877  15.939   1.932 -0.1518  0.0139 -0.1734
31292W        W46909  12.005  16.933  13.002  0.0317  0.0064 -0.0203
31293W        W46910   9.736  11.921   1.403  0.0625 -0.4257 -0.0704
31294W        W46911   2.019   4.945  15.393  0.0023  0.0185  0.0910
31295W        W46912   3.344   8.404  13.297 -0.0214 -0.1139  0.3249
31296W        W46913  12.519  14.324  15.237 -0.2888  0.3310  0.0325
31297W        W46914  15.165  12.679   5.930  0.0637 -0.1108 -0.1836
31298W        W46915   0.648   4.735   3.963 -0.2325  0.1986 -0.2088
31299W        W46916   4.859  17.571  16.570 -0.2172 -0.1556 -0.0349
31300W        W46917  12.705   1.273  13.520 -0.0613  0.0434  0.1391
31301W        W46918   3.419   5.902   0.579  0.1729 -0.2446 -0.1445
31302W        W46919  13.481  16.171  12.620 -0.1929 -0.1106 -0.1588
31303W        W46920  14.624  14.649  13.229  0.0598  0.0206  0.2787
31304W        W46921   6.981   5.198  15.554  0.3572 -0.1005 -0.1087
31305W        W46922   4.513  11.393  13.283  0.2215  0.0110 -0.1567
31306W        W46923  16.783   3.837   2.190 -0.3262 -0.1965 -0.0087
31307W        W46924   5.639   0.686   2.989 -0.2483  0.1773 -0.1259
31308W        W46925  15.678  16.899  14.251  0.3491 -0.1973  0.0273
31309W        W46926  10.122   4.310  12.143 -0.1210 -0.1639  0.1129
31310W        W46927   8.229   9.252  12.797  0.0106 -0.1854 -0.1781
31311W        W46928   6.453  11.987   1.432  0.1689 -0.0449  0.0070
31312W        W46929   7.446  13.292  13.528  0.1159 -0.0244 -0.2259
31313W        W46930  13.748  17.075   0.261  0.0320  0.0180 -0.0717
31314W        W46931   3.999  12.406   2.387  0.0144  0.1369  0.0900
31315W        W46932   7.684   7.203  15.448  0.1035 -0.1557 -0.2374
31316W        W46933   5.861  18.007   2.444  0.0263 -0.1653 -0.0645
31317W        W46934  16.373   9.871  15.968 -0.0031  0.0627 -0.0115
31318W        W46935  16.493  10.812   1.450  0.1237 -0.1218 -0.1942
31319W        W46936   1.461   0.421  16.374 -0.0844 -0.2513 -0.0686
31320W        W46937   5.658  11.839  13.396  0.1906  0.1884 -0.2000
31321W        W46938  17.023  14.485   0.162  0.0887  0.0590 -0.3088
31322W        W46939   1.253   1.003   3.056 -0.3723  0.1650  0.0330
31323W        W46940   4.420  10.015  11.628 -0.1359  0.2295 -0.1086
31324W        W46941   1.203  16.505   1.803  0.1389  0.0431 -0.2852
31325W        W46942  10.409   4.969  14.967  0.0912  0.0883  0.0845
31326W        W46943   5.046   3.030  13.208 -0.2141 -0.0447  0.1454
31327W        W46944   2.161  10.737   0.590 -0.0019  0.0038  0.0458
31328W        W46945   5.043  13.613  16.587  0.2464  0.0622 -0.2477
31329W        W46946   6.146   9.405   0.336  0.1535 -0.0324 -0.1102
31330W        W46947   9.463  10.660  15.553  0.0365  0.0167 -0.0362
31331W        W46948   1.870   3.051   0.625  0.0722  0.2603 -0.0523
31332W        W46949   9.857   3.207   5.003 -0.0740 -0.1567  0.4773
31333W        W46950  16.110   7.481  15.345 -0.2092 -0.0601 -0.3657
31334W        W46951   3.949  11.204   0.750  0.0432  0.0193  0.3004
31335W        W46952   2.792  17.171  16.565 -0.1543 -0.1708  0.1198
31336W        W46953   2.333  13.388  14.521 -0.4238 -0.4900 -0.1418
31337W        W46954   6.177   2.493   5.975 -0.1480 -0.1389 -0.1243
31338W        W46955   4.001  15.389  14.571  0.2646  0.0463  0.3080
31339W        W46956  16.177   0.263  14.928 -0.0332 -0.1896 -0.1826
31340W        W46957   2.745  14.162   1.765  0.0214  0.1013 -0.0409
31341W        W46958   4.089   8.217  15.404 -0.0285 -0.0006 -0.4900
31342W        W46959   5.286  11.446  16.038  0.0541 -0.1179  0.0856
31343W        W46960  17.928   9.636   5.041  0.5468  0.1428  0.1386
31344W        W46961  14.884  13.950  13.027 -0.1288  0.0609  0.0949
31345W        W46962  14.874  11.519   5.013  0.0364  0.4076  0.2604
31346W        W46963  15.567  17.030  15.035 -0.0472  0.0797 -0.0525
31347W        W46964   8.626   4.398  12.328  0.4324 -0.1993 -0.0208
31348W        W46965  15.173   6.759  16.365  0.1726  0.2316  0.0319
31349W        W46966   3.746  13.301   3.021 -0.0807 -0.2615 -0.2121
31350W        W46967   5.315  11.949   4.332  0.2267  0.1393 -0.0135
31351W        W46968   4.997   8.276   4.482 -0.1890 -0.0547  0.3705
31352W        W46969  16.741   1.341   1.414 -0.1007 -0.4394  0.2056
31353W        W46970  14.864   4.483   4.597  0.0009 -0.2173 -0.2062
31354W        W46971  17.244   2.007  14.700  0.0373 -0.1514  0.1259
31355W        W46972  12.393   5.650   4.287 -0.0566 -0.2273  0.2217
31356W        W46973   5.643  13.404   0.186  0.1611 -0.0228  0.0478
31357W        W46974  14.072   0.244   3.091  0.0987  0.3024 -0.1478
31358W        W46975   9.075   0.041  13.457  0.4199 -0.0364  0.0577
31359W        W46976  11.529  13.734  12.973  0.4226 -0.3769 -0.0811
31360W        W46977  13.995   3.300   4.595  0.1598 -0.1401  0.1882
31361W        W46978  16.562   5.137  16.687  0.4183 -0.1938 -0.0449
31362W        W46979   4.242  17.496   0.389  0.2444 -0.1987 -0.0640
31363W        W46980  14.188   9.913   1.353 -0.0599  0.0973 -0.1251
31364W        W46981   9.247   9.921  16.101  0.3075 -0.1400 -0.1650
31365W        W46982  12.397  14.421   4.802  0.0948  0.0326 -0.0045
31366W        W46983  16.217  15.178   4.083 -0.3441 -0.0964  0.0095
31367W        W46984   9.369  15.739  12.997  0.0179  0.0580  0.1058
31368W        W46985  12.561  17.945   4.840  0.3569 -0.1961 -0.4601
31369W        W46986   2.871   8.156  14.965  0.1117 -0.0823 -0.1451
31370W        W46987   2.059   2.925  12.703  0.0001  0.1539 -0.0093
31371W        W46988  13.785   3.002  15.139  0.3101  0.3724  0.1017
31372W        W46989   3.027  17.894   4.128 -0.0915 -0.1067 -0.0004
31373W        W46990  13.126   0.358  15.761  0.0056  0.3809  0.3197
31374W        W46991  15.135   4.279  15.797  0.2564 -0.2030 -0.4210
31375W        W46992   3.264   1.325  12.383  0.4740  0.0731  0.1373
31376W        W46993   4.732   6.841   5.925 -0.0972 -0.1668 -0.1059
31377W        W46994  14.557   4.953   5.930 -0.1345 -0.0445 -0.1613
31378W        W46995   2.722  16.646   4.890  0.0343 -0.1576 -0.0365
31379W        W46996  10.910   7.865   1.699 -0.1144 -0.3040  0.0104
31380W        W46997  12.618  11.882  11.440  0.0110 -0.2380 -0.0563
31381W        W46998   9.435   0.676  12.166 -0.2855 -0.0384  0.1433
31382W        W46999   2.813  11.617  16.498  0.0484 -0.2690  0.4869
31383W        W47000   4.136   4.801  11.841 -0.1883  0.0575  0.2150
31384W        W47001   1.048   8.652   2.376 -0.2877  0.0052  0.5343
31385W        W47002  17.622   8.288   4.206 -0.2452 -0.1102 -0.0819
31386W        W47003  14.139  16.318   4.412  0.2272 -0.3550  0.1370
31387W        W47004  14.481  10.537  14.059 -0.1540  0.0545 -0.2437
31388W        W47005   1.652   3.514   0.398 -0.0119  0.2132  0.0672
31389W        W47006  16.582   5.022   2.324  0.4326  0.1416  0.2172
31390W        W47007   2.120   3.930  12.728 -0.3135  0.0304 -0.1642
31391W        W47008   5.178  15.195  14.497 -0.0309 -0.2245  0.1025
31392W        W47009  15.667   1.378  11.501 -0.0452 -0.1489 -0.1975
31393W        W47010   8.642  10.735   5.458 -0.1392 -0.0757 -0.0841
31394W        W47011   0.980   5.201   0.368 -0.0672  0.2189  0.1368
31395W        W47012  13.312  12.239  16.077 -0.0391 -0.0816  0.0401
31396W        W47013   3.106  10.642   4.023  0.3517 -0.3814  0.0309
31397W        W47014  15.601   6.809  14.720 -0.1255  0.3268 -0.0072
31398W        W47015   8.430   2.036   3.233  0.0342 -0.0209  0.2746
31399W        W47016   2.253   6.499  16.204  0.0164 -0.4336  0.0703
31400W        W47017  14.997   3.039  11.773 -0.1097  0.0254  0.0696
31401W        W47018   3.969  15.500  12.758  0.2854  0.1560 -0.1812
31402W        W47019   0.463   8.875  15.337  0.3654  0.1070  0.1823
31403W        W47020  14.379  11.218  15.577 -0.1731  0.1217 -0.2115
31404W        W47021  15.967   9.656   0.227 -0.2078  0.2839  0.3045
31405W        W47022  11.167   6.467   4.423  0.0581  0.0829  0.3570
31406W        W47023   5.788   5.811  16.404 -0.2816  0.0951  0.0173
31407W        W47024   7.490  15.742   4.750 -0.2208  0.1408 -0.0788
31408W        W47025  15.143   6.230  12.400 -0.2954 -0.1775  0.2234
31409W        W47026  11.137  14.788  12.953  0.1623  0.2066 -0.1221
31410W        W47027  12.271  17.123   2.429 -0.0324  0.2644 -0.1166
31411W        W47028   8.625  12.577   3.162 -0.0418 -0.0467 -0.1100
31412W        W47029   7.083   5.409   4.764  0.2690  0.0645  0.3429
31413W        W47030   9.452   0.188   0.041  0.0486  0.1803 -0.2050
31414W        W47031   2.206  10.118   4.027  0.0703  0.1943 -0.0925
31415W        W47032  15.286   9.305   3.248 -0.1568 -0.2498  0.1061
31416W        W47033  16.607  17.527  10.868 -0.0240 -0.3293  0.3000
31417W        W47034   5.289  14.157   2.335  0.2142 -0.3123 -0.3587
31418W        W47035   1.533  12.414   0.291  0.0916  0.3141 -0.1373
31419W        W47036  11.117  15.982  12.233  0.1550  0.0019  0.0041
31420W        W47037   8.909   1.838  15.979  0.1887 -0.1524  0.3997
31421W        W47038  16.640  11.498   0.144 -0.4352  0.0191  0.1162
31422W        W47039  16.652  12.777   1.937 -0.2609 -0.2461 -0.1726
31423W        W47040   8.260  12.611  15.456  0.1143 -0.0126 -0.2123
31424W        W47041  15.400   3.913   2.251  0.1203 -0.2065  0.4005
31425W        W47042   5.866   1.002  13.422 -0.0422  0.1357 -0.1042
31426W        W47043   2.662   6.933  12.245  0.1580 -0.1100 -0.0835
31427W        W47044   6.475   8.090  13.146  0.0927 -0.1469 -0.1792
31428W        W47045   0.706   0.360   2.658 -0.0311 -0.1454 -0.1501
31429W        W47046  12.620  12.846   3.539 -0.2602 -0.6157 -0.2123
31430W        W47047   1.326   1.409   2.575  0.1528  0.0194  0.1026
31431W        W47048  14.309  10.077  14.195 -0.0597 -0.2342  0.1091
31432W        W47049   9.786  14.161   2.069 -0.3518  0.0010 -0.1325
31433W        W47050  17.076   6.955   1.480  0.3068  0.1108  0.1491
31434W        W47051   9.237   5.811  14.928  0.1573 -0.1982  0.1223
31435W        W47052  17.844   2.619   4.658  0.3137 -0.0700  0.2830
31436W        W47053   0.351  14.156   5.270 -0.3388 -0.3967  0.0822
31437W        W47054  13.312   2.287   4.317  0.4565  0.0539  0.1176
31438W        W47055  16.811   8.871   0.944  0.2398 -0.1049 -0.2326
31439W        W47056   1.987  15.869  15.471 -0.1841 -0.4543  0.2488
31440W        W47057   8.192   8.151  14.590 -0.2916 -0.1606 -0.1789
31441W        W47058  14.420  16.294   2.232  0.2118 -0.0543 -0.1881
31442W        W47059   0.064  17.419   5.812  0.1550 -0.1051  0.1165
31443W        W47060   2.547  13.097  12.750 -0.2880  0.0344  0.2403
31444W        W47061  13.426  11.889  12.261  0.0647 -0.1106  0.0423
31445W        W47062   2.331  11.382  13.696  0.1206  0.0734 -0.0209
31446W        W47063   3.271  15.224  14.787  0.0516  0.0112 -0.2127
31447W        W47064  12.766  17.388   5.483 -0.1984 -0.0180  0.1158
31448W        W47065   9.676  13.806  12.112  0.2604 -0.0370 -0.4654
31449W        W47066   6.971   9.324   2.967 -0.1017 -0.2647 -0.0671
31450W        W47067   7.964   8.842  12.039  0.0762  0.0954 -0.2203
31451W        W47068  16.160  14.651   1.070 -0.0960  0.0438  0.3097
31452W        W47069  10.580   5.792   2.683 -0.1905  0.2423  0.0250
31453W        W47070   3.933   4.057  12.448 -0.2624 -0.1490 -0.0574
31454W        W47071  10.902   7.473   2.079  0.1731  0.1751 -0.1356
31455W        W47072   0.301   9.744  12.075  0.0180  0.0292  0.1456
31456W        W47073  15.210   2.351   2.519 -0.0655 -0.0453  0.1319
31457W        W47074   2.085   3.019   2.524  0.0142 -0.0238  0.2737
31458W        W47075   1.490   5.134  12.064 -0.0838  0.0043  0.1477
31459W        W47076   2.697  15.497   5.689 -0.0241  0.2738 -0.1701
31460W        W47077   0.944  12.790   1.406 -0.0492 -0.0394 -0.3183
31461W        W47078   0.866   6.369   3.111 -0.2218  0.0133  0.0676
31462W        W47079  17.216   6.975   4.057 -0.0930  0.2386 -0.0359
31463W        W47080  12.327   8.985  12.945  0.1575  0.0908 -0.0402
31464W        W47081   5.859   3.220  11.455 -0.1562 -0.2621 -0.2739
31465W        W47082   0.029   0.156  11.986  0.2348  0.2254 -0.3222
31466W        W47083  17.380  16.907   0.059  0.0997  0.5019  0.0089
31467W        W47084   3.611   8.092   3.148  0.3037  0.3443 -0.2931
31468W        W47085   5.845   4.990  13.949 -0.2263  0.1532  0.0935
31469W        W47086   1.919   0.692  15.027  0.1125 -0.3674  0.0754
31470W        W47087  14.711   0.642   2.238  0.0746  0.0110 -0.1270
31471W        W47088  10.966  13.740   5.424  0.0188  0.0906 -0.2498
31472W        W47089   6.712   0.128  12.596 -0.0826  0.0011  0.0414
31473W        W47090   4.169  16.286   4.705 -0.1784 -0.1938  0.0427
31474W        W47091  13.796   8.341   0.707  0.1408  0.3246 -0.1015
31475W        W47092  16.153   9.851   3.777 -0.1250 -0.2189  0.1943
31476W        W47093   5.014   5.828  16.406 -0.0011 -0.1666 -0.2333
31477W        W47094   9.915  11.992  12.521  0.1565  0.0907 -0.0844
31478W        W47095  13.658   9.699  10.427  0.3280 -0.0127 -0.2649
31479W        W47096  14.535  15.937  12.543 -0.2478 -0.2043 -0.2358
31480W        W47097  12.725  13.591  13.447  0.0273  0.2054 -0.0496
31481W        W47098  15.869   5.820   5.374  0.3884 -0.3547 -0.0656
31482W        W47099  10.613  10.751  13.853 -0.2176 -0.1726 -0.1569
31483W        W47100   7.382   9.151   5.381 -0.2759 -0.1162  0.1772
31484W        W47101   6.324  13.354  10.937 -0.0036 -0.0815  0.1637
31485W        W47102   9.828  14.357   1.337 -0.2764 -0.2177  0.0409
31486W        W47103   9.190   1.790   0.333 -0.2590  0.2044  0.1719
31487W        W47104  11.433  16.789   3.195 -0.3177 -0.0267 -0.2419
31488W        W47105   2.740   3.814   5.722 -0.2623 -0.0553  0.0164
31489W        W47106  14.250   3.021   6.227 -0.0055 -0.0969 -0.0763
31490W        W47107   9.497   3.955  11.744  0.1161 -0.0221  0.2494
31491W        W47108  10.283   3.692   0.476  0.0406  0.0775 -0.2100
31492W        W47109   7.062   9.114  12.765 -0.0197 -0.2759  0.1204
31493W        W47110  13.444  17.440  12.088 -0.1432  0.1103  0.0574
31494W        W47111  11.059   5.334   0.907 -0.0546  0.1430  0.0790
31495W        W47112   6.417   2.888   3.036  0.3019  0.0475  0.0330
31496W        W47113  14.660   1.144   0.433  0.4128 -0.3996  0.0440
31497W        W47114   1.326  16.008   1.128  0.1061  0.2021  0.0008
31498W        W47115  15.168  12.356  13.667 -0.0882 -0.0214  0.0633
31499W        W47116   9.119  16.250  16.748 -0.3471  0.2575 -0.1762
31500W        W47117  14.734  16.919  16.234 -0.0460  0.3128  0.1634
31501W        W47118  10.950   9.513  14.967 -0.4195  0.1235 -0.1284
31502W        W47119   6.994   8.094  16.484 -0.1539 -0.1075 -0.0744
31503W        W47120   6.802  12.025  11.806  0.3174  0.2308  0.0690
31504W        W47121  12.525   4.428   3.065  0.0315  0.1087  0.0060
31505W        W47122   6.073   8.519   4.088  0.3542 -0.0455  0.0245
31506W        W47123  11.858  14.059   1.491  0.0821  0.0500 -0.3738
31507W        W47124  13.964   9.811   5.191  0.0966  0.0751 -0.2115
31508W        W47125  16.965  14.990   3.759 -0.0896 -0.2290  0.1785
31509W        W47126  11.672  17.871  13.312 -0.2147  0.0577 -0.2071
31510W        W47127  11.084   4.892   0.628  0.0289  0.3287 -0.1379
31511W        W47128   1.469  15.840   5.040 -0.2355  0.0979 -0.2279
31512W        W47129   0.431   7.514   0.530  0.1280 -0.3213  0.3590
31513W        W47130  16.333  12.186  12.592 -0.1754  0.2143 -0.0401
31514W        W47131  16.220  17.629   1.826 -0.2539 -0.2123  0.2123
31515W        W47132  12.322   6.557  16.760  0.1173  0.2837 -0.0244
31516W        W47133   1.785   4.116   0.526  0.2582 -0.0373  0.0677
31517W        W47134   6.521   8.770   3.628 -0.3734  0.0789 -0.0051
31518W        W47135   0.211  15.500   2.362  0.2230 -0.3796 -0.6667
31519W        W47136   7.146   9.635  11.622  0.0028 -0.0509 -0.3116
31520W        W47137  13.201   5.694  13.690 -0.1643  0.1211 -0.0921
31521W        W47138  14.990   5.580  16.593 -0.0908 -0.0167 -0.1578
31522W        W47139  13.235   2.205  15.197 -0.2413 -0.1034 -0.1012
31523W        W47140   6.049   8.869   3.742  0.1128  0.1088 -0.1539
31524W        W47141   5.461   3.927   5.189  0.3049  0.2770 -0.4019
31525W        W47142  15.764   5.354   5.544 -0.2868 -0.1697 -0.3288
31526W        W47143   1.312  13.575   4.782  0.1978 -0.3041 -0.1132
31527W        W47144   8.694   8.525  14.870  0.3908  0.4653 -0.1427
31528W        W47145   5.546  10.369  16.239  0.1989  0.1884 -0.2871
31529W        W47146  10.668  17.594  15.526  0.0372  0.3113  0.0963
31530W        W47147   5.840  16.961  13.125 -0.0723 -0.0797 -0.0872
31531W        W47148   2.819  13.330   1.116 -0.0896  0.0513  0.0653
31532W        W47149   0.681  17.138   3.189  0.3931 -0.0890  0.2220
31533W        W47150   1.398  15.393   1.837  0.0460 -0.1503 -0.1209
31534W        W47151   9.722   0.496  12.627 -0.0293 -0.3048 -0.1251
31535W        W47152  11.559  14.240   1.869 -0.2162  0.3429 -0.0459
31536W        W47153  13.991  17.450  14.633  0.1109 -0.2108  0.2809
31537W        W47154  16.592  14.784  16.274 -0.0716  0.0372 -0.0746
31538W        W47155  14.528  18.006  14.957 -0.1233  0.0772  0.0690
31539W        W47156  10.875  10.965   3.489  0.2232 -0.0781 -0.1804
31540W        W47157   4.088   5.986  16.615  0.4671 -0.2299  0.1854
31541W        W47158  17.567   7.745  13.140  0.0909  0.1744  0.2858
31542W        W47159   6.331  11.517  13.917 -0.1012 -0.1728  0.2875
31543W        W47160   6.787   3.063   4.285 -0.1748  0.2996  0.0750
31544W        W47161  17.926  15.286   4.208  0.0325  0.0671 -0.2370
31545W        W47162   3.629   5.075   2.231 -0.1251  0.1926  0.0378
31546W        W47163  12.047  17.942   4.582 -0.4239  0.0214 -0.1347
31547W        W47164  17.284   3.428   2.218 -0.1238 -0.1311 -0.1640
31548W        W47165  13.078  10.345   3.418  0.1860  0.0276 -0.1405
31549W        W47166   7.561   3.351   2.844  0.1289 -0.1347 -0.1552
31550W        W47167   1.662   9.339  13.037 -0.1131  0.2161 -0.2106
31551W        W47168   7.554   6.390   4.398 -0.0709 -0.1133  0.2721
31552W        W47169  13.977  10.602  16.177 -0.0233 -0.1520 -0.0540
31553W        W47170   0.757   7.081   5.293  0.1597  0.0433  0.3640
31554W        W47171   0.506   6.853   3.772  0.2829 -0.0102  0.0728
31555W        W47172   1.416   9.345  16.698 -0.1302  0.0587  0.1043
31556W        W47173   6.829  16.289  16.445 -0.1533 -0.1802 -0.1622
31557W        W47174   1.355   4.150  13.330 -0.1779  0.0070 -0.1519
31558W        W47175  12.382  10.736  13.919  0.2529  0.1985 -0.0672
31559W        W47176  17.558  10.312   3.249 -0.0729  0.1333 -0.3168
31560W        W47177   2.696   0.265   5.383 -0.1014 -0.1914  0.0414
31561W        W47178   4.280   4.399  12.241 -0.2525  0.1349 -0.0024
31562W        W47179  16.715   5.284   4.159  0.1164  0.2430  0.1717
31563W        W47180  17.412  14.842   0.274  0.0586 -0.1060  0.0097
31564W        W47181   0.539  11.767   3.654 -0.1090  0.2190 -0.0505
31565W        W47182   9.394  10.060   0.704 -0.1338  0.3770  0.2166
31566W        W47183   4.838   7.073   0.314  0.0851  0.5649 -0.3243
31567W        W47184   6.034   3.161   0.938  0.0020  0.2432 -0.1543
31568W        W47185  16.854  11.170   3.996 -0.2185  0.1822 -0.2543
31569W        W47186   7.731  11.491   4.066  0.2856 -0.3484 -0.2343
31570W        W47187   8.158   4.244   2.661  0.0348  0.1493  0.0187
31571W        W47188   3.069   7.188   2.475  0.1634  0.1546 -0.0160
31572W        W47189   4.153  10.555  14.327 -0.1706  0.1552  0.1313
31573W        W47190   4.543  10.287   1.620  0.2981 -0.1401 -0.1525
31574W        W47191  17.306  14.273  16.574 -0.3083 -0.0514 -0.0094
31575W        W47192  17.117   8.087   0.210  0.0942 -0.0505  0.0936
31576W        W47193   1.139   5.993  12.815  0.0040  0.4491  0.1788
31577W        W47194   1.594  13.822   3.580  0.1554 -0.0797 -0.0226
31578W        W47195  12.715   7.089  11.630  0.2814 -0.3662 -0.1094
31579W        W47196   2.602   0.851  15.527 -0.0881  0.0685 -0.0154
31580W        W47197   9.437   6.103   4.719  0.1525  0.1076  0.2461
31581W        W47198  12.730   8.671   5.335 -0.1563 -0.0343  0.2206
31582W        W47199  11.613   6.531  16.192 -0.0439  0.2675  0.0386
31583W        W47200  12.021   5.436  16.353  0.4825  0.2745  0.6061
31584W        W47201   8.373  14.133   3.320 -0.0898 -0.2114 -0.0935
31585W        W47202  14.333   2.788  13.254 -0.2189 -0.2248 -0.2748
31586W        W47203   0.844  10.928  12.844  0.3718 -0.1086 -0.3117
31587W        W47204   9.348   2.374  15.661 -0.1891 -0.1145 -0.2794
31588W        W47205  10.299  11.633   3.302 -0.1020 -0.2494 -0.0869
31589W        W47206  13.665  14.764   4.507  0.3147  0.0733  0.0515
31590W        W47207  10.586   8.782  12.682  0.1940  0.0787  0.1879
31591W        W47208   6.978   8.532  16.142 -0.0648 -0.0241  0.0486
31592W        W47209  10.753  13.987   0.986  0.0032  0.3689  0.0799
31593W        W47210   9.578  13.618   0.264 -0.0168 -0.0043 -0.1290
31594W        W47211   0.455   4.255   3.843 -0.0435 -0.0306 -0.0903
31595W        W47212   6.888  13.534  12.705  0.0789 -0.2083 -0.0809
31596W        W47213   8.692  16.301   3.465  0.0306  0.1751  0.0688
31597W        W47214  14.002  17.842   3.244  0.2255  0.3108 -0.1954
31598W        W47215  12.411   9.844   4.669 -0.1287 -0.6345  0.4883
31599W        W47216   6.601   5.293   3.044 -0.0059  0.1746  0.0776
31600W        W47217   7.463   4.815  15.427 -0.1147  0.0268  0.1118
31601W        W47218   3.684  14.896   2.085 -0.0223 -0.0442 -0.1308
31602W        W47219   7.080   0.254  13.882  0.0768 -0.0974  0.1466
31603W        W47220  15.212  13.203  13.680 -0.1777  0.2882  0.1255
31604W        W47221   9.022   7.728  13.086 -0.2168 -0.0865 -0.2117
31605W        W47222   8.371  11.150   0.520 -0.0229  0.0925 -0.1891
31606W        W47223  14.737   2.343  14.700 -0.0559 -0.0382  0.0240
31607W        W47224  10.286   3.994   1.298  0.2810  0.1876  0.0424
31608W        W47225   4.181  10.779  16.027  0.0413 -0.0675 -0.0325
31609W        W47226   2.756   5.988   4.926  0.0806 -0.0998 -0.0025
31610W        W47227   6.206   7.085  14.816  0.0027  0.2800  0.1012
31611W        W47228   4.452  10.058  13.595 -0.1192 -0.0516 -0.2189
31612W        W47229   9.438  10.171   4.347 -0.1280 -0.5329 -0.1960
31613W        W47230   1.809  14.872  16.031  0.0425 -0.1148  0.3027
31614W        W47231  16.885  17.973  12.510 -0.0605 -0.1936  0.1051
31615W        W47232   6.117  17.306   4.486  0.1247  0.4663  0.2124
31616W        W47233   4.858   2.440   2.112  0.2029 -0.2505 -0.1621
31617W        W47234  11.736  10.914  13.211  0.2267  0.2126 -0.0033
31618W        W47235   5.181   4.855   3.386  0.0806  0.1637  0.0622
31619W        W47236   0.567  14.750   2.391 -0.0836 -0.2637  0.1933
31620W        W47237   2.394  16.432  13.841 -0.1526 -0.2293 -0.1411
31621W        W47238   0.148   1.403  13.956  0.2235  0.0012 -0.1711
31622W        W47239  10.843   4.453   2.794 -0.0794  0.1670  0.1363
31623W        W47240   6.268  16.677  12.218  0.2053 -0.5172 -0.0655
31624W        W47241   2.107  12.561   0.439  0.0447 -0.0188 -0.1170
31625W        W47242  15.523   6.409  12.048  0.2969  0.1689  0.2253
31626W        W47243  13.849  14.793  16.380 -0.0756 -0.5168 -0.0902
31627W        W47244   8.852   4.469  14.287  0.3543  0.0534  0.1412
31628W        W47245   5.846   1.540   0.232 -0.0550 -0.1476 -0.0832
31629W        W47246  17.774   1.057  15.530  0.2022 -0.0693  0.0399
31630W        W47247   8.021  12.761  12.357 -0.0321  0.1130 -0.1959
31631W        W47248  12.897   7.188  12.699  0.0968 -0.1882  0.1269
31632W        W47249   2.572  11.352   1.922 -0.1619  0.2677  0.1105
31633W        W47250  13.471   2.346  16.249  0.0332 -0.3995  0.0339
31634W        W47251   4.761   1.159   5.018 -0.1252  0.1384 -0.0190
31635W        W47252   2.549  12.943  12.205  0.0440  0.2190 -0.1726
31636W        W47253  16.131   1.120   0.765 -0.2350  0.2472  0.3850
31637W        W47254   4.421  13.923   1.143 -0.0155 -0.4299 -0.1032
31638W        W47255  16.958   4.209   2.663 -0.1067  0.3714  0.1334
31639W        W47256  10.901  14.840   5.922  0.1568  0.0625 -0.0121
31640W        W47257  13.455   1.059   0.946  0.1929 -0.0705  0.2967
31641W        W47258   7.865  15.327   4.866  0.2534  0.2146  0.1763
31642W        W47259  15.332  17.303  11.751  0.1646  0.2983  0.1463
31643W        W47260  16.871   1.275   0.017 -0.1404  0.1537  0.0830
31644W        W47261   9.781   3.327  12.234  0.1422 -0.0007 -0.2084
31645W        W47262   6.620   4.265  12.956 -0.3323 -0.1033 -0.0621
31646W        W47263  12.050  12.326  15.559 -0.1559 -0.0147  0.0389
31647W        W47264   6.622  15.594  13.210 -0.1259 -0.8994 -0.0977
31648W        W47265  15.091   0.104  15.608 -0.3661 -0.0637 -0.1730
31649W        W47266   4.365  15.093  16.242 -0.1018  0.0288  0.1237
31650W        W47267   3.788  15.703   5.223  0.1102  0.0339 -0.3055
31651W        W47268   9.381   0.346   1.664  0.2187 -0.0594 -0.3665
31652W        W47269   3.979   3.998  16.612 -0.2551 -0.0082  0.1685
31653W        W47270  17.243   4.535  13.004 -0.1926 -0.1750 -0.0509
31654W        W47271   8.284  10.728   0.262 -0.3402 -0.2874  0.1182
31655W        W47272   0.404  16.484   2.448  0.1584  0.0189  0.0726
31656W        W47273  16.458  13.020  15.270  0.1745  0.1297 -0.3099
31657W        W47274   7.412  16.385  16.061  0.0819  0.1053 -0.1128
31658W        W47275  14.218   7.248  11.337  0.0754  0.3821  0.0034
31659W        W47276   0.515  10.149  13.048  0.0086  0.4233  0.1949
31660W        W47277   2.460   1.214  15.852  0.0674 -0.1150 -0.0432
31661W        W47278  13.801   2.380   0.361 -0.1123  0.0482  0.1857
31662W        W47279   7.221   5.337   1.898  0.2284  0.0279  0.0536
31663W        W47280  13.882   0.610   2.196 -0.1571  0.2970  0.2278
31664W        W47281   8.309  10.825   4.512  0.5132  0.0530 -0.2703
31665W        W47282   0.784   3.471   2.419  0.2894  0.0432  0.0302
31666W        W47283  12.387  10.123   0.284 -0.0636 -0.2037  0.0313
31667W        W47284  16.184   9.146  14.623 -0.1080  0.0193 -0.1136
31668W        W47285   9.691  14.253  11.033 -0.0903  0.0392 -0.1782
31669W        W47286  17.256   4.835  12.171  0.0968 -0.1858 -0.0677
31670W        W47287  10.769  15.582  14.101 -0.3387 -0.1902  0.0812
31671W        W47288   3.100   6.639   1.107 -0.0897 -0.0230  0.1409
31672W        W47289   5.960  11.740  11.089  0.1539 -0.0851 -0.1339
31673W        W47290  14.250  12.200   3.457 -0.2331 -0.0152 -0.0293
31674W        W47291  17.708   5.868   5.760  0.2203 -0.0939 -0.3003
31675W        W47292   7.099  16.660   3.824 -0.0996  0.0510 -0.4130
31676W        W47293  12.345  15.949   1.046  0.1573 -0.0953  0.0189
31677W        W47294   9.059  15.345  15.196  0.1657 -0.0698 -0.0924
31678W        W47295   5.622   6.664  15.869  0.1208  0.2112 -0.0402
31679W        W47296  13.641  11.648   3.224 -0.2353  0.1947 -0.0475
31680W        W47297   4.174   3.162  16.302  0.0038 -0.1693  0.1163
31681W        W47298   1.525   2.695   0.830  0.3272 -0.0058  0.1097
31682W        W47299   6.460   6.421   0.767 -0.0186 -0.2405 -0.1191
31683W        W47300   6.955  17.751   1.562  0.0993  0.1705 -0.2543
31684W        W47301  11.033   8.582   3.917  0.0178 -0.1283 -0.3073
31685W        W47302  16.728   7.828   5.208 -0.1102 -0.0799  0.0491
31686W        W47303   0.746  12.981  12.700  0.0339  0.1912  0.0517
31687W        W47304  11.012  16.462  12.498  0.0390 -0.1030 -0.2738
31688W        W47305  16.567   7.562  11.283  0.0880  0.2688 -0.1266
31689W        W47306  15.315   8.275  13.281 -0.3059 -0.4365  0.1484
31690W        W47307  15.510   6.354   1.307  0.0696 -0.0836 -0.1986
31691W        W47308   3.612  10.232  12.942 -0.1598 -0.0828  0.1539
31692W        W47309   8.713  14.816  14.833  0.1828 -0.0215 -0.1048
31693W        W47310  12.699   9.118  12.532  0.0443  0.0649 -0.1990
31694W        W47311  11.697   6.148  15.688 -0.0012  0.0583 -0.0191
31695W        W47312  12.098   0.113   0.656  0.0115  0.2985 -0.1918
31696W        W47313  10.408  10.146   0.071  0.1825  0.0248  0.0175
31697W        W47314   0.940   2.978   2.285 -0.0620  0.2028 -0.1987
31698W        W47315  16.530  17.806  12.854 -0.0076  0.0660  0.0792
31699W        W47316   5.912  10.510  14.170  0.2925 -0.1207 -0.0528
31700W        W47317   5.981  15.170  12.466  0.1293  0.4100 -0.3200
31701W        W47318  13.606  15.548  13.520  0.0340 -0.0246 -0.0036
31702W        W47319  11.894   3.832  16.710 -0.1490  0.5019 -0.0656
31703W        W47320   7.322  12.282   1.421 -0.0470 -0.0785  0.2964
31704W        W47321   4.914   0.971   3.999  0.2032  0.0214 -0.2023
31705W        W47322   4.289   1.587   0.396 -0.1366  0.0263  0.0017
31706W        W47323  14.827   9.466  16.529 -0.0735  0.0669 -0.1512
31707W        W47324   8.133  17.491   1.996 -0.0695 -0.1490 -0.0259
31708W        W47325   3.768  16.573  14.553 -0.2089  0.1535 -0.2280
31709W        W47326   7.486   1.054   4.448 -0.0893 -0.1218 -0.1176
31710W        W47327  16.563  16.303  15.617 -0.2236  0.0421  0.1329
31711W        W47328  10.922   2.975  12.131 -0.1743  0.1103 -0.0104
31712W        W47329  12.318   7.454  10.720 -0.5809 -0.0615 -0.1594
31713W        W47330   0.340  17.431   3.412  0.3969 -0.2476  0.2217
31714W        W47331   9.969   7.614  15.186  0.2692 -0.0462  0.0637
31715W        W47332  12.281  12.864  12.816 -0.0533  0.1072 -0.0216
31716W        W47333   6.148   3.507   1.701  0.1734 -0.1303  0.1931
31717W        W47334   8.152  10.306   0.546 -0.2247  0.0516  0.0097
31718W        W47335   9.970  16.177  12.846  0.0949  0.0691  0.3379
31719W        W47336   6.285  13.225   0.149  0.2558 -0.0553  0.0451
31720W        W47337   7.580   2.026   0.502  0.1885 -0.0304 -0.4835
31721W        W47338   2.382  16.309  14.646  0.4654 -0.1232 -0.0311
31722W        W47339   2.196   6.081  14.409  0.0836 -0.0182  0.0479
31723W        W47340   1.422   4.366  12.036 -0.0744 -0.0127 -0.3467
31724W        W47341  10.888   2.708  15.674 -0.0084 -0.0592  0.0759
31725W        W47342  15.820  17.266   4.414  0.0836 -0.2129  0.0882
31726W        W47343   8.884  11.969   1.892  0.2565  0.0869  0.4880
31727W        W47344   0.215   0.489  14.504 -0.1918  0.2245 -0.0859
31728W        W47345  14.115   6.846  13.460 -0.4253 -0.1621 -0.0126
31729W        W47346   7.478  10.986  10.804 -0.0792 -0.2713 -0.2369
31730W        W47347   3.769  17.797   0.147  0.0661 -0.5769 -0.1012
31731W        W47348  10.135   6.307   3.287  0.2906  0.1890  0.3078
31732W        W47349   4.390  13.830   3.471  0.3961 -0.0386  0.0334
31733W        W47350   5.861  11.306   0.580 -0.4957 -0.0509 -0.1059
31734W        W47351  10.137   0.833  10.555 -0.0700  0.1425  0.1703
31735W        W47352   1.733   8.384   4.790 -0.3697 -0.2820  0.1367
31736W        W47353  11.312   1.001  14.461  0.2178 -0.2170 -0.0546
31737W        W47354  11.453  10.193   4.715 -0.0470 -0.1507  0.0839
31738W        W47355  13.056   2.324  15.996  0.1221 -0.2497 -0.1402
31739W        W47356  11.111   9.928  15.341 -0.2429 -0.1084 -0.0294
31740W        W47357   0.640   4.217   1.579 -0.0468 -0.1819 -0.1252
31741W        W47358   6.395   5.068  14.204 -0.0860  0.1491  0.1010
31742W        W47359  15.419   9.744   3.650  0.0865 -0.0617  0.0263
31743W        W47360  12.011  13.481  13.401  0.0515 -0.1241  0.0260
31744W        W47361  14.665  17.084   1.094 -0.1603  0.3263 -0.1481
31745W        W47362  17.132  17.888   3.776 -0.0171 -0.2854 -0.0512
31746W        W47363   5.695   9.412  16.553 -0.1006 -0.0052  0.1856
31747W        W47364  12.399  11.001   5.363 -0.2116 -0.0663  0.2090
31748W        W47365   2.083  17.055  11.561 -0.1160  0.2744  0.0993
31749W        W47366  14.018  13.285   5.628  0.3148 -0.3599 -0.1527
31750W        W47367   0.771   3.609  15.960  0.0219 -0.4267 -0.0063
31751W        W47368  14.050  17.378  12.391  0.0867 -0.0371 -0.0406
31752W        W47369  13.027  15.806  11.572 -0.2223  0.2356 -0.3903
31753W        W47370   8.554   1.942   5.986 -0.1640 -0.0990 -0.1363
31754W        W47371   0.163  10.191  12.135  0.0619 -0.1098 -0.1619
31755W        W47372   4.774  17.588  15.080 -0.2955 -0.1150 -0.0499
31756W        W47373  12.851   9.691  13.555  0.2762  0.2459 -0.0315
31757W        W47374  16.608  14.421  11.612  0.0679  0.0515 -0.3658
31758W        W47375   0.372  16.694  15.614 -0.1127  0.3314  0.0706
31759W        W47376  13.326   5.418  11.456 -0.2847  0.0999 -0.3391
31760W        W47377   1.011  14.051   0.086 -0.3422  0.0575 -0.0459
31761W        W47378  17.411  14.582   4.194 -0.0181 -0.1264  0.0904
31762W        W47379   6.268  14.704  15.790  0.1652  0.1221  0.1172
31763W        W47380   6.358  12.561   2.188  0.0338  0.1318  0.0232
31764W        W47381  12.127  11.277   4.421 -0.1633 -0.0317 -0.0270
31765W        W47382   6.756   6.834  13.569 -0.0365  0.2646  0.3964
31766W        W47383   4.480   0.980  16.398  0.0444 -0.4190  0.2312
31767W        W47384  17.328  15.104  14.076  0.1988 -0.0116  0.0215
31768W        W47385   4.549   6.747  14.226 -0.1309 -0.0339 -0.1494
31769W        W47386  16.597   3.166   1.889  0.1167 -0.1179 -0.0362
31770W        W47387  17.361   9.287   0.141  0.2430  0.2138 -0.1876
31771W        W47388   8.550   0.931  13.363  0.4245 -0.2185  0.0461
31772W        W47389  11.718  15.091   6.284 -0.2034  0.0969 -0.1896
31773W        W47390  17.849  15.997   5.886 -0.1046 -0.0878  0.2075
31774W        W47391  14.682   5.528   4.443  0.1817 -0.0364 -0.0593
31775W        W47392  14.801  10.787   3.629  0.0864 -0.2118 -0.0259
31776W        W47393  14.004   9.817  11.826  0.2480  0.1551 -0.3364
31777W        W47394  14.460   9.648  16.184 -0.1260  0.0775  0.0114
31778W        W47395  11.884   5.693  11.642  0.0102 -0.0408 -0.1064
31779W        W47396  17.416  13.345  15.977  0.3549 -0.3882  0.0890
31780W        W47397   2.070   2.070   1.437  0.0962  0.0509 -0.1684
31781W        W47398  12.670   5.846  15.403 -0.2508 -0.1975 -0.5223
31782W        W47399   1.382   1.922   2.902  0.2796 -0.0961  0.0162
31783W        W47400   3.726   2.835  13.134 -0.1339  0.0066  0.1327
31784W        W47401   4.352  11.415   2.418  0.0260  0.3610  0.0797
31785W        W47402  13.398   3.138  11.788 -0.1123  0.0907 -0.1499
31786W        W47403  12.722   1.464  12.266 -0.2270 -0.1123  0.0192
31787W        W47404  10.058  12.496  16.342  0.1591 -0.2649 -0.0158
31788W        W47405   1.926  11.196  12.705 -0.1038  0.1776 -0.1714
31789W        W47406  17.460   4.885   1.960  0.1272 -0.0529 -0.0896
31790W        W47407   7.225   3.585   0.402 -0.1172 -0.2637  0.0283
31791W        W47408   2.090  15.726   5.969 -0.4391  0.4306 -0.1857
31792W        W47409  13.929  17.069  12.852  0.0333  0.1220  0.2177
31793W        W47410   0.424   3.281  14.813 -0.0362  0.0489  0.2899
31794W        W47411   6.225  15.317   5.379 -0.0416  0.1630 -0.1102
31795W        W47412   8.384  15.337  13.234 -0.2657 -0.2270  0.3941
31796W        W47413  12.288   3.919  16.335 -0.1412 -0.2458  0.3893
31797W        W47414   0.582  12.328  14.782  0.1534 -0.2753  0.2016
31798W        W47415  13.914  14.896  11.951 -0.2345  0.0706 -0.1353
31799W        W47416  12.524   8.028   4.212  0.3423 -0.1853 -0.2760
31800W        W47417   6.472   0.560  14.808 -0.2787 -0.1284  0.0920
31801W        W47418  13.569   8.972  16.216 -0.0140  0.1287  0.3322
31802W        W47419   0.336   7.473  14.551 -0.0738  0.0285  0.0019
31803W        W47420   0.596   2.389   1.232 -0.0962  0.1103 -0.0023
31804W        W47421   0.535  17.368  13.497  0.0761  0.1141  0.1013
31805W        W47422   2.720  13.528  14.872  0.2038  0.0559  0.0871
31806W        W47423   7.106   9.793   2.919  0.0621 -0.0705  0.1441
31807W        W47424  16.539   2.509  13.099 -0.2720 -0.1554  0.2049
31808W        W47425   1.698  16.850  12.618  0.4746  0.0338 -0.2365
31809W        W47426  17.375  16.464   2.240 -0.0301  0.2051  0.3456
31810W        W47427   9.204  11.835  10.633  0.0783  0.0237  0.0536
31811W        W47428   6.706  13.704  14.098  0.0473 -0.2622 -0.2796
31812W        W47429  10.813   4.983  12.968  0.1045 -0.2802 -0.2668
31813W        W47430   0.281   2.612  16.113  0.1225 -0.1528  0.1767
31814W        W47431  15.583   5.954  13.452  0.0204  0.0625  0.0894
31815W        W47432   5.566  12.479  11.753 -0.1656  0.6591  0.1247
31816W        W47433  17.118  10.448   5.082 -0.0878  0.0618  0.1609
31817W        W47434   3.437   0.514  13.964 -0.2193 -0.1169 -0.0582
31818W        W47435  14.278  16.395   5.410 -0.0380 -0.1781  0.2550
31819W        W47436  15.063  14.771   1.024  0.2642  0.2554  0.0800
31820W        W47437  10.409   5.337   0.179  0.2508  0.2304  0.1719
31821W        W47438  18.045   8.473   2.312  0.0479  0.1446  0.0310
31822W        W47439  13.419   2.896  13.973  0.0065  0.2094 -0.3261
31823W        W47440   9.533   8.727   4.659 -0.1570 -0.2629  0.2517
31824W        W47441   2.666   6.958   3.276  0.0803  0.1046 -0.0412
31825W        W47442   7.396   0.126   3.645 -0.1100 -0.0040 -0.2493
31826W        W47443  15.380  16.293  12.989 -0.0979 -0.0108 -0.0519
31827W        W47444  12.256  12.949   5.639  0.1388  0.2718 -0.1075
31828W        W47445   6.462   5.076  12.434 -0.3976 -0.1387 -0.1590
31829W        W47446  15.259   2.141   1.613 -0.1459  0.0891  0.0943
31830W        W47447  14.464   8.554   4.569 -0.2240  0.2276  0.2133
31831W        W47448   1.192   8.493   3.897 -0.2156 -0.2855  0.0609
31832W        W47449  15.377  11.588  12.277  0.2388  0.0093 -0.0129
31833W        W47450   1.640   0.337  14.734  0.1685  0.0701  0.0752
31834W        W47451  15.904   9.162   0.006 -0.0019  0.4350 -0.0112
31835W        W47452   9.148  17.591   4.903 -0.0625 -0.2173 -0.0652
31836W        W47453   9.949  10.702  12.288 -0.2748 -0.0997 -0.0735
31837W        W47454   8.758  12.699   0.624 -0.2414 -0.0016 -0.1748
31838W        W47455   5.647  12.167   5.237  0.3151 -0.0585  0.0024
31839W        W47456   6.182  13.937  13.443 -0.1972  0.0870  0.0339
31840W        W47457  11.249   3.119  14.017 -0.2324  0.1365  0.1384
31841W        W47458  12.137   5.852  13.683  0.1076 -0.1111  0.0311
31842W        W47459   3.604   5.718  11.317 -0.0810 -0.0890 -0.3276
31843W        W47460   2.044  11.283   2.691  0.0046  0.1160 -0.2052
31844W        W47461   4.542  13.482   1.474  0.1877  0.1809 -0.2906
31845W        W47462  14.706  10.470   4.017  0.1381 -0.3596 -0.2092
31846W        W47463  13.917   6.195  12.672 -0.0121 -0.2399 -0.3360
31847W        W47464   1.794   6.671   6.410  0.1053  0.0907  0.4608
31848W        W47465   0.054  17.860  11.640  0.2221  0.2702  0.3839
31849W        W47466  13.992  10.617   0.502 -0.1069  0.2057  0.0531
31850W        W47467  16.162   4.949  13.504  0.3331  0.2795 -0.0807
31851W        W47468   4.625   3.423   5.713 -0.0360  0.2261 -0.0589
31852W        W47469   1.386   7.256  13.122  0.1622  0.0348 -0.1010
31853W        W47470  18.024  17.271  14.970  0.1137  0.2886 -0.0156
31854W        W47471  10.236  15.596  12.386  0.2134  0.0184 -0.0464
31855W        W47472  17.944   0.700   4.537 -0.0477  0.2354  0.0714
31856W        W47473   3.977  10.752  13.524 -0.1559  0.2059 -0.2283
31857W        W47474  10.943  14.490  12.558 -0.1130  0.0048  0.5850
31858W        W47475  11.150   8.903   1.930 -0.2391 -0.3320  0.2314
31859W        W47476   0.304   4.739   3.206  0.0142  0.0354  0.5621
31860W        W47477   0.002  14.232  14.524 -0.1204  0.1011  0.2189
31861W        W47478   5.766   3.606   0.961 -0.1649  0.3149 -0.0552
31862W        W47479   1.556  10.852  10.285  0.1805 -0.1187 -0.0671
31863W        W47480   8.152  17.986   1.801 -0.0429  0.0782  0.1082
31864W        W47481  13.511  10.449   4.587  0.3558  0.2007 -0.0279
31865W        W47482  14.769   8.498   0.286  0.0994  0.2515  0.1241
31866W        W47483  17.423  12.939  14.067  0.6059  0.2104 -0.0908
31867W        W47484   3.311  13.174   0.959  0.2541  0.0413 -0.0357
31868W        W47485  16.302  16.378   1.095  0.3660  0.1963  0.1669
31869W        W47486   0.912   4.604   1.572  0.0166 -0.3626  0.2225
31870W        W47487  12.051  13.491   0.807 -0.0772 -0.1025 -0.1689
31871W        W47488   0.382   0.697  14.964 -0.0936  0.1045  0.2743
31872W        W47489   2.584   8.621   3.491  0.0968 -0.0674 -0.1510
31873W        W47490   3.403   4.488   0.609 -0.2467 -0.0141 -0.3814
31874W        W47491   8.720   9.464  14.581 -0.1298  0.0590  0.1112
31875W        W47492   8.077   1.031   3.260  0.0140 -0.1514 -0.1332
31876W        W47493   2.189   2.590   1.277 -0.0523  0.2711 -0.0922
31877W        W47494  12.113  11.708  16.058  0.0790  0.3146 -0.0639
31878W        W47495  16.128  12.865   1.675  0.1961 -0.4271  0.0217
31879W        W47496   0.404   2.107  16.160 -0.3085 -0.0388 -0.0657
31880W        W47497  13.349   4.264  14.743 -0.0809 -0.1641  0.0931
31881W        W47498   8.927  10.048  14.805  0.0538 -0.1337  0.0560
31882W        W47499  12.808   4.085  15.044  0.1115 -0.0707 -0.1296
31883W        W47500  14.761   6.418   4.733 -0.1532  0.0005  0.0470
31884W        W47501   1.448  17.089   0.679 -0.3661 -0.1021 -0.1986
31885W        W47502   0.771   9.627   5.061 -0.1050 -0.2476  0.0283
31886W        W47503   1.637  10.302   3.561 -0.0042 -0.0276  0.0682
31887W        W47504   1.270  18.024   2.592  0.2176  0.0005 -0.1061
31888W        W47505   5.186   6.518  12.724 -0.0377  0.0168 -0.3264
31889W        W47506   4.022   1.124  14.312  0.1194 -0.2402  0.1016
31890W        W47507   0.087   8.349   4.349 -0.0465 -0.0474  0.0746
31891W        W47508   7.747  16.355  14.397  0.1883 -0.0222 -0.4544
31892W        W47509  14.011   5.100   0.806  0.0311  0.0447  0.0874
31893W        W47510  11.876  12.006   1.163 -0.0960 -0.0711  0.4253
31894W        W47511  14.776   7.315   3.151  0.0485 -0.0560 -0.2251
31895W        W47512  10.911   5.714   5.640 -0.1285  0.5689  0.0766
31896W        W47513   2.846  13.844   4.316  0.1816  0.1831 -0.0470
31897W        W47514  10.336   2.756  15.714  0.1075 -0.0061  0.1252
31898W        W47515   1.412  11.391   0.302 -0.1476 -0.1042 -0.0111
31899W        W47516   1.103   6.321  13.326 -0.5991 -0.1232  0.0739
31900W        W47517  16.084   2.221  13.000 -0.0578 -0.0470 -0.0495
31901W        W47518   5.315   2.171   2.410  0.0793 -0.1774 -0.0968
31902W        W47519   6.660  16.066   0.131 -0.1610  0.1303  0.3066
31903W        W47520  12.863  15.933   3.289  0.0297 -0.0741  0.2668
31904W        W47521   9.358   8.325  13.585  0.3056 -0.0727 -0.1188
31905W        W47522   0.302   0.185   5.587  0.1402  0.0184 -0.0188
31906W        W47523   4.726   2.884   2.212 -0.0614 -0.1301  0.0207
31907W        W47524   3.597  17.836   2.691  0.3257  0.2351 -0.2879
31908W        W47525   3.953  16.518   5.752 -0.0308 -0.2049  0.1628
31909W        W47526   5.410   1.213   6.184 -0.0806 -0.1322  0.1712
31910W        W47527   4.108   2.618   5.275  0.3002 -0.1522 -0.2363
31911W        W47528  11.041   1.499  15.186 -0.2588  0.0668 -0.2171
31912W        W47529  16.242   2.401  14.319 -0.2253 -0.2466  0.2145
31913W        W47530   0.413   2.678   4.024  0.0034 -0.2733 -0.0748
31914W        W47531   6.564   2.641   0.477 -0.4046  0.1245 -0.0435
31915W        W47532   4.959   6.618  13.250 -0.1229  0.1334 -0.0434
31916W        W47533  17.455   7.974  15.472  0.1904  0.0249 -0.2325
31917W        W47534  15.947   9.846  13.011  0.0160  0.1715 -0.0593
31918W        W47535   5.211   1.111   3.626  0.1723  0.2456  0.2914
31919W        W47536  14.763  15.552  12.798 -0.1178 -0.0804 -0.1159
31920W        W47537   4.768   2.196   1.453  0.0882 -0.2504  0.2195
31921W        W47538  12.359   5.445   1.207 -0.2585  0.2839 -0.0930
31922W        W47539  10.473   1.168  14.094  0.0003 -0.2139 -0.0365
31923W        W47540   1.724   8.470  12.577 -0.1436 -0.1329  0.2462
31924W        W47541   4.802  15.740   5.176  0.0867 -0.0806 -0.0493
31925W        W47542   8.091   3.628  13.245  0.2432  0.0972 -0.0456
31926W        W47543   0.590  11.105  15.771  0.2298 -0.0738  0.1092
31927W        W47544   6.523  14.627  13.107 -0.1094 -0.3275 -0.2500
31928W        W47545   8.616  13.730   0.747 -0.0880  0.1339  0.2386
31929W        W47546   2.166   4.644  13.897  0.3169  0.0561  0.1401
31930W        W47547   9.637  14.453   4.935  0.2380  0.2816 -0.5909
31931W        W47548   5.487  14.042  12.151 -0.4406 -0.0950 -0.1331
31932W        W47549  14.431   3.815   0.938 -0.1246 -0.1225  0.1201
31933W        W47550  17.612   0.558  13.678  0.0587 -0.2137  0.1189
31934W        W47551  16.999   0.466  15.990 -0.1712 -0.0801 -0.0194
31935W        W47552  10.396  12.214  15.437  0.0530 -0.4226  0.2947
31936W        W47553   4.789   0.957  15.338 -0.1232  0.0679  0.4395
31937W        W47554   5.513   1.976   0.851  0.0284  0.0133 -0.1374
31938W        W47555   4.392  12.433  12.622  0.0383 -0.0429 -0.0455
31939W        W47556   6.855  11.835   3.605  0.5804 -0.2551 -0.0024
31940W        W47557  17.645  17.725  11.831 -0.4079  0.1671  0.1525
31941W        W47558   1.890   1.908  12.253 -0.0403 -0.3412  0.0890
31942W        W47559   5.345  14.711   2.190 -0.0474  0.3036  0.3047
31943W        W47560   9.891   4.974   3.284 -0.0327 -0.3911 -0.2173
31944W        W47561   0.318   3.323   6.723  0.0551 -0.1454 -0.2206
31945W        W47562   8.461   0.158   0.602 -0.2618 -0.0954 -0.1914
31946W        W47563  11.219  15.553  15.632  0.2201  0.0576 -0.2964
31947W        W47564   5.490   8.972   6.162 -0.2143 -0.0396 -0.1372
31948W        W47565   0.298   6.784  14.561 -0.0082  0.1710 -0.0732
31949W        W47566   6.252  11.753   3.417 -0.1816  0.3260 -0.0255
31950W        W47567   2.671   3.483   5.018  0.0785 -0.0391  0.0108
31951W        W47568   2.432  16.934   5.701  0.0209 -0.5848  0.2235
31952W        W47569   0.215   7.769   4.811 -0.0372  0.3089 -0.1370
31953W        W47570  17.333   5.994   3.036 -0.2578  0.0678  0.2409
31954W        W47571   7.634  17.478   0.387 -0.0077  0.1039 -0.2844
31955W        W47572   1.011   8.349   1.536  0.2692  0.2572 -0.1136
31956W        W47573   6.875   6.951   3.208 -0.2628  0.0270 -0.0712
31957W        W47574  14.354   1.167   5.572 -0.1191  0.0092  0.0984
31958W        W47575   2.992   2.049  15.146 -0.0290 -0.1119 -0.0207
31959W        W47576  13.323  17.940  15.603  0.0203  0.0166 -0.0831
31960W        W47577  15.498  17.994  16.674  0.2072 -0.0099  0.0614
31961W        W47578   3.452  17.786  16.051 -0.1588 -0.1347  0.0233
31962W        W47579   6.863   9.798  14.936 -0.1785 -0.0963  0.1296
31963W        W47580   9.160  14.517   5.103 -0.1080  0.0169 -0.1840
31964W        W47581   3.193  13.861  16.346  0.0707 -0.1689 -0.0117
31965W        W47582  12.140   7.638   1.800 -0.0922 -0.0413  0.3421
31966W        W47583  16.817  14.916  12.178  0.0320 -0.0233 -0.0412
31967W        W47584  12.096   0.080  13.372 -0.3606  0.3247  0.0517
31968W        W47585  17.959  13.795   1.603 -0.1521 -0.0502  0.1679
31969W        W47586   8.667  11.927   3.785 -0.3114  0.2720 -0.5307
31970W        W47587   1.827  10.635   4.849 -0.0721 -0.3529  0.0496
31971W        W47588  15.211  14.432  14.803 -0.1028 -0.1603 -0.2621
31972W        W47589  11.492   6.835  11.816  0.0460 -0.0838  0.1173
31973W        W47590   3.377   4.193  15.782  0.0014 -0.0427 -0.0256
31974W        W47591  17.265   3.669   3.786 -0.3112  0.1662  0.0803
31975W        W47592   9.136  15.194  12.453 -0.3006  0.2510  0.1352
31976W        W47593  14.788  10.939   4.234  0.0139 -0.0635 -0.1584
31977W        W47594  13.053  17.615  15.980  0.2293 -0.1872 -0.2514
31978W        W47595   1.579   6.861   1.081  0.1768 -0.0813 -0.5217
31979W        W47596  14.357  13.727   1.796  0.1639 -0.0694  0.1652
31980W        W47597  16.693   4.407   4.597  0.1357  0.1016 -0.1516
31981W        W47598   7.260  16.382   1.512 -0.1466  0.0352 -0.0404
31982W        W47599   2.781   1.867  12.697  0.1723 -0.0522  0.1055
31983W        W47600   6.767   2.103  12.919  0.1380  0.1647 -0.1016
31984W        W47601  10.712  13.878  15.815 -0.0753  0.0403  0.0792
31985W        W47602   5.489   5.741  14.980 -0.3491 -0.1276 -0.3128
31986W        W47603  10.070   4.679  13.560 -0.1206  0.0849 -0.1246
31987W        W47604   8.764  10.461  12.609 -0.1155 -0.0230  0.1610
31988W        W47605  17.963   0.215   0.518 -0.2227 -0.2673 -0.2297
31989W        W47606   2.309   3.358   2.769  0.0995  0.0378 -0.0372
31990W        W47607  10.861   9.459  15.640 -0.1051  0.3526  0.2316
31991W        W47608  14.661   2.089   0.049 -0.1969  0.0448 -0.0854
31992W        W47609  17.427  13.436   4.271  0.1588 -0.1202 -0.1372
31993W        W47610   9.763  13.251  16.797 -0.1112 -0.1576 -0.0247
31994W        W47611   0.534  10.515  12.288  0.1789  0.0860 -0.0667
31995W        W47612   4.684   1.725   3.236  0.1253  0.3547 -0.0040
31996W        W47613  10.062   5.899  14.676 -0.2981 -0.0981  0.1383
31997W        W47614  13.591   0.231  13.249  0.1752 -0.1123 -0.1914
31998W        W47615   9.121   1.087   3.567 -0.2863 -0.1435  0.0497
31999W        W47616   4.186  13.216  14.743  0.4458  0.1678  0.2664
32000W        W47617  14.479  15.557  13.878  0.1710  0.0831 -0.1634
32001W        W47618  12.818  13.833   4.440 -0.1581  0.1941  0.0026
32002W        W47619  11.935   0.890  12.640  0.2185 -0.1567  0.1129
32003W        W47620   7.970   4.353   5.153 -0.1373 -0.1172  0.0199
32004W        W47621   8.818  14.655   3.469 -0.1777 -0.0638  0.3259
32005W        W47622  17.319  15.353   4.860  0.0746 -0.0834 -0.3680
32006W        W47623   4.350  13.901  12.268  0.3342 -0.0195 -0.2631
32007W        W47624   8.060   7.381  16.574 -0.1254 -0.0872 -0.2601
32008W        W47625   0.477   0.043   6.034 -0.0401  0.0624 -0.0441
32009W        W47626  10.368   6.774   3.384 -0.2798  0.2183 -0.1222
32010W        W47627   4.368   0.386   4.903  0.1392 -0.2337 -0.0024
32011W        W47628   0.470   7.964  12.146  0.0738 -0.1827 -0.0669
32012W        W47629   3.760   4.941  13.777 -0.2851  0.0676 -0.1824
32013W        W47630   1.335   4.485   4.400  0.0891  0.2066 -0.3115
32014W        W47631   7.258  14.062  13.703 -0.2380 -0.1754  0.1533
32015W        W47632   1.896  16.600  13.797 -0.0021 -0.1780  0.0387
32016W        W47633   8.503  12.308   1.760  0.0462 -0.1223 -0.1344
32017W        W47634   3.513   2.715  16.750 -0.0378 -0.3758  0.1285
32018W        W47635   7.576   8.520   4.029 -0.0124  0.0683  0.1213
32019W        W47636   8.585  14.089  15.918  0.0886 -0.0719  0.1903
32020W        W47637  13.463   1.806   5.097  0.2037 -0.0249  0.0212
32021W        W47638   5.775  10.241  11.350  0.2239 -0.1227  0.2805
32022W        W47639   5.960   6.869  15.507 -0.0400 -0.0549 -0.0080
32023W        W47640  14.854  10.478  16.002  0.0465 -0.2245 -0.0284
32024W        W47641   8.231   5.671  16.360  0.1181 -0.1034  0.1918
32025W        W47642   9.409   1.428  13.733  0.0394  0.0776 -0.2328
32026W        W47643   8.146   5.167  12.309  0.0393  0.0868  0.0246
32027W        W47644   6.820   3.017  13.473  0.1728  0.0593  0.0649
32028W        W47645   7.577  11.851   0.981 -0.1921 -0.0693 -0.2589
32029W        W47646   7.910   6.409   1.680 -0.0083 -0.0633  0.4077
32030W        W47647   1.233  11.471   2.127  0.0218 -0.0271  0.2028
32031W        W47648  11.185   3.314   1.720 -0.0076 -0.0761 -0.0800
32032W        W47649  14.109   3.283  10.910 -0.1265 -0.0382  0.0519
32033W        W47650  14.181   7.763   2.435  0.1806  0.2243 -0.1904
32034W        W47651   9.290  16.633   4.964 -0.0204 -0.3833  0.0873
32035W        W47652  11.827  17.393  13.194 -0.3095 -0.1984  0.0808
32036W        W47653   5.425  13.916  16.483  0.0133 -0.1113  0.4103
32037W        W47654   6.504   6.413  16.250 -0.2307  0.2601 -0.0692
32038W        W47655   0.334   0.072   0.317 -0.2564 -0.2555  0.3295
32039W        W47656  12.032  16.046   4.566  0.0374 -0.3264 -0.2169
32040W        W47657   4.143   8.407  11.504 -0.4429 -0.2004  0.1514
32041W        W47658   9.297   2.726   0.183 -0.1183 -0.0610  0.0205
32042W        W47659   1.570  13.619   2.387  0.0132 -0.1289  0.2802
32043W        W47660  16.356   0.402   3.034  0.0781  0.0947 -0.0128
32044W        W47661  15.519   6.520  13.732 -0.1902  0.0203 -0.3045
32045W        W47662   8.886   2.362   2.242 -0.0944 -0.0362 -0.0740
32046W        W47663   3.740  17.284   5.425 -0.1698  0.1305  0.1774
32047W        W47664   0.097  10.590  13.294  0.0038 -0.1395 -0.2133
32048W        W47665   7.239   4.365   3.047  0.1391 -0.0330 -0.1110
32049W        W47666  17.454  12.633   1.778  0.1514  0.0525 -0.1727
32050W        W47667   9.294   5.406   5.199  0.3227  0.1795  0.2277
32051W        W47668   9.071   4.811   0.873  0.2481  0.3923 -0.2180
32052W        W47669  15.659  12.403   2.812 -0.1052  0.2236 -0.0681
32053W        W47670   2.150  10.552   3.247  0.0995 -0.2124  0.0142
32054W        W47671   2.967  14.411   3.338 -0.1852  0.0332  0.2171
32055W        W47672   7.351   1.087  13.361 -0.1966 -0.1851  0.1056
32056W        W47673  10.287  15.285  15.623  0.0185  0.2812  0.1628
32057W        W47674   7.606   9.785  14.289 -0.1271  0.2616 -0.2535
32058W        W47675  17.889  14.043   4.638  0.2438  0.2925  0.0294
32059W        W47676   2.497  10.035  15.048  0.2072  0.0295 -0.3298
32060W        W47677  17.090   4.035   5.026 -0.2652  0.0227  0.3067
32061W        W47678  15.528   5.994   4.707  0.2901  0.0261 -0.1530
32062W        W47679   1.949  13.947  11.470  0.0683 -0.1579 -0.1222
32063W        W47680   5.295  10.191   3.136  0.1450 -0.2003  0.0865
32064W        W47681   2.080   1.395   1.521 -0.2003 -0.0658  0.2971
32065W        W47682  17.102   0.580   1.458 -0.1639  0.1156  0.0035
32066W        W47683   5.170   1.971   0.367  0.0609 -0.1352 -0.0645
32067W        W47684  14.729   8.177   1.250  0.0286 -0.3397 -0.0598
32068W        W47685  17.034  13.363  12.181  0.0660  0.0979  0.1432
32069W        W47686   4.763  15.337   0.157  0.4335  0.3097  0.1822
32070W        W47687   2.986  12.721   1.819  0.0424 -0.1404 -0.0190
32071W        W47688  17.609   3.395   5.209  0.2471  0.0817 -0.0251
32072W        W47689   8.393  16.269  10.954  0.2276 -0.1281  0.0553
32073W        W47690   9.978  15.752   5.250  0.0516 -0.0547 -0.0725
32074W        W47691   1.915  10.270   0.720 -0.1478 -0.0917 -0.2962
32075W        W47692  10.957   9.360   2.987  0.1582 -0.1100 -0.0761
32076W        W47693   9.981   2.666   3.645  0.0291 -0.0966 -0.2841
32077W        W47694  10.539  14.037   2.666 -0.0197 -0.3420 -0.2461
32078W        W47695   9.476   7.447   2.436 -0.0062 -0.1625 -0.2245
32079W        W47696  15.906  15.699   0.429 -0.2077  0.0303  0.0506
32080W        W47697   0.300   1.451  16.674 -0.0814 -0.3601  0.3223
32081W        W47698  10.063   1.698  11.786  0.0072 -0.3306  0.0232
32082W        W47699  13.634   0.876   4.192 -0.1128 -0.1588 -0.3103
32083W        W47700   7.310  14.224   0.477 -0.0153 -0.0940 -0.1213
32084W        W47701  13.083   7.546  16.299  0.3964  0.1504  0.0719
32085W        W47702   9.808   0.451   3.522  0.1796 -0.1808 -0.0608
32086W        W47703  16.176   0.966  16.187  0.2859  0.1347 -0.0071
32087W        W47704  16.027  14.749   3.156  0.0559 -0.3864  0.3422
32088W        W47705   9.774  12.599   2.269 -0.0949 -0.0880 -0.1772
32089W        W47706   0.766  17.321  16.078  0.2456  0.2115 -0.0984
32090W        W47707   1.931   8.852   4.695  0.1532  0.2925  0.0143
32091W        W47708  11.617   7.081   0.340 -0.0249 -0.1794  0.1500
32092W        W47709   4.873   3.837  11.545  0.0768 -0.0852  0.2535
32093W        W47710   3.448  11.856  14.458 -0.2667  0.0368 -0.0596
32094W        W47711   3.639  12.057  15.858  0.0400 -0.2074  0.2433
32095W        W47712   1.069   1.857  16.543  0.1336 -0.0098 -0.1330
32096W        W47713   1.864   9.061  15.516  0.1775  0.3858  0.1312
32097W        W47714  17.693   2.973   2.177  0.2920  0.2005 -0.0009
32098W        W47715  17.945  12.874  12.014 -0.0202 -0.1211  0.2669
32099W        W47716   7.221  10.611   3.283 -0.0255 -0.1545  0.0480
32100W        W47717   0.117   6.620   1.591  0.1262  0.1997 -0.1587
32101W        W47718  12.146  14.265   5.779 -0.4368 -0.1082 -0.2899
32102W        W47719  14.970  16.219   1.007  0.0424 -0.2998  0.0650
32103W        W47720  15.410  12.678   4.043  0.3583 -0.1789 -0.1375
32104W        W47721   1.188  15.137  14.758 -0.0870  0.0481 -0.1692
32105W        W47722  10.159   6.026   2.510 -0.0021  0.1290 -0.0150
32106W        W47723  16.919  15.184   3.255  0.1341 -0.1331 -0.1742
32107W        W47724  11.662  10.515   4.431  0.0519 -0.0067  0.1504
32108W        W47725   5.603  15.027   0.161 -0.0748 -0.1246  0.2599
32109W        W47726   8.991   0.594  15.180 -0.3742 -0.1528  0.0024
32110W        W47727  17.033  15.444  14.943  0.1536 -0.0318 -0.0206
32111W        W47728   1.977   3.850   2.867  0.3103  0.0136  0.1192
32112W        W47729  16.592  10.422  13.259  0.2475 -0.0748  0.1984
32113W        W47730   9.149   0.423  12.554 -0.0141  0.2153  0.4664
32114W        W47731   4.456  14.104   4.808  0.0207 -0.0552  0.1396
32115W        W47732  13.867  16.287  14.071 -0.3821  0.0586 -0.0302
32116W        W47733  14.210  11.188   5.149 -0.0602  0.2360  0.0267
32117W        W47734   8.745  11.584  16.711  0.0604 -0.2810  0.0256
32118W        W47735  12.593   0.354   0.624  0.2180  0.1924 -0.2323
32119W        W47736   0.328  15.598  13.502 -0.2600 -0.0879  0.2052
32120W        W47737  15.744   6.933   5.432  0.0988 -0.2522  0.2066
32121W        W47738   7.364   4.342   2.532 -0.1369  0.3648 -0.0039
32122W        W47739  13.939  17.847   0.538  0.1971 -0.1131  0.1435
32123W        W47740  16.570  13.310  14.798 -0.1322  0.3230  0.0422
32124W        W47741  17.932   1.533   2.952 -0.1054  0.1930  0.2461
32125W        W47742  14.343   2.316   0.598  0.0855  0.0320 -0.0978
32126W        W47743   4.013  16.027   5.542 -0.1350  0.1005  0.3829
32127W        W47744  10.277   9.159   4.217 -0.1157  0.2392  0.4165
32128W        W47745  17.277   4.122  15.303 -0.6021  0.1583 -0.2664
32129W        W47746  12.911  15.314  13.071 -0.1458 -0.0381 -0.0002
32130W        W47747   3.788  12.822   2.533  0.1707  0.1302 -0.2772
32131W        W47748   9.270  14.802   3.205  0.1649 -0.1702 -0.4917
32132W        W47749   2.635  13.438   0.610 -0.0749 -0.3739 -0.4120
32133W        W47750  16.284   7.526  12.235  0.1094  0.3540  0.1671
32134W        W47751  17.811   3.368  12.647 -0.0873 -0.2839 -0.0636
32135W        W47752  12.322  14.672   0.835  0.1524  0.0902 -0.0731
32136W        W47753  10.850  15.304   3.037 -0.0576 -0.0795 -0.0218
32137W        W47754  11.099  11.127   4.326 -0.1456  0.1500 -0.0640
32138W        W47755  15.326   5.711   1.818  0.0892 -0.1883  0.0300
32139W        W47756   0.828   8.319  12.476  0.2318 -0.1747  0.2121
32140W        W47757   0.053  13.171   4.886 -0.1938  0.1179  0.1465
32141W        W47758  14.076   5.734  14.107  0.3278  0.0641  0.0902
32142W        W47759  12.903   8.918  14.172  0.1862 -0.1199  0.0251
32143W        W47760   4.540   3.508  16.469 -0.0505 -0.2016 -0.0001
32144W        W47761   4.742  16.184  14.902 -0.1285 -0.3295  0.1000
32145W        W47762   3.949   1.046   4.455  0.0703 -0.3944 -0.3115
32146W        W47763   7.076   1.968  15.086  0.0176  0.0509  0.3895
32147W        W47764  14.145  15.704   0.265 -0.0325  0.2891 -0.1244
32148W        W47765   1.713  10.762   3.448  0.0283  0.0680 -0.0942
32149W        W47766   2.523  12.290   4.842 -0.0470  0.0187 -0.2719
32150W        W47767   8.461   0.917  11.213  0.0126 -0.0259  0.0271
32151W        W47768   5.767   1.878  15.141  0.0420  0.1757 -0.2561
32152W        W47769   5.206  14.655  15.812 -0.0881  0.2241 -0.1327
32153W        W47770  16.541   1.065  14.655  0.0532  0.1379 -0.2325
32154W        W47771   3.497   2.520   2.289 -0.0034  0.3464  0.2436
32155W        W47772  14.531   9.451  12.524 -0.1362 -0.0746 -0.0110
32156W        W47773   1.502  14.029  16.686  0.0828  0.0333 -0.0924
32157W        W47774   9.774   8.898  14.525 -0.1970  0.3363 -0.2305
32158W        W47775   8.412  10.142   0.976 -0.0259 -0.1220  0.1025
32159W        W47776   5.501   1.419   0.609  0.1110  0.0321  0.0325
32160W        W47777  14.994  12.343  15.482  0.0718 -0.0679 -0.3285
32161W        W47778  12.847   1.254   0.735 -0.1804 -0.0639  0.1495
32162W        W47779  17.362  13.815   5.618 -0.0471 -0.0843 -0.0741
32163W        W47780   6.580  11.390  14.298  0.3137 -0.2712  0.1995
32164W        W47781  16.067   9.770   1.136 -0.0469 -0.0719 -0.2372
32165W        W47782   6.513   6.410  14.875  0.3324 -0.1482  0.1182
32166W        W47783   3.604   9.026   1.217 -0.1613 -0.1153 -0.1391
32167W        W47784   8.682   3.648  14.615  0.2350  0.0603  0.0067
32168W        W47785  10.087   4.169  16.344  0.3002 -0.0559  0.2219
32169W        W47786   7.602   5.959   6.018 -0.0346 -0.2117  0.3304
32170W        W47787   9.941   7.397  14.306  0.0586  0.0918  0.3318
32171W        W47788  11.822   7.496   3.308  0.0546  0.0758 -0.0843
32172W        W47789  13.347   8.814   2.481  0.1073 -0.0178  0.0282
32173W        W47790   7.455   4.733  15.910  0.0173  0.1036  0.1124
32174W        W47791   0.221   5.373   2.168 -0.2568 -0.0781 -0.0480
32175W        W47792  11.147  16.945   0.541  0.1056 -0.3190  0.0761
32176W        W47793   8.192   5.568   2.764  0.1073 -0.1573 -0.1632
32177W        W47794  12.611   1.585  16.136  0.1425 -0.0119 -0.1803
32178W        W47795  11.666   2.396   2.047 -0.0534  0.0244 -0.0065
32179W        W47796  14.488  13.202  12.924 -0.0766 -0.2896 -0.2729
32180W        W47797  17.200   2.125  14.139  0.0145  0.1601 -0.1700
32181W        W47798   5.540   1.672   2.508  0.0865  0.2606  0.2479
32182W        W47799  17.010   2.421  14.753 -0.0047  0.1126  0.3505
32183W        W47800   6.655  14.169   2.804  0.2423 -0.2358 -0.1490
32184W        W47801   5.260   3.867   3.018 -0.3823  0.1004 -0.1347
32185W        W47802   2.537   8.175   3.942 -0.1018  0.1278 -0.1328
32186W        W47803  14.504  15.972   4.535 -0.2038  0.1945 -0.1873
32187W        W47804   8.105  11.111  11.898  0.2795  0.2342 -0.1039
32188W        W47805   5.856   5.938  13.831  0.1019 -0.2085  0.2626
32189W        W47806   2.687   9.594  14.698  0.0707 -0.0420 -0.0327
32190W        W47807  12.470  13.962   2.293 -0.0901  0.0368 -0.1692
32191W        W47808   2.511   9.003  14.636  0.0386 -0.1138  0.1551
32192W        W47809  12.238   8.296  15.786  0.1040  0.0332 -0.1047
32193W        W47810   2.212  12.950  16.757  0.1150 -0.4135  0.0349
32194W        W47811  16.730  13.375  13.007  0.1927 -0.0141  0.0399
32195W        W47812   1.452  10.967  16.365 -0.1483 -0.1631  0.0058
32196W        W47813  15.269   7.279   2.848  0.3020 -0.1637 -0.1250
32197W        W47814   4.164  10.878   2.291  0.0527 -0.3029 -0.3991
32198W        W47815   1.575   0.689   2.085 -0.0452  0.1344  0.3324
32199W        W47816  13.624  17.372  13.253  0.0675  0.1690 -0.1145
32200W        W47817   4.446   2.133   2.850 -0.0338 -0.1481  0.0515
32201W        W47818  15.925   9.600  15.815 -0.0011  0.0690  0.3701
32202W        W47819  11.125   2.587   4.544  0.0149  0.2305 -0.1067
32203W        W47820  12.376   9.228   2.617 -0.2136  0.3597  0.0039
32204W        W47821  16.158  13.845  13.601 -0.2680  0.1801 -0.0483
32205W        W47822  13.289   3.944   2.512 -0.3198 -0.2138 -0.0867
32206W        W47823   0.973  12.946   2.847 -0.3276  0.2427  0.0303
32207W        W47824  14.475  10.235  13.184 -0.1603  0.2003 -0.2470
32208W        W47825  15.873  14.255  15.780  0.2165  0.1471 -0.2138
32209W        W47826   5.578   1.165   3.254 -0.0597  0.1269 -0.0288
32210W        W47827  16.728  17.230  14.174 -0.1737 -0.3560 -0.0440
32211W        W47828  11.699  10.759  12.218 -0.1892 -0.1328 -0.5786
32212W        W47829  10.987   8.449   4.432  0.0814  0.1651 -0.2337
32213W        W47830   9.700   3.506   6.048 -0.0528  0.0234  0.0998
32214W        W47831  17.628   7.662  13.786  0.1848 -0.1142 -0.0316
32215W        W47832  13.956   8.209   5.631 -0.0612  0.2728  0.1703
32216W        W47833  11.190  10.860   3.921  0.1558  0.1040 -0.1415
32217W        W47834   9.826  12.682   0.061  0.1015 -0.0177 -0.1016
32218W        W47835  13.807  13.590  14.878  0.1245 -0.0536 -0.2094
32219W        W47836   1.510   2.957   2.614  0.3834 -0.1997 -0.1354
32220W        W47837   8.869   6.180  14.896  0.1141 -0.2222  0.1745
32221W        W47838  12.113  11.286   3.913 -0.0895  0.2173  0.0131
32222W        W47839  13.846  16.835  13.287  0.0007  0.0177 -0.1262
32223W        W47840   8.667  17.285  15.757  0.2094  0.1114 -0.2190
32224W        W47841  15.357   6.510   3.524  0.0556  0.2096 -0.1460
32225W        W47842   4.003  14.304  13.653  0.2674  0.1363 -0.1876
32226W        W47843  14.455  11.973  11.446  0.0701 -0.0055 -0.4975
32227W        W47844   2.420  11.110  12.193 -0.0437 -0.2477  0.0769
32228W        W47845  15.274   7.844   5.380  0.1706 -0.0716 -0.0105
32229W        W47846   0.428   9.070  12.840  0.2935 -0.0933 -0.1778
32230W        W47847   6.788  11.026  12.595 -0.1215  0.0667  0.2859
32231W        W47848   3.197  11.976  11.384 -0.2214 -0.2220  0.1973
32232W        W47849  10.318   8.357   1.409  0.1245  0.0777 -0.1540
32233W        W47850  13.630   0.912   2.460  0.1321 -0.0039 -0.0644
32234W        W47851  13.951   3.816  16.719  0.1438  0.0511  0.1493
32235W        W47852  11.868  13.670  10.193  0.0419  0.5032 -0.0361
32236W        W47853  12.901   2.773  11.818  0.1152 -0.1142 -0.2429
32237W        W47854   1.749   2.372   6.598 -0.1146 -0.1544  0.2539
32238W        W47855   9.559  16.107  12.577  0.3071  0.0569 -0.0823
32239W        W47856  13.040  11.005  12.957  0.0712 -0.0523 -0.0210
32240W        W47857  10.744  10.703   4.138 -0.3392 -0.0206  0.1583
32241W        W47858  10.006  14.943   0.653 -0.0358  0.0059  0.0577
32242W        W47859   2.841   0.613  14.678 -0.2727 -0.0922  0.2988
32243W        W47860  12.892   8.170   1.953 -0.0759 -0.1046  0.0681
32244W        W47861   2.706   9.469   5.621 -0.1380  0.1590 -0.0225
32245W        W47862  10.781  14.033  14.292  0.1435  0.1598 -0.0898
32246W        W47863  17.977   5.887   3.350  0.2545  0.0626  0.2742
32247W        W47864   0.308   9.491  13.206  0.1043  0.0910 -0.0398
32248W        W47865  12.740  16.667   2.237 -0.0882 -0.2761 -0.3228
32249W        W47866   2.534  13.255  14.019  0.0325 -0.0642 -0.4284
32250W        W47867  17.188   0.383  15.507 -0.0834 -0.0511 -0.2730
32251W        W47868   8.322   2.243   2.602 -0.1778 -0.2959 -0.0286
32252W        W47869   6.547   2.109   0.429  0.0513 -0.1657  0.3266
32253W        W47870  13.077  13.109  14.840 -0.0064 -0.1258 -0.2405
32254W        W47871   6.714   1.330  11.999  0.0440 -0.1099  0.1149
32255W        W47872  12.837   7.710  11.470 -0.0498 -0.1786  0.0518
32256W        W47873  15.156  17.356  13.174 -0.0531  0.3273 -0.3679
32257W        W47874   5.167   5.238   3.001  0.0431 -0.0373  0.0087
32258W        W47875  16.698   9.558  12.811  0.3536  0.2971  0.1806
32259W        W47876   2.951   7.976  12.433 -0.4172 -0.2144 -0.2821
32260W        W47877   4.831  10.600   0.802 -0.0102 -0.0136  0.0659
32261W        W47878   7.660   1.463  15.586  0.2697  0.1856  0.0379
32262W        W47879   7.464  11.066   0.090  0.1594  0.2600 -0.0810
32263W        W47880  16.170   3.468  12.026 -0.0093  0.3597 -0.0800
32264W        W47881   2.763  17.280  10.278 -0.3522  0.1125 -0.0268
32265W        W47882   7.283  11.782   1.389  0.0150  0.0521  0.3482
32266W        W47883   1.523   8.229  13.922  0.0678 -0.1956  0.1175
32267W        W47884  10.344   5.993   0.926 -0.0580  0.0984  0.2107
32268W        W47885   9.616   1.137  14.109 -0.5249  0.0888  0.0690
32269W        W47886   8.182   2.432  14.563 -0.0104  0.0129 -0.0721
32270W        W47887  13.337   0.874  15.869 -0.2144  0.1386 -0.0151
32271W        W47888  17.368  15.354   0.491  0.0867  0.2672  0.0419
32272W        W47889  16.067   7.857  15.726 -0.2099  0.1215  0.0462
32273W        W47890   3.377  17.141  16.065 -0.0139 -0.1044  0.1367
32274W        W47891   1.704   8.577   5.299 -0.1110 -0.1468 -0.2948
32275W        W47892  15.093   8.139   4.999 -0.0396 -0.3426 -0.3182
32276W        W47893   9.073   6.627  15.035 -0.2010  0.2171  0.2163
32277W        W47894  12.952  15.837   3.769 -0.2182  0.1322  0.0670
32278W        W47895  17.574   6.264  15.621 -0.0021  0.0253  0.0233
32279W        W47896  15.273  10.404  13.173 -0.2386  0.0763 -0.0071
32280W        W47897  14.472   4.515   3.008 -0.2860  0.1223  0.3762
32281W        W47898   4.959  11.764  13.562  0.1953 -0.2744  0.1202
32282W        W47899   8.831   3.594   3.198 -0.0604  0.0211 -0.1477
32283W        W47900  11.015   4.662  13.328  0.2364  0.1171  0.1476
32284W        W47901  12.619   8.862  16.017  0.1525  0.2949  0.0166
32285W        W47902   2.795  14.500   0.668  0.0795 -0.0146  0.3680
32286W        W47903   1.949   9.094  11.834 -0.4182  0.1838  0.0396
32287W        W47904  16.859   5.053  11.999 -0.3276  0.1175  0.0700
32288W        W47905   2.686   4.099  15.422 -0.1561  0.0305 -0.1660
32289W        W47906  12.624   7.408  14.768 -0.2122 -0.1671  0.1845
32290W        W47907  14.217   9.660   0.434  0.0358 -0.0634 -0.1681
32291W        W47908   7.726   5.423  12.680 -0.0693 -0.0850 -0.2092
32292W        W47909   5.220   2.886  14.666 -0.0653  0.0701  0.3341
32293W        W47910   6.398   7.652   5.293  0.0675 -0.0726  0.1778
32294W        W47911   1.739  10.765   0.868  0.0481 -0.4843 -0.0228
32295W        W47912   4.119   9.809  13.088 -0.0781  0.2018 -0.0726
32296W        W47913   9.118   3.937  15.696  0.1333 -0.2788 -0.1224
32297W        W47914  11.751  11.892  13.166 -0.2807  0.3273  0.4381
32298W        W47915  16.245  11.533  13.451 -0.1422  0.3015 -0.1869
32299W        W47916   7.765  13.737  16.758  0.1244 -0.0002 -0.1550
32300W        W47917  14.730  13.850  14.135 -0.1141  0.1014  0.1458
32301W        W47918   8.778   5.330   2.602 -0.2361  0.0340  0.1850
32302W        W47919   9.638   2.020  13.276  0.2734 -0.1099  0.0245
32303W        W47920  14.963   2.927   4.604 -0.0087 -0.3105  0.0716
32304W        W47921   8.311  17.798   3.294 -0.1280 -0.2675  0.1389
32305W        W47922  17.799  17.281  15.998 -0.0656 -0.0388 -0.0388
32306W        W47923  17.742  15.940  15.191 -0.0822 -0.3494 -0.2380
32307W        W47924  12.418  11.949  15.674  0.4662 -0.0775 -0.0541
32308W        W47925   2.263  17.827  16.768  0.5059  0.0405  0.1089
32309W        W47926  17.079  11.776  15.401  0.0703 -0.3346 -0.3165
32310W        W47927  13.785   0.343   0.084 -0.3542  0.0711 -0.1383
32311W        W47928  17.702  10.540   2.814 -0.1154 -0.0136 -0.0046
32312W        W47929   9.424  17.543  16.366 -0.1348  0.1852 -0.2276
32313W        W47930   3.334  12.445   1.161  0.0227  0.1694  0.3114
32314W        W47931   5.577  14.623  15.108  0.1068  0.3727  0.0627
32315W        W47932   4.714   5.590   3.693  0.1382  0.0553  0.4992
32316W        W47933   0.036  16.138   1.632  0.0597  0.1687 -0.4405
32317W        W47934   4.511   6.691   2.305 -0.1596 -0.3486  0.0189
32318W        W47935  12.370  16.742   5.953 -0.0785 -0.0908 -0.4975
32319W        W47936   3.494  11.140   1.202 -0.2369 -0.1623  0.1266
32320W        W47937  11.262  11.042  12.096  0.1070  0.4180  0.3025
32321W        W47938   2.410  12.993   5.275  0.0258 -0.0210 -0.0264
32322W        W47939  14.868  14.563   0.419  0.0474  0.0290  0.2745
32323W        W47940   6.625   2.286  11.461  0.2048  0.3533  0.0253
32324W        W47941   7.682   5.107  14.445 -0.1412  0.1160 -0.3628
32325W        W47942   7.129   5.576  15.775  0.0986 -0.0957 -0.0851
32326W        W47943  11.777  13.834  11.445 -0.1055  0.1312  0.3147
32327W        W47944   1.393   1.291   0.911  0.0967 -0.1054  0.0840
32328W        W47945  10.415   7.507  13.210  0.1047 -0.0190  0.0089
32329W        W47946   8.739   0.195  16.400 -0.1451  0.1171  0.1476
32330W        W47947   6.929   4.784  12.803  0.2968 -0.2032 -0.1387
32331W        W47948  12.555  14.596  16.100 -0.2840 -0.1133 -0.0671
32332W        W47949  16.600   4.343   4.078 -0.1254 -0.1175  0.1256
32333W        W47950   9.746   6.368  16.459  0.0699 -0.2445  0.1004
32334W        W47951   7.305   9.313   0.859 -0.1293  0.0520  0.1335
32335W        W47952  13.035   0.147   4.770  0.2555  0.0707  0.2278
32336W        W47953  16.311  13.913  13.150 -0.3293  0.0694 -0.0344
32337W        W47954  15.807   4.204  11.891 -0.0848 -0.2074 -0.0798
32338W        W47955   5.426   2.359  15.915  0.3216 -0.0012  0.0940
32339W        W47956   8.043  15.726   5.925  0.2595 -0.0909  0.1821
32340W        W47957  11.081   2.392  12.825 -0.1660 -0.1532  0.0126
32341W        W47958   2.645  16.481   3.512  0.3284  0.3208  0.2144
32342W        W47959  13.994  11.137   2.894 -0.0805 -0.2781 -0.0975
32343W        W47960   5.014  16.427   6.291 -0.0105 -0.2053 -0.2137
32344W        W47961   3.140   9.661  13.748  0.2002  0.1878  0.1425
32345W        W47962  10.936   6.264  16.430  0.2549 -0.1030  0.1986
32346W        W47963   6.940   0.873  13.629 -0.2084  0.0730  0.3139
32347W        W47964   1.184  16.409  13.111 -0.1222 -0.1477 -0.1842
32348W        W47965  17.957   9.182  15.364  0.1309 -0.2765 -0.0930
32349W        W47966  13.785  17.471  14.147  0.2036 -0.1853  0.0379
32350W        W47967  13.148   8.451  12.787  0.1949 -0.1783 -0.1261
32351W        W47968   6.070   3.953  15.849  0.1750 -0.1925  0.0557
32352W        W47969  11.230   9.657  16.440  0.3086  0.0268 -0.0666
32353W        W47970   8.033  10.159  15.817  0.0594  0.0173 -0.1149
32354W        W47971  10.771   8.460  15.716  0.1613 -0.2149  0.2335
32355W        W47972   7.430   1.820  12.739 -0.0268 -0.1712  0.1882
32356W        W47973   4.732   9.875   0.681  0.1752 -0.1535 -0.1872
32357W        W47974  12.190  15.434   3.221 -0.2904  0.2424  0.0087
32358W        W47975  10.105  14.524   5.084 -0.3297  0.0040  0.1397
32359W        W47976   8.620   4.349   2.854 -0.0933 -0.3443 -0.0723
32360W        W47977   2.858   7.297   5.068  0.1856 -0.0420 -0.2599
32361W        W47978   5.337   5.812   4.541 -0.1716  0.0388 -0.1829
32362W        W47979  11.371  16.164  11.779 -0.1894 -0.0622  0.0988
32363W        W47980   6.179   6.276  13.001 -0.0242 -0.2267 -0.0349
32364W        W47981   0.621  14.922  11.695 -0.1204 -0.0368  0.0924
32365W        W47982   5.549   0.490  15.843 -0.3055  0.2952 -0.1747
32366W        W47983   2.811  17.976  14.072  0.1393 -0.0183  0.3472
32367W        W47984   7.790  15.938   4.394 -0.2751 -0.0322 -0.2642
32368W        W47985   1.746   1.357   3.794 -0.0079 -0.0888  0.0971
32369W        W47986   5.019  10.221  14.429  0.1262 -0.1256 -0.0196
32370W        W47987  13.604   6.739   2.165  0.1165 -0.0124  0.1427
32371W        W47988  10.224   8.269   4.082  0.1769  0.1284  0.0238
32372W        W47989  16.861   8.296  13.648  0.2549 -0.1140 -0.1334
32373W        W47990  10.222   3.405  12.742 -0.1225 -0.1018 -0.1288
32374W        W47991  15.078  11.264  12.886 -0.0531  0.1358  0.1873
32375W        W47992  13.139   4.563   4.638  0.1499  0.1053  0.1520
32376W        W47993   7.321  17.400  14.102 -0.2016 -0.2482  0.1097
32377W        W47994  17.847  15.186  16.547  0.0915  0.0324 -0.1181
32378W        W47995  11.100  16.531   2.089  0.2494  0.2981 -0.0597
32379W        W47996  14.905  16.952  11.890 -0.2776 -0.1460  0.1646
32380W        W47997  13.440  10.559   5.569  0.1738  0.1424 -0.4348
32381W        W47998   6.688   4.830   4.711  0.1113  0.0824 -0.1849
32382W        W47999  17.051  15.441  14.451  0.1073 -0.1282  0.0539
32383W        W48000   7.213   5.874   1.698  0.1425 -0.0613  0.0300
32384W        W48001   0.923   7.238   3.565 -0.0401 -0.3328 -0.3190
32385W        W48002  17.130   5.647   1.831  0.0535  0.0131  0.1006
32386W        W48003  15.958  13.608  13.969  0.0748 -0.0438  0.0650
32387W        W48004   6.549   6.822  14.405  0.1242 -0.1729  0.3819
32388W        W48005   5.275  14.084   3.026 -0.1348 -0.0271  0.0556
32389W        W48006  11.718   4.283   4.443 -0.2723  0.1145 -0.2100
32390W        W48007  11.054   4.181   4.350  0.2247  0.1963  0.2938
32391W        W48008  14.797   3.395   1.614  0.1425  0.0156 -0.0276
32392W        W48009  16.775   4.866  13.080  0.2427 -0.3077 -0.1050
32393W        W48010  13.785   2.182  11.464 -0.1679 -0.0694  0.1952
32394W        W48011   0.031   1.815  14.503 -0.1178  0.0065  0.0847
32395W        W48012  18.051   4.911  16.241 -0.1643 -0.0996  0.0151
32396W        W48013  10.294   5.919  15.414 -0.1448  0.1178  0.0061
32397W        W48014   8.859  11.150   0.648  0.0983  0.1573 -0.0364
32398W        W48015   2.766  17.690   4.657  0.0758  0.2846 -0.0507
32399W        W48016   1.411  15.287  16.694  0.0342 -0.1120  0.1345
32400W        W48017   5.366   5.827  13.839 -0.0572 -0.1150 -0.0206
32401W        W48018   8.646  11.647  16.163 -0.0788 -0.3415 -0.1609
32402W        W48019  10.133   1.245  13.742  0.1793 -0.1234 -0.0347
32403W        W48020   2.958  18.039  15.372  0.0866 -0.1668 -0.3324
32404W        W48021  13.477   8.813   5.616 -0.0289 -0.1109 -0.1214
32405W        W48022  12.088   3.184   4.561  0.4270 -0.1127 -0.1532
32406W        W48023   7.910  11.679  10.180 -0.2456  0.1167  0.0586
32407W        W48024   3.516  16.839   1.687  0.0463  0.1980 -0.4868
32408W        W48025   6.692   4.835  15.842  0.0763  0.1900  0.3349
32409W        W48026   6.324   4.915   4.388  0.0813  0.2008  0.0764
32410W        W48027   3.641   0.209   5.395  0.0135 -0.3142  0.0575
32411W        W48028   6.629  14.779   6.194 -0.0027  0.2083  0.1872
32412W        W48029   7.076   2.802   3.831  0.2154  0.1496 -0.1804
32413W        W48030   6.024  14.245  15.329  0.1047 -0.0563 -0.1007
32414W        W48031   0.658   1.735  12.611  0.0140  0.1837 -0.1550
32415W        W48032  17.932   9.286   1.539 -0.3081  0.0203 -0.0853
32416W        W48033   1.352   3.860   0.254 -0.1805 -0.0651 -0.0651
32417W        W48034   5.646   5.148   0.396  0.1908  0.0116 -0.0058
32418W        W48035   7.379  11.092   2.621 -0.0095  0.0082  0.2220
32419W        W48036   7.109   0.669   4.362  0.2516 -0.0606  0.0083
32420W        W48037   7.891  17.386   4.045 -0.1209 -0.0699 -0.1953
32421W        W48038   2.063   6.025   4.499  0.0662 -0.0442  0.1259
32422W        W48039   4.253  16.469  15.087  0.2085 -0.1637 -0.1371
32423W        W48040  16.455   7.019   3.222  0.1580 -0.1208  0.0026
32424W        W48041  14.271   6.274  16.723  0.0551 -0.1723  0.0494
32425W        W48042  16.900  14.583  12.533 -0.1617 -0.1404 -0.0643
32426W        W48043   6.253   0.164   0.280  0.1608  0.0699  0.2428
32427W        W48044  16.277   1.278  15.746 -0.1223 -0.0801 -0.4228
32428W        W48045  14.509  16.573   3.664  0.1988 -0.1743  0.4699
32429W        W48046  14.465   5.754   6.028 -0.2964 -0.0295 -0.2871
32430W        W48047   1.059   5.206  14.926 -0.1680  0.1822  0.2549
32431W        W48048  13.273   1.340  14.875 -0.0782 -0.1144  0.0250
32432W        W48049  15.825   5.959  12.650 -0.0083 -0.2088 -0.0590
32433W        W48050   4.481  16.617   1.708  0.0802  0.1064 -0.1797
32434W        W48051  12.133  14.727   0.217 -0.1453  0.0125 -0.0962
32435W        W48052  16.679  10.970  11.641  0.2047  0.2729 -0.0182
32436W        W48053   1.731   4.332  13.764 -0.0096  0.2250 -0.0814
32437W        W48054   3.117   8.511   1.639  0.1279 -0.0261 -0.2195
32438W        W48055  14.950  13.546   0.040  0.0719  0.2956 -0.0157
32439W        W48056   5.823   7.552  12.303  0.1012 -0.2556  0.0441
32440W        W48057   5.413   6.153   5.496  0.0002 -0.0657 -0.0825
32441W        W48058   5.864   6.672  15.042 -0.0393 -0.1693 -0.5319
32442W        W48059   4.480  13.602   0.572 -0.0486 -0.2994  0.0901
32443W        W48060   9.600   4.627   4.818 -0.0033 -0.1077 -0.0869
32444W        W48061   0.662   1.306  13.374 -0.0896  0.2681  0.3657
32445W        W48062   8.022  17.175  11.591 -0.1056  0.0471  0.2339
32446W        W48063   7.638  10.164   3.333  0.0526  0.3545 -0.0833
32447W        W48064  12.474  12.420  15.140 -0.1852  0.2730  0.2954
32448W        W48065   4.476   6.519   3.332 -0.1118  0.2551 -0.2322
32449W        W48066   3.916   4.345   3.040 -0.1955 -0.0130  0.1090
32450W        W48067   5.304  12.079  13.734  0.2185  0.0312 -0.0410
32451W        W48068  17.948  13.537   2.970 -0.0632  0.0077  0.0900
32452W        W48069   3.211   0.538   2.142 -0.1436 -0.2091 -0.1496
32453W        W48070   0.474  17.028   4.554 -0.3955 -0.1344  0.0798
32454W        W48071  10.882   9.247   2.300  0.0379 -0.2456  0.4996
32455W        W48072  10.377  13.120   4.875  0.0493  0.1192 -0.0436
32456W        W48073   6.664   8.099   5.370 -0.1359  0.0414 -0.2734
32457W        W48074   9.694   2.886   4.030  0.2722 -0.1232 -0.0123
32458W        W48075   4.106   2.082   5.344 -0.0061 -0.1567  0.0045
32459W        W48076  16.355   4.911   4.857 -0.0664 -0.1244  0.2715
32460W        W48077  12.445   0.975  12.324  0.2047 -0.1328 -0.2090
32461W        W48078   0.519  17.732  11.697 -0.0186 -0.0665  0.0966
32462W        W48079  13.395   9.577   1.217 -0.0328  0.1843  0.0571
32463W        W48080  11.847   7.426  16.400 -0.1337 -0.2510  0.0092
32464W        W48081  15.773  16.518   4.497 -0.0170  0.1062  0.2649
32465W        W48082   0.255  12.974  16.303  0.0764  0.0547 -0.0106
32466W        W48083  15.201   3.165  12.429  0.3991 -0.0278 -0.0819
32467W        W48084  15.264   3.993   0.300  0.1964  0.0354 -0.1086
32468W        W48085   1.292   6.744   6.287  0.0051 -0.0906  0.2031
32469W        W48086  12.091   2.273  12.208 -0.0758  0.0536  0.0027
32470W        W48087   6.063  18.044   5.723  0.0049  0.1100  0.0008
32471W        W48088   3.566   3.708   4.151  0.1179 -0.4407  0.1072
32472W        W48089   8.996  16.895  12.091 -0.4867 -0.2852  0.1476
32473W        W48090   3.234   5.850  12.940 -0.1769  0.0216  0.1317
32474ION     NA48091   6.511   8.114  10.563 -0.2531  0.0756 -0.1746
32475ION     NA48092  16.891  10.035  10.731  0.2241 -0.2882  0.0870
32476ION     NA48093   6.388  10.768   1.634  0.1374 -0.0339 -0.0177
32477ION     NA48094   2.203   8.934  15.082 -0.0127 -0.0788 -0.1658
32478ION     NA48095  11.037   2.200   6.032 -0.1290 -0.0443 -0.1067
32479ION     NA48096  12.285   2.428  10.953  0.1752  0.0308  0.0343
32480ION     NA48097  11.018  14.398  14.634  0.0391  0.0698  0.2177
32481ION     NA48098  11.447  10.527  10.841  0.3233  0.1184 -0.0656
32482ION     NA48099   0.886   3.307  12.484 -0.0583 -0.0852  0.0831
32483ION     NA48100   2.357   2.559  12.940  0.1378  0.0383  0.0165
32484ION     NA48101   4.985   5.936   0.106 -0.1503  0.0394  0.2128
32485ION     NA48102   7.482  12.585  10.252  0.1177  0.0431 -0.1933
32486ION     NA48103   9.988   8.716  10.289  0.0094  0.0864  0.0626
32487ION     NA48104  13.973   1.646  11.471  0.0894 -0.2483  0.2496
32488ION     NA48105   4.593   1.717  10.813 -0.0016 -0.2760  0.0712
32489ION     NA48106   5.820  16.463  10.957  0.1362 -0.3569  0.0081
32490ION     NA48107  17.253   7.290  10.768 -0.2266  0.0074 -0.0448
32491ION     NA48108  12.330  17.411  11.346  0.3372 -0.1915 -0.0795
32492ION     NA48109  11.591   3.872  11.026 -0.1878  0.1115  0.2503
32493ION     NA48110   4.598   1.025   6.031  0.1598 -0.0398 -0.0883
32494ION     NA48111  13.060   7.447   6.282 -0.0785  0.1338  0.2786
32495ION     NA48112   7.134  15.829  10.407  0.2187 -0.1100  0.1288
32496ION     NA48113  18.038   8.600  10.740 -0.0334  0.0520  0.0187
32497ION     NA48114   7.242  14.603  16.798  0.2867 -0.1821 -0.1194
32498ION     NA48115   7.975  15.689  10.135 -0.2230  0.0988 -0.0205
32499ION     NA48116  15.107  10.178   2.922  0.2095 -0.4174  0.0745
32500ION     NA48117  15.983  10.051   6.227 -0.3676  0.2262  0.1293
32501ION     NA48118   6.633   9.278   6.026  0.0461  0.1573  0.2892
32502ION     NA48119  12.511   6.494  10.859  0.0436  0.0223 -0.2676
32503ION     NA48120  15.172   3.946  11.177 -0.1473  0.0148 -0.2321
32504ION     NA48121   6.378  17.400  12.991  0.0815  0.1333  0.0085
32505ION     NA48122  12.196   6.299   6.295 -0.0321  0.1681  0.2769
32506ION     NA48123  11.731  14.940  10.472 -0.0383  0.0530 -0.2102
32507ION     NA48124   8.348   2.408   6.043 -0.0695  0.0376  0.0994
32508ION     NA48125   6.779   6.121  10.366 -0.1352 -0.0230  0.4313
32509ION     NA48126  10.870   0.466  11.038  0.1105 -0.1266 -0.0061
32510ION     NA48127   0.265   9.822   5.826 -0.0336 -0.0638  0.1061
32511ION     NA48128   4.263   5.015  10.463  0.5073  0.4180  0.4870
32512ION     NA48129  13.886  17.055  11.127  0.1167  0.4385 -0.1200
32513ION     NA48130  17.578   7.416  15.482 -0.2863 -0.3180  0.4358
32514ION     NA48131  17.199   7.980  10.639  0.0377 -0.1879  0.2095
32515ION     NA48132  16.208  17.470  10.634 -0.0868  0.2626 -0.2049
32516ION     NA48133  11.573   5.764  10.716 -0.0407 -0.2861 -0.1281
32517ION     NA48134  13.610  15.833  13.083 -0.2000  0.2654  0.1931
32518ION     NA48135   1.881   1.230  10.740 -0.2720  0.1117 -0.0272
32519ION     NA48136   5.034   9.855  10.443  0.1471 -0.1858 -0.3067
32520ION     NA48137  12.106   8.130   1.702  0.0296 -0.2933 -0.0715
32521ION     NA48138   2.056  17.531  10.743 -0.0860 -0.0007 -0.0671
32522ION     NA48139  13.028  15.436   5.954 -0.0656 -0.0808 -0.1176
32523ION     NA48140  15.718   0.929  11.165  0.1819 -0.2082 -0.2017
32524ION     NA48141   8.086  14.195  10.154  0.0905 -0.2753  0.0768
32525ION     NA48142   7.764   9.053   0.862  0.3212  0.0502 -0.1607
32526ION     NA48143   4.046  16.401  10.799 -0.0172  0.2661 -0.0247
32527ION     NA48144   9.230  12.047  12.381  0.0612 -0.2659  0.2974
32528ION     NA48145  14.069  10.794  11.188  0.2934 -0.2591  0.0551
32529ION     NA48146   2.806  12.035   0.657 -0.1512  0.0041  0.1575
32530ION     NA48147   4.327  17.280  10.805  0.2352  0.3922  0.0298
32531ION     NA48148  15.888  16.723   6.673 -0.0155 -0.0905 -0.3056
32532ION     NA48149   5.254   5.204  10.463 -0.1034 -0.1786 -0.3232
32533ION     NA48150   4.350   2.564  11.112  0.1201  0.0280 -0.1356
32534ION     NA48151  16.081  11.567   6.400  0.2917  0.2106  0.0611
32535ION     NA48152   4.062   5.288   3.725  0.1300  0.2000 -0.2055
32536ION     NA48153   3.363   4.173  10.861  0.1637  0.2433  0.3840
32537ION     NA48154   4.021   3.884  11.990  0.3361  0.0217 -0.2635
32538ION     NA48155   4.692  17.585  11.029 -0.1897  0.0878  0.1135
32539ION     NA48156  16.210  12.008  10.936 -0.0655 -0.4263 -0.0800
32540ION     NA48157  12.358  12.481   5.973 -0.3571 -0.2533  0.1773
32541ION     NA48158   1.375   7.254  10.646  0.1239 -0.3032  0.1235
32542ION     NA48159  11.629  16.383  10.755 -0.0429  0.1658  0.0731
32543ION     NA48160   5.596   4.680  14.555  0.0715  0.0815  0.1407
32544ION     NA48161   4.310   6.404  10.449  0.2538  0.0114 -0.0051
32545ION     NA48162  15.918   7.775  13.818 -0.0459 -0.1877 -0.0076
32546ION     NA48163  11.464   5.468  11.086  0.2121 -0.3514 -0.0479
32547ION     NA48164  13.934  10.269  13.425  0.0661 -0.1617 -0.1061
32548ION     NA48165  15.187   7.278   0.309 -0.0721  0.2579  0.0033
32549ION     NA48166   7.054   6.409   4.353  0.0951  0.2467  0.0701
32550ION     NA48167   2.473  17.412   0.253 -0.2963 -0.0752 -0.3020
32551ION     NA48168  14.233  11.706   2.835  0.1765  0.1107 -0.0087
32552ION     NA48169  14.502   1.616   6.233 -0.0343 -0.1927 -0.2774
32553ION     NA48170  11.585  11.699  10.130  0.3634 -0.3092 -0.0042
32554ION     NA48171   4.854  16.723  10.762  0.0837  0.1928  0.0072
32555ION     NA48172   3.348   5.059  14.809  0.1718  0.3633 -0.0802
32556ION     NA48173  10.264  11.266   9.988 -0.1391 -0.1424  0.0174
32557ION     NA48174  15.457  13.607  16.677 -0.0833 -0.3602 -0.1989
32558ION     NA48175  12.974   5.156  14.972 -0.1320 -0.0822  0.0308
32559ION     NA48176  10.764  11.277   5.642 -0.2082 -0.0554  0.0567
32560ION     NA48177   8.583   1.015  10.696  0.0848  0.1079 -0.0456
32561ION     NA48178   8.814  13.148  10.071  0.1293 -0.1556  0.0513
32562ION     NA48179   4.994  15.195   5.725  0.0817  0.0562 -0.1758
32563ION     NA48180  12.921  12.945  10.528 -0.1466  0.2461  0.0525
32564ION     NA48181   9.507   0.011  10.730  0.1751  0.0102 -0.3855
32565ION     NA48182  11.688  14.197   5.901 -0.0666 -0.0406 -0.0299
32566ION     NA48183  15.039   1.030   6.397  0.1318  0.0880 -0.0162
32567ION     NA48184  15.624  16.755   3.665  0.0956 -0.0539  0.0205
32568ION     NA48185  10.944  14.891  10.613  0.1668 -0.0691  0.0344
32569ION     NA48186  11.497  14.638  12.678  0.3582  0.1660 -0.2191
32570ION     NA48187  15.426   8.353   4.691 -0.1427  0.0089 -0.1372
32571ION     NA48188  10.568   4.579   3.772  0.2284  0.1111 -0.1313
32572ION     NA48189   6.346   1.544   2.851 -0.0998 -0.0912 -0.0284
32573ION     NA48190  15.377   9.794  12.182 -0.0691  0.2002 -0.1157
32574ION     NA48191  14.271  14.361   6.125 -0.0980 -0.2081 -0.0911
32575ION     NA48192  14.649   2.472  12.481  0.0728  0.1089  0.0802
32576ION     NA48193  13.512   7.888   6.022  0.1724 -0.0615  0.0248
32577ION     NA48194  10.334   2.946  10.817  0.0206 -0.1600  0.1099
32578ION     NA48195   8.890  14.315  13.986  0.2147 -0.0565 -0.0278
32579ION     NA48196   3.553  10.750  10.891  0.4847  0.1095  0.0456
32580ION     NA48197  17.815   3.681  16.553  0.0230 -0.0813 -0.2577
32581ION     NA48198  10.372  14.172  10.035 -0.2296  0.1055 -0.1709
32582ION     NA48199   1.156  17.874  10.590 -0.1220  0.0707 -0.0524
32583ION     NA48200   6.274   5.901  10.584  0.1354 -0.3259 -0.1208
32584ION     NA48201   1.685   3.645  11.006  0.0113  0.1581  0.1822
32585ION     NA48202   1.372  16.999  10.724 -0.1525  0.2976  0.0639
32586ION     NA48203  16.255   5.449  16.470  0.2514  0.1758  0.1111
32587ION     NA48204  16.501  13.347  13.949 -0.0632 -0.0441  0.0680
32588ION     NA48205  11.869  13.087  10.462  0.0085  0.0893 -0.0563
32589ION     NA48206   6.577  12.602  10.481 -0.0607 -0.2562 -0.0393
32590ION     NA48207  13.273  12.356  10.754 -0.1048  0.1551 -0.0597
32591ION     NA48208  13.869   7.093   6.560  0.0739 -0.1106 -0.0432
32592ION     NA48209   2.389   9.725   1.401 -0.0332 -0.1026  0.2842
32593ION     NA48210   0.006   3.952  11.347  0.0153  0.1696  0.2307
32594ION     NA48211  17.524  14.012  10.997 -0.0932  0.2203 -0.0605
32595ION     NA48212   4.620  11.750   6.057  0.1618 -0.0656  0.2742
32596ION     NA48213   6.056   0.744   3.459  0.2763 -0.0400  0.2855
32597ION     NA48214  12.311  16.038   3.169  0.0879  0.1374  0.0654
32598ION     NA48215   4.315   7.248  10.216 -0.0543 -0.0059 -0.2400
32599ION     NA48216   3.013   1.538  11.984 -0.1477  0.1961  0.0936
32600ION     NA48217   8.039   1.682  10.645 -0.0870 -0.2171 -0.1177
32601ION     NA48218   2.459  14.211  10.611  0.0832 -0.3743  0.1059
32602ION     NA48219  17.126  17.341  11.030 -0.1700  0.3391 -0.1418
32603ION     NA48220  11.947   8.318   0.344  0.3533  0.2795  0.0515
32604ION     NA48221  10.570   2.830  11.755  0.0198 -0.1162  0.1232
32605ION     NA48222   8.631   3.872   0.209  0.0299 -0.0630 -0.1153
32606ION     NA48223   3.262  14.440  14.028 -0.3463 -0.1054 -0.0487
32607ION     NA48224   2.771  17.266   5.363  0.1014  0.0830  0.3369
32608ION     NA48225  16.194   3.738  11.083  0.1383  0.3300 -0.1038
32609ION     NA48226   1.702   1.272  16.231  0.2913  0.2752 -0.0754
32610ION     NA48227   4.371  11.426  10.516 -0.1072 -0.3480 -0.0672
32611ION     NA48228  11.106  12.595  10.198 -0.1710 -0.0185  0.0134
32612ION     NA48229   5.179   6.911  10.369  0.1277 -0.4174  0.0410
32613ION     NA48230   1.860   0.465  10.612  0.2622 -0.2795  0.2001
32614ION     NA48231  14.485  16.909   6.113  0.2341 -0.1510  0.0159
32615ION     NA48232  17.749   2.305  15.624 -0.0020 -0.1195 -0.1008
32616ION     NA48233  11.653  10.693  10.429  0.0729  0.1367  0.0690
32617ION     NA48234  16.146  17.356   2.733 -0.0315  0.0148 -0.1205
32618ION     NA48235  14.713  12.930   6.422  0.1913 -0.0304 -0.2368
32619ION     NA48236   3.837  12.149  10.673 -0.2012  0.0073 -0.1836
32620ION     NA48237  15.292   9.030  15.174 -0.0340  0.1835  0.2346
32621ION     NA48238  15.599  11.388  10.644  0.0551  0.2531  0.3558
32622ION     NA48239  15.042  13.973  10.961  0.1048  0.1885  0.1425
32623ION     NA48240  14.681   2.686   0.344 -0.1398  0.0979 -0.0754
32624ION     NA48241  16.529   4.690   6.169 -0.0111 -0.1958 -0.1417
32625ION     NA48242  10.976   8.674   5.924  0.2980  0.1018 -0.0248
32626ION     NA48243   0.328   9.291  15.043  0.1752 -0.0892 -0.1165
32627ION     NA48244  12.516   3.892  10.979 -0.0035  0.0832 -0.1217
32628ION     NA48245  13.316  13.529  16.654 -0.0869 -0.3236  0.0042
32629ION     NA48246   3.601   4.931  10.963  0.1649  0.1548 -0.2078
32630ION     NA48247  13.658   5.592  16.611 -0.0199 -0.1380 -0.0838
32631ION     NA48248   4.241   4.278  10.694  0.1338  0.1834 -0.3276
32632ION     NA48249   2.748   3.253  16.662  0.1262  0.0493  0.0054
32633ION     NA48250   3.948   5.208   5.249 -0.2530  0.0084  0.2272
32634ION     NA48251  14.648   9.685   3.573  0.0382 -0.0733 -0.2056
32635ION     NA48252   2.225  15.056   3.952 -0.0396  0.0101  0.2592
32636ION     NA48253   1.427  10.638   3.919 -0.0145 -0.0986  0.2074
32637ION     NA48254   1.148   4.037  11.716  0.1193 -0.0265 -0.2956
32638ION     NA48255  11.315   8.585   1.199  0.3096 -0.0576  0.2610
32639ION     NA48256   5.734   5.162  10.524 -0.1782  0.2288 -0.2311
32640ION     NA48257  17.921  11.022  13.213 -0.1310 -0.1424  0.2139
32641ION     NA48258   4.813   0.288  14.885 -0.0381  0.0558  0.0908
32642ION     NA48259   9.937   5.387  10.443  0.0535  0.2849 -0.2468
32643ION     NA48260  10.339  10.311  10.098 -0.0491  0.0752  0.1300
32644ION     NA48261  12.374  14.219  10.509  0.2333  0.1187 -0.4140
32645ION     NA48262   6.528   2.450   1.218 -0.0009  0.2705 -0.0711
32646ION     NA48263   0.775  13.020  10.918 -0.2074  0.0398 -0.2411
32647ION     NA48264  10.797   9.499  10.458 -0.0593 -0.2727 -0.2036
32648ION     NA48265  10.919   7.248   6.143 -0.1005 -0.4756  0.1727
32649ION     NA48266  17.764   5.856  11.347  0.0888 -0.1086 -0.0979
32650ION     NA48267  11.685  10.279  11.617  0.0402  0.1553  0.4525
32651ION     NA48268   7.770   3.582  10.166 -0.0397 -0.3976  0.0682
32652ION     NA48269   2.140  10.493  10.679 -0.0159 -0.0711  0.2697
32653ION     NA48270  15.742   7.102  11.154  0.2655  0.0262  0.0796
32654ION     NA48271   9.486   3.561   5.018 -0.0978  0.0004 -0.0534
32655ION     NA48272   5.702   8.252   4.592 -0.0821 -0.0841  0.1046
32656ION     NA48273   5.162  12.602  10.418 -0.4224  0.2751 -0.1645
32657ION     NA48274   3.067   9.767   6.188 -0.1999 -0.2862 -0.3817
32658ION     NA48275  14.651   5.215  11.147  0.1321 -0.0708 -0.2670
32659ION     NA48276   1.325  12.007  11.094  0.2665 -0.0703  0.2851
32660ION     NA48277   1.652   2.828   6.402 -0.0843  0.2654  0.3027
32661ION     NA48278   2.629  12.602  10.947  0.1930 -0.0541 -0.0177
32662ION     NA48279   0.265  14.649   6.116  0.1353  0.1616  0.0008
32663ION     NA48280  10.042   9.499  10.262 -0.1865  0.0596 -0.1981
32664ION     NA48281   1.069  16.547  12.590 -0.3281  0.5040 -0.5553
32665ION     NA48282  17.120   6.408  10.714  0.2288 -0.0864 -0.0518
32666ION     NA48283  11.337   8.636   3.313 -0.0736 -0.1876 -0.1684
32667ION     NA48284   4.589  13.406  10.554 -0.0589 -0.3537  0.0901
32668ION     NA48285  17.011  12.370  10.973  0.1112  0.0294  0.1451
32669ION     NA48286   0.275  10.409  10.768 -0.1649  0.0536  0.0733
32670ION     NA48287   8.371   7.583  10.171  0.2038 -0.1979  0.2058
32671ION     NA48288  13.118   8.106  15.843  0.0820 -0.0629  0.3920
32672ION     NA48289  12.882  16.958  11.047 -0.0495 -0.1364  0.3410
32673ION     NA48290   3.020   2.882  11.062 -0.1124 -0.2000 -0.1738
32674ION     NA48291   5.082  15.172  15.561  0.1626  0.0085  0.0804
32675ION     NA48292   4.241   9.085  15.430 -0.1226  0.1066 -0.5001
32676ION     NA48293   1.907  12.634  11.482  0.0492 -0.1620  0.1273
32677ION     NA48294   5.987   3.047   1.843  0.0927 -0.0729  0.0959
32678ION     NA48295   2.261   5.417  11.449  0.0097 -0.3339 -0.0782
32679ION     NA48296  10.407   6.462   6.135 -0.4559  0.0001  0.1188
32680ION     NA48297  14.404   9.783  12.140  0.2380  0.0150  0.2508
32681ION     NA48298  13.969  14.696  10.872 -0.0872  0.3322  0.1704
32682ION     NA48299   4.190   9.500  10.652 -0.1915 -0.2733 -0.2346
32683ION     NA48300  16.864   5.334  10.983  0.0818 -0.1916  0.1443
32684ION     NA48301   1.271  10.303  10.783 -0.0365  0.2184 -0.1049
32685ION     NA48302  12.446   0.448   6.455  0.1026 -0.4426  0.0164
32686ION     NA48303  16.452  17.868  11.299  0.3690 -0.3150  0.0792
32687ION     NA48304   4.127  16.785   2.291  0.0902  0.1326  0.0537
32688ION     NA48305   4.744   3.916  15.579  0.0916  0.0322  0.0644
32689ION     NA48306   8.696  10.513   4.155 -0.0699  0.0349 -0.2313
32690ION     NA48307  10.369   3.747   6.050  0.0040 -0.0192 -0.1014
32691ION     NA48308   1.969  16.153  11.063 -0.2514 -0.1426  0.1255
32692ION     NA48309  11.883   2.435  11.746  0.1406 -0.2886  0.0118
32693ION     NA48310  14.387   1.291   3.732  0.2707 -0.3198  0.0011
32694ION     NA48311   5.440  12.592   5.506 -0.1258  0.2704  0.2938
32695ION     NA48312  15.388  17.094  10.809 -0.0318  0.3306 -0.0666
32696ION     NA48313  14.899  15.928  10.875 -0.2388 -0.5355 -0.0166
32697ION     NA48314   9.682  12.291   3.118  0.3983 -0.1263 -0.0089
32698ION     NA48315  11.827   0.130  10.967 -0.1529  0.0107 -0.2235
32699ION     NA48316  13.824   6.902  11.145  0.1024  0.1986 -0.0629
32700ION     NA48317   0.869   9.371  16.440  0.2935 -0.0129 -0.0030
32701ION     NA48318  11.023   9.964   5.406 -0.1575  0.1256  0.4405
32702ION     NA48319  15.026  10.712  10.735  0.0948  0.2307 -0.0694
32703ION     NA48320   5.063   9.157  10.866  0.1349  0.2155  0.1371
32704ION     NA48321   6.960   2.457  10.381  0.1165 -0.0614 -0.0664
32705ION     NA48322  11.517  16.132  12.659  0.1551 -0.0255 -0.0761
32706ION     NA48323  11.975   4.742  11.215 -0.0387  0.4280 -0.2314
32707ION     NA48324  15.940  15.236  14.757  0.1092 -0.0335  0.0800
32708ION     NA48325  12.170   9.175  16.155 -0.0785 -0.0928  0.0128
32709ION     NA48326   5.530  10.564  10.484  0.1459  0.2970 -0.2979
32710ION     NA48327   3.498   8.977  10.508 -0.2428 -0.0024 -0.1131
32711ION     NA48328   3.641  14.424  11.919 -0.0827  0.1510 -0.1769
32712ION     NA48329  17.372   7.361   4.805 -0.2211 -0.2185  0.0950
32713ION     NA48330   1.103  14.642  10.843 -0.1711  0.1671  0.4323
32714ION     NA48331   6.552  16.464   3.781  0.2056  0.3166 -0.1386
32715ION     NA48332   1.105  15.384  10.699 -0.2200 -0.0240 -0.0364
32716ION     NA48333   7.009  16.767  10.626  0.0231 -0.1543  0.0759
32717ION     NA48334  15.652   2.346  10.977 -0.1755 -0.0616  0.3338
32718ION     NA48335   7.006   9.958   6.046 -0.0801 -0.1341  0.0124
32719ION     NA48336   7.852   2.440  11.241  0.0219  0.0374 -0.0145
32720ION     NA48337   3.283  12.927   5.806  0.2150  0.0918 -0.1402
32721ION     NA48338   6.613  10.700  11.192  0.1557  0.2149  0.3868
32722ION     NA48339   7.997   9.967  11.183  0.1590  0.2685  0.0045
32723ION     NA48340  14.968  15.726   6.027  0.4900  0.3591 -0.1317
32724ION     NA48341  15.624  11.101  12.228  0.0192 -0.0892  0.0535
32725ION     NA48342  14.873   5.898   6.425 -0.2213  0.0439  0.5010
32726ION     NA48343   4.120  14.315  10.620 -0.0287  0.1444 -0.1837
32727ION     NA48344  15.934  16.168   0.009  0.2448 -0.0269 -0.4816
32728ION     NA48345   9.628  10.085  11.486  0.1006  0.0918 -0.0976
32729ION     NA48346   6.811   1.691  10.628  0.1323  0.0336 -0.3064
32730ION     NA48347   1.877  10.634  14.528 -0.1858 -0.2625  0.2429
32731ION     NA48348  16.802   0.361  11.074  0.0828  0.1926  0.3335
32732ION     NA48349  15.955  16.886  15.550  0.0920 -0.1270  0.0800
32733ION     NA48350   8.930  15.642  10.309 -0.3030 -0.2697 -0.2281
32734ION     NA48351   2.925  11.955   3.630  0.0815 -0.0506 -0.0655
32735ION     NA48352  17.591  16.526  10.854 -0.2608 -0.5375 -0.2119
32736ION     NA48353  17.512   5.625  15.032 -0.1726  0.1577  0.2611
32737ION     NA48354   2.569   3.678  10.887  0.1500  0.0832  0.1566
32738ION     NA48355  10.745  16.502  10.651 -0.1412 -0.3109  0.1144
32739ION     NA48356  17.197   9.059  10.678  0.0058 -0.1343  0.1652
32740ION     NA48357   0.814   6.572  10.987  0.3058  0.1672  0.0757
32741ION     NA48358   6.738  12.655   5.710  0.1577 -0.1328  0.1077
32742ION     NA48359  14.865  10.430   1.294  0.2418  0.1539 -0.1609
32743ION     NA48360   4.822  12.236  10.390  0.4138 -0.1444 -0.0849
32744ION     NA48361   0.538   7.440  10.993 -0.0880 -0.0903  0.0089
32745ION     NA48362  16.700  15.705  14.257  0.0539 -0.0967 -0.0201
32746ION     NA48363   6.912  10.083  10.127 -0.1400  0.1282  0.2866
32747ION     NA48364  17.675   5.063  13.660  0.0293  0.0108  0.3538
32748ION     NA48365  13.433   5.521  10.923 -0.1287 -0.2276  0.1431
32749ION     NA48366  16.673  17.335   1.304  0.0109  0.0907 -0.0341
32750ION     NA48367  12.116   8.477  10.664  0.1472 -0.1443 -0.0321
32751ION     NA48368   2.986  12.483   2.738  0.2001 -0.3549  0.2094
32752ION     NA48369   3.198  10.900   2.207 -0.1258 -0.3046  0.0871
32753ION     NA48370   1.667  11.773   6.218 -0.0592  0.1039 -0.0129
32754ION     NA48371   2.474  15.691  13.091 -0.0437  0.1737 -0.4513
32755ION     NA48372   9.939   0.142  11.021  0.1016  0.1220  0.1156
32756ION     NA48373   9.681  16.428  13.505 -0.0642  0.2348 -0.1831
32757ION     NA48374   2.645   9.092  10.939  0.1651 -0.1235  0.1019
32758ION     NA48375  14.121  14.095  10.925 -0.1637 -0.0559 -0.0313
32759ION     NA48376   2.325   7.167   6.161  0.1630 -0.2162  0.4167
32760ION     NA48377  13.685  13.341  10.747 -0.4325 -0.0145 -0.0567
32761ION     NA48378  13.883   8.017  10.929 -0.1649  0.1698 -0.0280
32762ION     NA48379   6.878  17.517  12.518 -0.1546 -0.2610  0.0922
32763ION     NA48380   2.118   2.897  11.045 -0.4239  0.0793 -0.0800
32764ION     NA48381   7.212  11.868   5.402 -0.0484  0.0207 -0.0697
32765ION     NA48382   4.856   1.234   2.658  0.1387  0.1855  0.0342
32766ION     NA48383   7.886   9.145  13.385  0.0808 -0.1866  0.0360
32767ION     NA48384   9.906   2.158  10.877 -0.0443  0.1544 -0.4029
32768ION     NA48385  14.961   4.914  15.685 -0.0078  0.0005 -0.1584
32769ION     NA48386  18.033  14.727  10.900 -0.0398  0.0566  0.0631
32770ION     NA48387   2.918   6.694  11.153  0.0571 -0.2193 -0.0488
32771ION     NA48388  17.735   9.181   6.260  0.3469 -0.1727 -0.0712
32772ION     NA48389   6.390  17.245  10.697 -0.0885 -0.0155 -0.2548
32773ION     NA48390   4.909   3.381  13.639 -0.0496 -0.0326  0.2899
32774ION     NA48391  16.403   9.430  11.012  0.3279 -0.1631  0.0536
32775ION     NA48392   6.386   6.771  10.375 -0.0934  0.2013 -0.2113
32776ION     NA48393  13.372  15.989  14.848 -0.1654 -0.0549  0.0648
32777ION     NA48394  16.321   1.769  11.135 -0.1151  0.1299 -0.2206
32778ION     NA48395   3.516   7.108  10.444  0.1987 -0.2333  0.0555
32779ION     NA48396  13.099   3.352   1.584  0.1097 -0.0233 -0.1789
32780ION     NA48397   3.474   2.130  10.961  0.2362 -0.1372  0.1498
32781ION     NA48398   4.553  15.706   1.133  0.2208 -0.0195 -0.0214
32782ION     NA48399   6.386   7.738   4.462  0.0423  0.1211 -0.0867
32783ION     NA48400  14.673  16.916   6.591  0.0491 -0.1617  0.2682
32784ION     NA48401  16.391  11.043   6.323  0.3250 -0.1540  0.1094
32785ION     NA48402  16.484  13.553   0.204  0.1068 -0.0943  0.0073
32786ION     NA48403  17.762  17.386  10.870  0.1001  0.0832  0.0206
32787ION     NA48404   0.022  17.780  10.915 -0.2355  0.2206 -0.3984
32788ION     NA48405  15.720   2.854   6.309 -0.0111 -0.0463  0.2712
32789ION     NA48406   6.384  10.792  10.260 -0.0771 -0.3003  0.1555
32790ION     NA48407  14.466   0.421  14.571 -0.1060 -0.0826 -0.4565
32791ION     NA48408   3.035  17.642  10.779 -0.2145 -0.2099 -0.1843
32792ION     NA48409  17.535  10.088   6.069  0.0745  0.0283 -0.6294
32793ION     NA48410  15.661   0.047  10.976 -0.0521 -0.0065  0.1398
32794ION     NA48411  16.519   7.335   0.784 -0.2818 -0.1133  0.2010
32795ION     NA48412   7.605  12.338  11.565 -0.1721  0.0205  0.1400
32796ION     NA48413   8.719   0.123  10.678 -0.2264 -0.0918  0.0552
32797ION     NA48414   3.980  15.360  13.613  0.1492 -0.0903 -0.1990
32798ION     NA48415   3.912  11.260  10.631 -0.3347 -0.0291  0.2108
32799ION     NA48416  10.575  11.763  10.119  0.1994  0.1797  0.0622
32800ION     NA48417   7.506   5.193   1.085  0.0521  0.0554  0.0158
32801ION     NA48418   2.293  13.334  10.983 -0.0384 -0.2194  0.1703
32802ION     NA48419   5.701   8.610  10.405 -0.0806  0.1499  0.1819
32803ION     NA48420   1.260   2.776  11.036  0.0827  0.0742 -0.0141
32804ION     NA48421   5.317  10.212   5.722 -0.2017 -0.1588 -0.1880
32805ION     NA48422   1.402   1.524   6.217 -0.0049 -0.0989 -0.1414
32806ION     NA48423  13.811   6.665  12.470 -0.2151 -0.2313 -0.2083
32807ION     NA48424   6.960   0.295  10.787  0.1040  0.1357  0.3800
32808ION     NA48425   3.414  11.510  16.397 -0.1117  0.2368  0.1851
32809ION     NA48426   9.056   5.702  10.167 -0.0199  0.1613  0.0628
32810ION     NA48427  16.349   5.871  10.943 -0.1414 -0.0811 -0.2969
32811ION     NA48428   0.571  16.597   6.380 -0.0812  0.0527  0.4704
32812ION     NA48429   3.479  10.006  10.444  0.2249 -0.2518 -0.2446
32813ION     NA48430   6.826  11.745  10.130 -0.0646 -0.1507 -0.0414
32814ION     NA48431   1.047  18.043  16.516  0.1384 -0.3054 -0.3510
32815ION     NA48432   1.711  14.571  10.748  0.2005 -0.1383 -0.0509
32816ION     NA48433   5.949   2.735  10.318  0.0628 -0.2404 -0.2131
32817ION     NA48434  16.555  17.623  15.035  0.0435  0.3714  0.1378
32818ION     NA48435   7.660  17.852  12.818  0.1047  0.0041  0.1389
32819ION     NA48436   9.791  16.825   5.890  0.0726  0.2889  0.0491
32820ION     NA48437   8.089  17.118  10.659 -0.1999 -0.0504 -0.0676
32821ION     NA48438   6.556  11.991   5.467 -0.0936  0.2502  0.0212
32822ION     NA48439  11.834  16.841  14.298  0.3802  0.0793 -0.1365
32823ION     NA48440   1.739  17.720   6.269  0.0554  0.0309  0.0503
32824ION     NA48441  12.448  11.228  10.292 -0.0796 -0.0676 -0.0211
32825ION     NA48442  16.566  14.865  11.123 -0.2974  0.0995 -0.2488
32826ION     NA48443  10.471  12.880   5.618 -0.0295 -0.1690 -0.1404
32827ION     NA48444  11.087   7.298   4.680 -0.0760  0.1592 -0.1871
32828ION     NA48445  13.642   4.857  12.651 -0.0270  0.1004 -0.0316
32829ION     NA48446  10.743  10.393  14.698  0.0283 -0.3555  0.0241
32830ION     NA48447  10.367   7.119  10.501  0.1180 -0.3192  0.0039
32831ION     NA48448   0.680   9.751  10.770 -0.1520  0.3462 -0.0494
32832ION     NA48449   1.269   3.578   6.539 -0.0920  0.1610  0.1158
32833ION     NA48450  17.073   9.091  15.778 -0.0379  0.1273 -0.2398
32834ION     NA48451  10.478   9.079   5.582 -0.0197  0.1073  0.1678
32835ION     NA48452   0.657   0.637  10.899 -0.4276 -0.2051 -0.1352
32836ION     NA48453   4.950   1.827   5.733  0.3162  0.0646 -0.0396
32837ION     NA48454  13.776   4.737  10.867 -0.2360  0.2438  0.0234
32838ION     NA48455   6.069  14.172   5.249  0.1682  0.1879 -0.1043
32839ION     NA48456  15.474  11.981   6.328  0.0861 -0.1775 -0.0189
32840ION     NA48457   5.121   4.364  10.627  0.1718  0.0801 -0.1281
32841ION     NA48458  11.882  17.262  15.937 -0.0503  0.0057 -0.4038
32842ION     NA48459   6.610   9.393  10.494 -0.1012  0.2085 -0.3116
32843ION     NA48460  11.369  14.179  10.551 -0.0856 -0.0544  0.2171
32844ION     NA48461  16.758   7.586  14.040  0.1475 -0.2993 -0.1799
32845ION     NA48462   0.747   2.947  11.109 -0.0227 -0.2021 -0.2710
32846ION     NA48463  13.410  17.688  11.006 -0.0519 -0.2927  0.0759
32847ION     NA48464  10.953  17.136  10.790 -0.0958 -0.3665  0.0759
32848ION     NA48465  11.654   1.619  11.131  0.0757  0.0973  0.1144
32849ION     NA48466   7.519   8.220  10.220  0.3799 -0.0417  0.4988
32850ION     NA48467   2.856  13.540  10.936  0.0552 -0.1540 -0.2573
32851ION     NA48468   5.312   0.999  10.755 -0.1008 -0.0060  0.0511
32852ION     NA48469   9.155   9.744   3.989  0.3007  0.0529  0.1872
32853ION     NA48470   9.260  14.871  10.020  0.3960  0.0528  0.0039
32854ION     NA48471   1.184  16.415  10.834 -0.0804 -0.1025 -0.0375
32855ION     NA48472  14.909   4.001  12.292  0.0642  0.0415 -0.5302
32856ION     NA48473   7.989  12.461  10.623 -0.1874  0.6291  0.1474
32857ION     NA48474   5.653  15.381  10.719  0.1033 -0.1508  0.0517
32858ION     NA48475   0.355   1.591  10.947 -0.0505 -0.1671 -0.2459
32859ION     NA48476   7.766  10.973  10.164 -0.0641 -0.5134  0.1256
32860ION     NA48477  10.163  17.332  10.880  0.1114 -0.2354 -0.1648
32861ION     NA48478  12.797   4.889  11.572 -0.0598 -0.0091 -0.0314
32862ION     NA48479   6.678   7.260  10.579 -0.0534  0.0302  0.1910
32863ION     NA48480  12.008   3.192  10.592 -0.0296  0.0977 -0.0547
32864ION     NA48481   8.259   5.395  13.345 -0.0001 -0.0179  0.0574
32865ION     NA48482   1.430  11.305  11.035  0.0230  0.2467  0.0661
32866ION     NA48483   1.057   2.900   0.131  0.1513  0.1237  0.1671
32867ION     NA48484   4.340  14.779  10.640 -0.2074 -0.1182 -0.1512
32868ION     NA48485   0.257   7.106   5.447  0.0343 -0.2998 -0.3043
32869ION     NA48486   3.226   9.828  10.881 -0.2248  0.3287  0.0820
32870ION     NA48487  12.503   2.405   4.819 -0.4859  0.2694  0.1165
32871ION     NA48488   8.926   5.831  11.605 -0.0642 -0.1962  0.3336
32872ION     NA48489   6.945  10.468  12.563  0.3248 -0.0553 -0.0383
32873ION     NA48490  14.463  17.346  15.533 -0.0489 -0.0112  0.0737
32874ION     NA48491   2.174  14.299   0.596 -0.2020  0.2197  0.0174
32875ION     NA48492   2.861  15.800  10.640  0.0365  0.1561 -0.2783
32876ION     NA48493   4.190   1.551   0.898  0.2068 -0.1603  0.0606
32877ION     NA48494  11.874   7.674  10.644 -0.4258  0.2230 -0.4199
32878ION     NA48495  17.762   7.317   1.161 -0.1367 -0.1263 -0.0216
32879ION     NA48496  17.192   2.441   6.304 -0.0093  0.0108  0.3281
32880ION     NA48497  15.115   3.614   6.464  0.3337 -0.0730  0.2285
32881ION     NA48498  16.191  16.587  11.089 -0.0264 -0.0521  0.0822
32882ION     NA48499  16.122  13.427   6.252 -0.1852 -0.1888  0.2320
32883ION     NA48500   8.434   8.898   2.410 -0.3648  0.1639 -0.2260
32884ION     NA48501  17.066   1.136  11.119  0.1584  0.1788  0.0833
32885ION     NA48502  12.610  15.551  15.091  0.3190 -0.0040  0.0973
32886ION     NA48503  15.345   7.312  12.143  0.1214  0.1894 -0.3162
32887ION     NA48504   6.689   5.145  10.748  0.0637  0.0698  0.0953
32888ION     NA48505   9.838  12.661   9.828  0.1528 -0.1164 -0.2584
32889ION     NA48506   5.080   2.467  10.598  0.3194  0.0458 -0.0127
32890ION     NA48507  14.011  11.791  10.664  0.0028 -0.1049 -0.2376
32891ION     NA48508   1.097  10.021   2.024 -0.0529  0.3111  0.1494
32892ION     NA48509  12.720   4.034   6.423 -0.2397  0.1456 -0.0188
32893ION     NA48510  17.782   7.184  10.829  0.1672 -0.1183 -0.0696
32894ION     NA48511   7.043   0.701  14.653 -0.1523  0.2864 -0.4968
32895ION     NA48512  14.690   8.877  10.591  0.0413  0.1399 -0.2864
32896ION     NA48513   0.647   4.079   4.752 -0.0655 -0.4168  0.1471
32897ION     NA48514  16.432   6.718   6.109 -0.1368 -0.1149 -0.6227
32898ION     NA48515  14.273   3.539  11.356 -0.2393 -0.0188 -0.1784
32899ION     NA48516   2.711   1.288  10.800  0.1776 -0.0623 -0.1532
32900ION     NA48517   6.403   5.836   3.015  0.3203 -0.0997  0.2775
32901ION     NA48518   3.347  18.006   5.735  0.0533  0.0122 -0.2075
32902ION     NA48519   3.119  16.862   4.062  0.0508 -0.1972  0.1813
32903ION     NA48520  15.680   3.122  11.479 -0.2417  0.1737  0.1061
32904ION     NA48521   0.665  16.977   1.364 -0.0569  0.1892 -0.1301
32905ION     NA48522   7.435  11.171   2.134 -0.1905  0.1932  0.2537
32906ION     NA48523  16.521   1.725  15.869  0.1213 -0.1897  0.0474
32907ION     NA48524  12.037  15.031   1.011  0.1485 -0.1821  0.0094
32908ION     NA48525   9.639  17.120   0.612  0.0448  0.3338 -0.3743
32909ION     NA48526  12.089  13.582  11.114 -0.1482 -0.0598  0.2381
32910ION     NA48527  16.313   2.754  10.946 -0.1095 -0.0670 -0.0603
32911ION     NA48528   4.390  15.311  10.710 -0.3813 -0.1815 -0.0935
32912ION     NA48529   3.007   7.975  10.691 -0.0485 -0.1186 -0.0323
32913ION     NA48530   9.163   4.599  12.229  0.1501 -0.4961 -0.1984
32914ION     NA48531  14.080   2.567  11.202 -0.1946  0.0503  0.0866
32915ION     NA48532   3.703   1.347   5.688  0.3765 -0.0288  0.1154
32916ION     NA48533  10.262   2.530  13.269  0.4853 -0.0327  0.0867
32917ION     NA48534  14.447  12.840  10.847  0.2745  0.3785 -0.1157
32918ION     NA48535  14.641   1.216  11.395 -0.0109  0.1633 -0.0826
32919ION     NA48536  17.777  11.635  11.100 -0.0692 -0.1533  0.3195
32920ION     NA48537   8.700  13.853   3.995 -0.0332  0.2250 -0.0008
32921ION     NA48538  12.692  13.021  10.948  0.2633 -0.0914  0.0116
32922ION     NA48539  17.424   6.629  16.777 -0.0124  0.0079  0.3723
32923ION     NA48540   1.999   8.822  10.636  0.0283  0.0145 -0.0542
32924ION     NA48541   2.145   4.522  11.060  0.1487  0.1181 -0.0521
32925ION     NA48542  15.927   3.242  14.604  0.0277  0.2426  0.2678
32926ION     NA48543   5.149   5.113  15.627  0.1179  0.1040 -0.1427
32927ION     NA48544  13.462   9.660  11.118  0.1777 -0.1932  0.2419
32928ION     NA48545   9.120   9.081  10.200 -0.0780 -0.2596  0.1557
32929ION     NA48546  14.449  17.637   2.953  0.0863  0.0355  0.1972
32930ION     NA48547  12.957   8.223  10.979  0.3206  0.1469 -0.1961
32931ION     NA48548   0.531  11.215  10.848 -0.2772  0.2990 -0.0039
32932ION     NA48549   8.016  16.965   1.687 -0.3018 -0.1377  0.0925
32933ION     NA48550  15.431   1.553  11.104 -0.0171 -0.4159  0.0049
32934ION     NA48551  16.213  16.112   4.395 -0.1593  0.1636  0.3282
32935ION     NA48552  13.141   1.875  10.960 -0.3960  0.0294 -0.0703
32936ION     NA48553  13.847   1.823  16.536 -0.0500 -0.1781  0.0612
32937ION     NA48554   0.249  15.158  10.754  0.0091  0.2837  0.1864
32938ION     NA48555   8.049   2.764  10.356 -0.0077 -0.1315  0.0194
32939ION     NA48556   6.638   5.584   5.961 -0.0482  0.1655  0.0755
32940ION     NA48557   9.822   6.383  10.174 -0.1218 -0.1103  0.0472
32941ION     NA48558  18.023   6.740  10.650 -0.0025  0.1880  0.1175
32942ION     NA48559   3.507  13.642  12.036  0.0807  0.0408  0.1881
32943ION     NA48560  17.364  10.326  10.793  0.1502 -0.0432  0.0199
32944ION     NA48561   7.731   3.758  10.594  0.0862 -0.1884  0.4106
32945ION     NA48562   5.235  17.896   3.553 -0.1701 -0.2298  0.1533
32946ION     NA48563   5.406   7.524  14.802 -0.1126  0.0732 -0.0810
32947ION     NA48564   8.021   4.570  10.642 -0.0902 -0.0317  0.0194
32948ION     NA48565   7.061   7.239  10.250 -0.0015  0.2089  0.2244
32949ION     NA48566   1.127  14.952  16.446  0.4398  0.2527 -0.1517
32950ION     NA48567   4.858   4.320  16.674 -0.0603  0.0997  0.1618
32951ION     NA48568  13.147  13.157   6.150 -0.0275 -0.1204 -0.1006
32952ION     NA48569   7.546   1.187   5.977 -0.0755  0.0599 -0.2224
32953ION     NA48570   7.347  13.175  10.189 -0.2574 -0.0048 -0.0569
32954ION     NA48571   9.957   7.875  10.497 -0.3645 -0.0215 -0.1541
32955ION     NA48572   1.917   5.625  11.089  0.0881 -0.0240  0.1344
32956ION     NA48573  17.806   3.132  11.088 -0.0613  0.1588 -0.2086
32957ION     NA48574  12.417   9.017   6.286  0.0212 -0.1243 -0.0636
32958ION     NA48575   4.924   0.196   5.988  0.1107  0.2046 -0.1689
32959ION     NA48576   7.243   0.251   6.238  0.0072 -0.0833 -0.0067
32960ION     NA48577  10.483   8.639  10.382  0.1321 -0.3079  0.0902
32961ION     NA48578   3.045  11.445   4.389 -0.0624 -0.0605  0.0098
32962ION     NA48579  11.950  13.913  13.138  0.2091  0.0977 -0.1438
32963ION     NA48580   8.446  11.592  10.248  0.1702  0.2489 -0.4747
32964ION     NA48581   3.171   2.471   6.327 -0.4103  0.4296 -0.1518
32965ION     NA48582   7.948   4.481  10.170  0.1822 -0.1230 -0.4460
32966ION     NA48583   7.852  15.807  13.476  0.1899 -0.1703  0.0002
32967ION     NA48584   7.502   2.945   6.247  0.0165 -0.0812  0.1534
32968ION     NA48585  15.824   6.059  14.557 -0.0456 -0.2797  0.1526
32969ION     NA48586   8.360   8.548  10.168 -0.0432  0.1476 -0.1742
32970ION     NA48587   8.707   6.390   2.301 -0.1396  0.1842 -0.2585
32971ION     NA48588  16.495   7.060   6.580 -0.0280  0.2452  0.2515
32972ION     NA48589   5.171  14.681  10.757  0.2800  0.2503  0.3190
32973ION     NA48590  13.008   8.996  12.042  0.0115  0.0946  0.0644
32974ION     NA48591   8.634   6.987  16.087 -0.0434  0.1033  0.1436
32975ION     NA48592  15.575   9.051  10.737 -0.1516  0.0339  0.3188
32976ION     NA48593  10.936  13.504   5.926  0.3656  0.0226  0.1252
32977ION     NA48594   9.778   5.791   1.708 -0.0264 -0.3342 -0.0784
32978ION     NA48595   7.650  16.466  10.401 -0.0489  0.0340 -0.0925
32979ION     NA48596   4.397  13.057   3.374 -0.1642 -0.1557  0.0091
32980ION     NA48597  11.439   0.845  10.972 -0.0519 -0.0705 -0.1027
32981ION     NA48598   4.699   1.373  11.561 -0.1658 -0.1243  0.0334
32982ION     NA48599   4.222  10.116   5.220  0.1743  0.0168  0.0149
32983ION     NA48600   3.080   5.316   3.660 -0.0779 -0.0013  0.0591
32984ION     NA48601   1.901   9.733  10.877 -0.0829  0.2191  0.2011
32985ION     NA48602  17.182   3.409  11.093 -0.2119  0.1850 -0.1399
32986ION     NA48603   9.920   4.801   5.403  0.1146 -0.1814  0.0428
32987ION     NA48604  14.823   2.063  11.256 -0.0372 -0.3480  0.1397
32988ION     NA48605   2.297  11.083  10.899 -0.0066  0.0563 -0.0704
32989ION     NA48606   6.395   4.210  10.738  0.0184 -0.1940  0.2170
32990ION     NA48607  14.861   2.894  11.285  0.0478 -0.0987 -0.2080
32991ION     NA48608  14.782  16.714  11.408 -0.0389 -0.1028 -0.0288
32992ION     NA48609  14.229  16.201   6.241 -0.0203  0.2006  0.5257
32993ION     NA48610   9.053  14.081   9.879  0.0015  0.4217  0.0618
32994ION     NA48611   0.605  16.746   5.438  0.0193  0.1246  0.0217
32995ION     NA48612  12.961  10.364  10.629 -0.0132  0.1051 -0.1569
32996ION     NA48613   9.951   7.706  16.263 -0.2845 -0.5057  0.0522
32997ION     NA48614  10.058   1.199  10.910 -0.0506 -0.0689 -0.2788
32998ION     NA48615   6.480   1.221  10.647  0.0100 -0.3132 -0.1927
32999ION     NA48616  14.630   2.698  16.132  0.1860 -0.1345 -0.0639
33000ION     NA48617  17.924   9.683  10.698 -0.1415  0.3237 -0.2391
33001ION     NA48618  11.201  15.593  10.514  0.1542 -0.2830 -0.3437
33002ION     NA48619   4.281   9.056  13.271  0.1134 -0.2740  0.0492
33003ION     NA48620   1.907   2.008  11.206  0.1088  0.4066  0.1561
33004ION     NA48621  11.813   6.677  10.640 -0.0476  0.1319  0.2097
33005ION     NA48622   5.823   3.528  10.544 -0.1541  0.2567  0.0613
33006ION     NA48623  13.637   0.994  16.326  0.2160  0.0658  0.2815
33007ION     NA48624  13.302  13.318   0.880  0.1385  0.1835  0.4166
33008ION     NA48625   9.617  13.372   9.730  0.0210 -0.0355 -0.1477
33009ION     NA48626   4.478  10.523  10.656 -0.3070  0.3094 -0.0252
33010ION     NA48627   4.116   0.182  10.880 -0.0873 -0.0578  0.1551
33011ION     NA48628   2.231  16.614  10.732 -0.2621 -0.3968  0.2190
33012ION     NA48629   9.652  10.623  13.742  0.0881  0.0249 -0.2036
33013ION     NA48630   9.292   7.615   4.808  0.0229 -0.1494  0.1935
33014ION     NA48631   6.122  17.887  10.948  0.1756  0.0373  0.0094
33015ION     NA48632   3.591   6.705   6.118 -0.1231  0.1324  0.1884
33016ION     NA48633  11.839   5.402   6.205 -0.2066  0.0560  0.1666
33017ION     NA48634   0.148  12.742  11.144 -0.2097 -0.1508 -0.1152
33018ION     NA48635  14.684  15.058  13.482 -0.1868  0.0111 -0.0212
33019ION     NA48636   1.315   4.046   4.008  0.1292  0.1288  0.1188
33020ION     NA48637   8.874   6.627  10.201 -0.1527  0.0595  0.2814
33021ION     NA48638   9.472  10.952   9.895 -0.2135 -0.2198  0.0752
33022ION     NA48639   2.096  15.337  11.203  0.2030 -0.0884 -0.0833
33023ION     NA48640  10.793   5.587  10.515 -0.4008  0.2048  0.1034
33024ION     NA48641   8.846   8.133  10.684 -0.0787  0.2552 -0.0726
33025ION     NA48642  16.711  13.793  10.912 -0.0136 -0.3386 -0.2577
33026ION     NA48643  10.972   6.388  10.672  0.0407  0.1214  0.0445
33027ION     NA48644   8.159   9.349  10.213 -0.1037  0.0488 -0.0284
33028ION     NA48645   6.545  14.854  10.827 -0.0962  0.0171  0.0329
33029ION     NA48646   2.862  16.253   0.235  0.3116 -0.1174 -0.0055
33030ION     NA48647   3.690  12.956  10.746 -0.0258  0.1268  0.2313
33031ION     NA48648   3.523  15.250  10.855  0.0297 -0.0731 -0.0359
33032ION     NA48649  10.007   7.490   5.905  0.0813  0.1238  0.1080
33033ION     NA48650   7.249  14.300   1.006  0.0840  0.1600  0.1768
33034ION     NA48651   8.626  10.571  10.169 -0.0509 -0.0494 -0.2037
33035ION     NA48652  12.745   2.664  10.907  0.1013  0.1454  0.0079
33036ION     NA48653  10.921   7.506  10.550 -0.0116 -0.0285 -0.0733
33037ION     NA48654   5.843   1.772  10.598  0.1765 -0.3734  0.2492
33038ION     NA48655  15.434   7.795  11.004 -0.2129 -0.0592  0.0478
33039ION     NA48656  16.541  11.796   6.201  0.0763  0.2076 -0.3053
33040ION     NA48657  13.209  13.224   2.833 -0.2226  0.0832 -0.1931
33041ION     NA48658   7.572  12.568   0.103 -0.0000 -0.2209 -0.3332
33042ION     NA48659  13.931   4.906   2.830 -0.2370  0.0838  0.1535
33043ION     NA48660   9.956   2.426   6.042 -0.4343  0.1952 -0.0527
33044ION     NA48661   7.764  13.572  10.190 -0.0159  0.3901  0.1649
33045ION     NA48662   4.596   8.288   3.898 -0.0714  0.1315 -0.1912
33046ION     NA48663   7.129   4.791  16.734  0.0355 -0.2293  0.0655
33047ION     NA48664   7.666   1.917  10.407  0.0312  0.0421  0.0782
33048ION     NA48665   0.890   8.649  10.749 -0.0899  0.3715  0.1529
33049ION     NA48666   7.409  10.028  10.362  0.1287 -0.2616  0.1754
33050ION     NA48667   6.311   3.561  12.823 -0.2787  0.3295  0.1168
33051ION     NA48668   9.123  14.130   5.702 -0.0929 -0.2282 -0.0702
33052ION     NA48669  17.557  17.896   2.306  0.1100  0.3762 -0.2480
33053ION     NA48670  14.610   9.953   6.029  0.2111 -0.3145 -0.3286
33054ION     NA48671   5.453  13.403  10.421 -0.0255  0.1470  0.0815
33055ION     NA48672   6.407  13.605  10.439 -0.2191 -0.0175 -0.2725
33056ION     NA48673  15.917   0.315   6.303  0.0577 -0.0938  0.0825
33057ION     NA48674  14.356   3.811   4.659 -0.0861 -0.3122 -0.0358
33058ION     NA48675  10.782   3.926  10.632  0.2212  0.2339  0.0315
33059ION     NA48676  17.127   1.220   6.526 -0.0420 -0.3511 -0.2356
33060ION     NA48677   7.495  12.832  14.403 -0.0753 -0.0752 -0.0256
33061ION     NA48678  14.806   7.695  13.124  0.2223  0.3971 -0.3066
33062ION     NA48679   6.721   3.244  10.550 -0.1183  0.1075  0.2865
33063ION     NA48680   1.683   6.465  11.041 -0.3131 -0.5843 -0.0247
33064ION     NA48681   8.894  15.893   5.847 -0.1910  0.1198  0.0739
33065ION     NA48682  10.153  17.735   6.102  0.1001 -0.0631 -0.1294
33066ION     NA48683  16.167  10.934   1.089 -0.0876 -0.1004 -0.1872
33067ION     NA48684  15.964  10.437  10.877 -0.0150 -0.0909 -0.0779
33068ION     NA48685  11.630  13.874  16.454 -0.1706  0.0383 -0.0199
33069ION     NA48686  14.542   9.743  10.814  0.4128  0.3925  0.4205
33070ION     NA48687  13.832  15.735   5.422 -0.1801 -0.2459  0.3136
33071ION     NA48688   5.115   7.483  16.240  0.0950  0.0574 -0.0662
33072ION     NA48689   0.648  16.843   2.683 -0.1160 -0.0331  0.0064
33073ION     NA48690   3.066  11.691  10.950  0.1167  0.2355 -0.0312
33074ION     NA48691   3.041   3.578  14.771  0.1624  0.1263  0.0514
33075ION     NA48692  17.725   0.613  11.254 -0.1513 -0.0153  0.0224
33076ION     NA48693   9.407  11.356  10.505  0.0313 -0.0146  0.0059
33077ION     NA48694  13.609   0.522  11.107  0.0434 -0.3607 -0.1030
33078ION     NA48695  14.397   8.027  10.991  0.0121 -0.0005  0.0261
33079ION     NA48696   9.184   4.178  10.532 -0.2116  0.2500 -0.1145
33080ION     NA48697  14.908   6.700  11.001  0.1675  0.2183 -0.1090
33081ION     NA48698  12.905   4.734  11.011 -0.0547 -0.0066  0.3942
33082ION     NA48699   3.313   9.786  13.151  0.0808  0.0643  0.0998
33083ION     NA48700  11.410   8.497  10.754 -0.3890  0.1956 -0.0936
33084ION     NA48701   7.937  10.235   5.706  0.1858  0.1250 -0.0902
33085ION     NA48702   8.384  17.791   2.303 -0.2737 -0.8461  0.5142
33086ION     NA48703   9.186   1.295   3.077 -0.2423 -0.1068 -0.2251
33087ION     NA48704   2.179   7.819  10.625 -0.0226 -0.0841 -0.0985
33088ION     NA48705  16.899  16.661   0.146 -0.0551  0.1835  0.0656
33089ION     NA48706   1.698  13.687   5.875 -0.2357  0.0052  0.0019
33090ION     NA48707   4.078   1.506  10.857 -0.1815 -0.0116 -0.1961
33091ION     NA48708   7.362   5.545   3.303 -0.1490 -0.0232  0.1742
33092ION     NA48709  10.937  10.939   0.001 -0.2832  0.0369 -0.3706
33093ION     NA48710  12.325   0.871  11.239 -0.0258  0.0456 -0.0125
33094ION     NA48711  15.677  15.273  10.927 -0.0981 -0.1272 -0.0956
33095ION     NA48712  14.924   6.400   3.049 -0.0367 -0.1038  0.1524
33096ION     NA48713   9.454  10.073  10.108  0.1983  0.1860 -0.1417
33097ION     NA48714  12.959  11.887   5.685 -0.1394  0.0235  0.4753
33098ION     NA48715   6.260   9.561  10.763 -0.0128 -0.2549  0.2422
33099ION     NA48716  14.262  17.969  11.074  0.0181  0.0664 -0.1909
33100ION     NA48717  13.776  14.351   2.678  0.1494  0.1840  0.0606
33101ION     NA48718  10.973   7.678  13.272  0.1858 -0.4136  0.0297
33102ION     NA48719  10.822  10.597  10.191  0.0365  0.3236 -0.0324
33103ION     NA48720   9.133  17.330  10.679 -0.2007 -0.1808 -0.0614
33104ION     NA48721  10.300  10.478   5.525 -0.0117  0.0972  0.2736
33105ION     NA48722   8.746   0.504   0.959  0.1706  0.0836 -0.0657
33106ION     NA48723   3.809   4.798   5.694  0.0913 -0.0974  0.0642
33107ION     NA48724  12.893   0.246   1.098 -0.3865  0.2107 -0.2571
33108ION     NA48725  10.148   4.814  10.568 -0.1652 -0.0038 -0.0319
33109ION     NA48726  10.974   5.497  12.966 -0.0940  0.3040 -0.1863
33110ION     NA48727  13.521   8.807  10.836 -0.0664  0.2266  0.0584
33111ION     NA48728   7.135  14.076  10.310  0.2970  0.1718  0.2043
33112ION     NA48729   4.158   5.992  10.729  0.0662 -0.1016 -0.1818
33113ION     NA48730   4.365  16.194   0.820 -0.3419  0.1372 -0.0622
33114ION     NA48731  15.759   4.547  11.006 -0.0468 -0.5112 -0.4109
33115ION     NA48732   9.135   0.194  11.974 -0.1227 -0.1615  0.0915
33116ION     NA48733  13.583   4.014   6.296  0.1770  0.1301  0.3406
33117ION     NA48734   7.811   6.341  10.224 -0.0525 -0.3507 -0.0334
33118ION     NA48735   4.497  17.237   6.087  0.2996 -0.5660  0.0001
33119ION     NA48736   7.568   5.338  10.389 -0.2001 -0.0211 -0.0899
33120ION     NA48737   5.721   0.926  10.451  0.1561 -0.0100  0.0208
33121ION     NA48738   0.579   5.618  11.124  0.0890  0.2386  0.0478
33122ION     NA48739  16.019  14.488  10.906  0.4739 -0.0889 -0.0558
33123ION     NA48740   7.261   8.939   1.675 -0.0249 -0.1332 -0.0838
33124ION     NA48741   5.878   7.474  10.480  0.2618  0.3008  0.3050
33125ION     NA48742   3.001  16.704  10.535 -0.1561 -0.0763  0.1305
33126ION     NA48743   1.265   4.870  11.228  0.1179  0.1646 -0.0779
33127ION     NA48744  15.807  16.276  10.828 -0.2358 -0.1946 -0.1269
33128ION     NA48745  12.585  10.830   2.478  0.1159 -0.0033  0.0897
33129ION     NA48746   8.966  13.222  16.582 -0.2661 -0.2891 -0.0857
33130ION     NA48747  14.515   6.068  10.863  0.0422  0.0192 -0.0643
33131ION     NA48748   3.408   0.722  10.743 -0.1628  0.0287 -0.1149
33132ION     NA48749   5.650  12.427  10.607  0.0781 -0.0208 -0.1127
33133ION     NA48750   1.591   8.133  10.559 -0.0061 -0.1516  0.0981
33134ION     NA48751   6.627  16.380  10.594  0.0525  0.2458 -0.2489
33135ION     NA48752  14.668  12.322  10.683  0.0398  0.3046  0.0394
33136ION     NA48753  16.004   0.404  13.547  0.0163  0.0071 -0.1109
33137ION     NA48754   7.650  12.465   3.655  0.2714  0.2014 -0.1941
33138ION     NA48755  14.435  11.430  10.850 -0.1445  0.1674  0.1530
33139ION     NA48756   5.071   7.792  10.480 -0.1860 -0.0276  0.0719
33140ION     NA48757  13.967   0.487   2.673  0.2037  0.0436  0.1236
33141ION     NA48758  17.316  15.391  10.950  0.1589  0.0378 -0.1474
33142ION     NA48759  11.918  14.780   5.471 -0.3426  0.2215  0.0284
33143ION     NA48760  13.288  14.179  10.818 -0.1929 -0.2857 -0.3159
33144ION     NA48761   3.517   6.607  10.466 -0.0743  0.0149  0.1029
33145ION     NA48762   8.166  17.456   0.205  0.0946  0.1136 -0.1118
33146ION     NA48763  17.170  13.565   6.201  0.2708 -0.3222  0.2253
33147ION     NA48764   5.935   9.974  10.521 -0.1889  0.3792  0.0819
33148ION     NA48765   7.494   1.018  10.672  0.2629 -0.2890 -0.1039
33149ION     NA48766  13.533   6.494  10.996 -0.1154  0.2664 -0.1127
33150ION     NA48767   1.960   1.515  13.744 -0.0696  0.1499  0.3075
33151ION     NA48768  11.637   9.737  10.558  0.1343 -0.0950  0.0174
33152ION     NA48769  16.804   0.077  15.565 -0.1735 -0.0174  0.3761
33153ION     NA48770  12.878   9.426  10.733  0.1202 -0.3808 -0.0287
33154ION     NA48771  15.481   5.395  10.866 -0.4068  0.3132 -0.3130
33155ION     NA48772  12.641   8.062   5.504 -0.0738 -0.0496  0.0138
33156ION     NA48773   6.803   3.640  11.437  0.0608  0.1172 -0.2252
33157ION     NA48774   5.709   4.203   6.189 -0.0206 -0.0040  0.0038
33158ION     NA48775   6.360   7.292   6.071 -0.1745  0.1472  0.1475
33159ION     NA48776  17.336  13.100  10.859 -0.1312  0.0274  0.2480
33160ION     NA48777   8.649   2.383  10.659  0.2790 -0.0045  0.0560
33161ION     NA48778  13.838   3.850   4.348 -0.0595 -0.1758 -0.5848
33162ION     NA48779   6.939   0.274   1.786  0.1617 -0.0260 -0.0978
33163ION     NA48780  11.238   4.667  10.764  0.4058 -0.1875  0.3365
33164ION     NA48781  10.823   1.630  10.996 -0.0548 -0.2386 -0.0247
33165ION     NA48782  14.874   2.247  13.675 -0.1392  0.3149  0.1308
33166ION     NA48783   8.580  14.883   0.771 -0.1210 -0.2038 -0.2408
33167ION     NA48784  11.852   9.277  10.464  0.3183  0.1103  0.0689
33168ION     NA48785  18.050  13.801   6.261 -0.0003 -0.2861 -0.0136
33169ION     NA48786  10.472   2.410  10.933  0.2949  0.3932  0.1063
33170ION     NA48787  17.564   0.734   6.498 -0.0522  0.0519  0.0819
33171ION     NA48788  16.434   6.722  10.987  0.0498  0.0852 -0.0191
33172ION     NA48789   0.385  15.968  10.983 -0.0255 -0.0501 -0.1654
33173ION     NA48790   3.218   9.347   3.985 -0.0315 -0.1663 -0.0269
33174ION     NA48791   1.488   5.874   0.275  0.1332  0.3378 -0.2849
33175ION     NA48792   0.312  11.952  11.779 -0.1988  0.0747 -0.1198
33176ION     NA48793   5.500  17.311  10.917 -0.0206  0.1504 -0.0907
33177ION     NA48794  17.848  12.516   5.482 -0.2954 -0.2468  0.1393
33178ION     NA48795  11.633  12.353   5.252 -0.0199 -0.0756  0.0536
33179ION     NA48796   3.223   1.277  10.716 -0.0627  0.1364  0.0256
33180ION     NA48797  16.990  16.306  10.787  0.4960 -0.2708 -0.1535
33181ION     NA48798   9.590  16.116  10.556 -0.0861  0.0335 -0.0992
33182ION     NA48799   5.618  14.828   3.586  0.2694  0.4039  0.0058
33183ION     NA48800   5.020   3.588  10.832  0.3185  0.3855  0.0369
33184ION     NA48801  16.842   9.202   2.011 -0.1007 -0.0369  0.1172
33185ION     NA48802   9.528  12.448  14.148  0.0576 -0.2845 -0.0602
33186ION     NA48803   1.099  13.817  10.973  0.2293  0.0648  0.1378
33187ION     NA48804   7.258   4.515  10.277  0.0768  0.0404  0.0996
33188ION     NA48805   3.653   8.409   6.144  0.2414 -0.0364  0.1184
33189ION     NA48806  13.654  10.084  10.818 -0.0265  0.0579  0.2813
33190ION     NA48807  14.580  16.866   4.791  0.2713 -0.2082  0.0999
33191ION     NA48808  13.023  15.705  10.900 -0.2235  0.1558 -0.0113
33192ION     NA48809   3.248  14.362  10.551  0.0900  0.1305  0.1166
33193ION     NA48810   7.484   8.899  10.508 -0.0983 -0.0321  0.1898
33194ION     NA48811   7.095  16.125   4.990  0.2160 -0.1422  0.1503
33195ION     NA48812  10.334  12.334   1.929  0.0527  0.3434  0.0631
33196ION     NA48813  16.896  11.539  10.868  0.0063 -0.3122  0.2101
33197ION     NA48814  10.863   1.057  15.344 -0.2687  0.1580 -0.0408
33198ION     NA48815  12.841  14.475  13.292  0.0499 -0.4293 -0.3055
33199ION     NA48816   4.077   7.923  10.427 -0.1794 -0.0300  0.0159
33200ION     NA48817  12.443  12.239  10.483 -0.0453 -0.4785 -0.0265
33201ION     NA48818  10.550  15.024  10.330 -0.0760  0.2620  0.1406
33202ION     NA48819   0.398  16.781  10.747 -0.1207  0.0732  0.3378
33203ION     NA48820   7.616   3.746  11.608  0.1581  0.1120  0.0701
33204ION     NA48821   7.035   9.480   3.472 -0.2377 -0.2277 -0.3026
33205ION     NA48822  10.109   3.800  10.753 -0.2228 -0.0205  0.0308
33206ION     NA48823  13.278   2.789  10.900 -0.0304 -0.0011 -0.3336
33207ION     NA48824  14.166   9.672  16.738 -0.0037  0.1787 -0.0462
33208ION     NA48825  12.750   7.258  10.818 -0.0467  0.1901 -0.0996
33209ION     NA48826   1.152   5.721  11.240 -0.1589 -0.1385  0.1154
33210ION     NA48827   3.942   4.708  15.271 -0.0249 -0.0549  0.1449
33211ION     NA48828   6.028  10.662   2.625  0.0713 -0.1461  0.1114
33212ION     NA48829  16.924   2.805   1.611 -0.0532 -0.0322 -0.1413
33213ION     NA48830   5.079  14.170  10.622  0.1092  0.1713  0.0883
33214ION     NA48831  17.515   1.607  11.213  0.0018 -0.2844  0.0204
33215ION     NA48832   8.654   3.454  10.559  0.1961  0.1817 -0.0716
33216ION     NA48833   4.327   9.150   6.042 -0.0845 -0.0346 -0.1548
33217ION     NA48834   1.858  15.224   5.769  0.0296  0.1989  0.2383
33218ION     NA48835   6.432  14.820   4.072 -0.3401 -0.1806 -0.1534
33219ION     NA48836  11.247   2.669  10.962 -0.0369  0.4034  0.2094
33220ION     NA48837   3.572   8.831   6.367  0.4304 -0.2135 -0.1318
33221ION     NA48838  16.623   4.021  11.114  0.2112  0.0861  0.0634
33222ION     NA48839   8.520  16.772  10.795 -0.0643 -0.0391 -0.2125
33223ION     NA48840  16.996   0.980   1.217 -0.2110  0.1129  0.1180
33224ION     NA48841  13.871   0.980   6.395  0.3914 -0.3626  0.0764
  18.05163  18.05163  16.80816
